<event>
12    1  0.1565987E-001  0.1728139E+03  0.7818608E-02  0.1175791E+00
         21   -1    0    0  503  502  0.00000000000E+00  0.00000000000E+00  0.53060679289E+03  0.53060679289E+03  0.00000000000E+00 0.  1.
         21   -1    0    0  501  503 -0.00000000000E+00 -0.00000000000E+00 -0.98172837272E+02  0.98172837272E+02  0.00000000000E+00 0.  1.
          6    2    1    2  501    0  0.51939012088E+01 -0.14844854676E+02  0.94334008825E+01  0.17307116785E+03  0.17209675699E+03 0.  0.
         24    2    3    3    0    0  0.19063006639E+02  0.55631904929E+02 -0.86383677310E+01  0.98855235928E+02  0.78990057635E+02 0.  0.
         -6    2    1    2    0  502 -0.51939012088E+01  0.14844854676E+02  0.42300055474E+03  0.45570846231E+03  0.16879984300E+03 0.  0.
        -24    2    5    5    0    0 -0.54609625928E+01 -0.27013822739E+02  0.10437348325E+03  0.13430914545E+03  0.79909660334E+02 0.  0.
          5    1    3    3  501    0 -0.13869105430E+02 -0.70476759605E+02  0.18071768613E+02  0.74215931920E+02  0.47000000000E+01 0. -1.
        -11    1    4    4    0    0 -0.29733164113E+02  0.10225062106E+02  0.12714180242E+01  0.31467911387E+02  0.00000000000E+00 0.  1.
         12    1    4    4    0    0  0.48796170752E+02  0.45406842823E+02 -0.99097857552E+01  0.67387324542E+02  0.00000000000E+00 0. -1.
         -5    1    5    5    0  502  0.26706138398E+00  0.41858677415E+02  0.31862707148E+03  0.32139931686E+03  0.47000000000E+01 0.  1.
         13    1    6    6    0    0  0.11108348142E+02 -0.12353444169E+02 -0.89331599789E+01  0.18862776267E+02  0.00000000000E+00 0. -1.
        -14    1    6    6    0    0 -0.16569310735E+02 -0.14660378570E+02  0.11330664323E+03  0.11544636919E+03  0.00000000000E+00 0.  1.
</event>
<event>
12    1  0.1565987E-001  0.1730366E+03  0.7818608E-02  0.1174786E+00
         21   -1    0    0  503  502  0.00000000000E+00  0.00000000000E+00  0.35971322023E+02  0.35971322023E+02  0.00000000000E+00 0. -1.
         21   -1    0    0  501  503 -0.00000000000E+00 -0.00000000000E+00 -0.85451158076E+03  0.85451158076E+03  0.00000000000E+00 0. -1.
          6    2    1    2  501    0 -0.69143234539E+01  0.20769792156E+02 -0.33523396033E+03  0.37713444680E+03  0.17137500013E+03 0.  0.
         24    2    3    3    0    0 -0.28457559722E+01 -0.44529966127E+02 -0.11727517943E+03  0.14951913131E+03  0.81311049112E+02 0.  0.
         -6    2    1    2    0  502  0.69143234539E+01 -0.20769792156E+02 -0.48330629841E+03  0.51334845599E+03  0.17164634294E+03 0.  0.
        -24    2    5    5    0    0 -0.43193877422E+01  0.19796247001E+02 -0.45230188218E+03  0.46085880343E+03  0.86042405636E+02 0.  0.
          5    1    3    3  501    0 -0.40685674817E+01  0.65299758283E+02 -0.21795878089E+03  0.22761531548E+03  0.47000000000E+01 0. -1.
        -11    1    4    4    0    0  0.25955641462E+02 -0.16643748191E+02 -0.62268665910E+01  0.31456057367E+02  0.00000000000E+00 0.  1.
         12    1    4    4    0    0 -0.28801397434E+02 -0.27886217935E+02 -0.11104831284E+03  0.11806307395E+03  0.00000000000E+00 0. -1.
         -5    1    5    5    0  502  0.11233711196E+02 -0.40566039157E+02 -0.31004416236E+02  0.52489652564E+02  0.47000000000E+01 0.  1.
         11    1    6    6    0    0  0.35558622958E+02  0.72552294390E+01 -0.32143722809E+03  0.32347943616E+03  0.00000000000E+00 0. -1.
        -12    1    6    6    0    0 -0.39878010700E+02  0.12541017562E+02 -0.13086465409E+03  0.13737936726E+03  0.00000000000E+00 0.  1.
</event>
<event>
12    1  0.1565987E-001  0.1821597E+03  0.7818608E-02  0.1165942E+00
         21   -1    0    0  501  502  0.00000000000E+00  0.00000000000E+00  0.28808733894E+04  0.28808733894E+04  0.00000000000E+00 0.  1.
         21   -1    0    0  502  503 -0.00000000000E+00 -0.00000000000E+00 -0.13928746125E+02  0.13928746125E+02  0.00000000000E+00 0.  1.
         -6    2    1    2    0  503  0.27814676013E+02  0.55460749048E+02  0.82723574051E+03  0.84705438721E+03  0.17126766661E+03 0.  0.
        -24    2    3    3    0    0  0.17609215831E+02  0.22280160044E+02  0.79462216704E+03  0.79919168693E+03  0.80476543684E+02 0.  0.
          6    2    1    2  501    0 -0.27814676013E+02 -0.55460749048E+02  0.20397089028E+04  0.20477477483E+04  0.17031993959E+03 0.  0.
         24    2    5    5    0    0 -0.44016947027E+02 -0.21887155826E+02  0.19170044222E+04  0.19194193442E+04  0.82753398696E+02 0.  0.
          5    1    5    5  501    0  0.16202271014E+02 -0.33573593221E+02  0.12270448054E+03  0.12832840407E+03  0.47000000000E+01 0. -1.
        -13    1    6    6    0    0 -0.56833811422E+02 -0.23820563036E+02  0.81061010108E+03  0.81294909885E+03  0.00000000000E+00 0.  1.
         14    1    6    6    0    0  0.12816864395E+02  0.19334072098E+01  0.11063943211E+04  0.11064702454E+04  0.00000000000E+00 0. -1.
         -5    1    3    3    0  503  0.10205460181E+02  0.33180589004E+02  0.32613573470E+02  0.47862700286E+02  0.47000000000E+01 0.  1.
         11    1    4    4    0    0 -0.22043930350E+02  0.28998069145E+02  0.20588505900E+03  0.20908247272E+03  0.00000000000E+00 0. -1.
        -12    1    4    4    0    0  0.39653146181E+02 -0.67179091011E+01  0.58873710805E+03  0.59010921421E+03  0.00000000000E+00 0.  1.
</event>
<event>
12    1  0.1565987E-001  0.1742870E+03  0.7818608E-02  0.1174326E+00
         21   -1    0    0  503  502  0.00000000000E+00  0.00000000000E+00  0.52627887093E+03  0.52627887093E+03  0.00000000000E+00 0.  1.
         21   -1    0    0  501  503 -0.00000000000E+00 -0.00000000000E+00 -0.67061160564E+02  0.67061160564E+02  0.00000000000E+00 0.  1.
          6    2    1    2  501    0  0.16220892418E+02  0.35066697501E+01  0.11042941923E+03  0.20343075416E+03  0.17004117449E+03 0.  0.
         24    2    3    3    0    0  0.29734602906E+02 -0.46714021100E+02  0.11532371291E+03  0.15098285362E+03  0.80186762936E+02 0.  0.
         -6    2    1    2    0  502 -0.16220892418E+02 -0.35066697501E+01  0.34878829114E+03  0.38990927734E+03  0.17349512511E+03 0.  0.
        -24    2    5    5    0    0  0.37382450106E+02 -0.40088413259E+02  0.12811680829E+03  0.15984507840E+03  0.78307113792E+02 0.  0.
          5    1    3    3  501    0 -0.13513710488E+02  0.50220690850E+02 -0.48942936774E+01  0.52447900542E+02  0.47000000000E+01 0. -1.
        -11    1    4    4    0    0  0.39365179129E+02  0.82287450389E+01  0.35771468913E+02  0.53823113631E+02  0.00000000000E+00 0.  1.
         12    1    4    4    0    0 -0.96305762234E+01 -0.54942766139E+02  0.79552243998E+02  0.97159739987E+02  0.00000000000E+00 0. -1.
         -5    1    5    5    0  502 -0.53603342524E+02  0.36581743508E+02  0.22067148285E+03  0.23006419893E+03  0.47000000000E+01 0.  1.
         13    1    6    6    0    0  0.15712321224E+02 -0.45353525374E+02  0.24564626884E+02  0.53918829698E+02  0.00000000000E+00 0. -1.
        -14    1    6    6    0    0  0.21670128882E+02  0.52651121150E+01  0.10355218140E+03  0.10592624871E+03  0.00000000000E+00 0.  1.
</event>
<event>
12    1  0.1565987E-001  0.1778219E+03  0.7818608E-02  0.1170001E+00
         21   -1    0    0  503  502  0.00000000000E+00  0.00000000000E+00  0.17367304672E+03  0.17367304672E+03  0.00000000000E+00 0.  1.
         21   -1    0    0  501  503 -0.00000000000E+00 -0.00000000000E+00 -0.27954310780E+03  0.27954310780E+03  0.00000000000E+00 0.  1.
          6    2    1    2  501    0  0.21160944405E+02 -0.41968216254E+02 -0.18692604787E+03  0.25779174315E+03  0.17119029973E+03 0.  0.
         24    2    3    3    0    0 -0.30678342834E+02 -0.59649677639E+02 -0.17222422979E+03  0.20088674132E+03  0.78708657410E+02 0.  0.
         -6    2    1    2    0  502 -0.21160944405E+02  0.41968216254E+02  0.81055986788E+02  0.19542441137E+03  0.17149784495E+03 0.  0.
        -24    2    5    5    0    0 -0.26151457303E+02  0.52686689576E+02 -0.13056248171E+02  0.10045602896E+03  0.80381354554E+02 0.  0.
          5    1    3    3  501    0  0.51839287239E+02  0.17681461385E+02 -0.14701818080E+02  0.56905001828E+02  0.47000000000E+01 0. -1.
        -11    1    4    4    0    0 -0.20081644205E+02 -0.20412857450E+02 -0.15348292356E+03  0.15613124290E+03  0.00000000000E+00 0.  1.
         12    1    4    4    0    0 -0.10596698629E+02 -0.39236820189E+02 -0.18741306230E+02  0.44755498429E+02  0.00000000000E+00 0. -1.
         -5    1    5    5    0  502  0.49905128980E+01 -0.10718473323E+02  0.94112234960E+02  0.94968382415E+02  0.47000000000E+01 0.  1.
         13    1    6    6    0    0 -0.37472037616E+02  0.10052532964E+01 -0.26453021559E+02  0.45879477840E+02  0.00000000000E+00 0. -1.
        -14    1    6    6    0    0  0.11320580313E+02  0.51681436280E+02  0.13396773388E+02  0.54576551117E+02  0.00000000000E+00 0.  1.
</event>
<event>
12    1  0.1565987E-001  0.1784563E+03  0.7818608E-02  0.1169350E+00
         21   -1    0    0  501  502  0.00000000000E+00  0.00000000000E+00  0.86818100988E+03  0.86818100988E+03  0.00000000000E+00 0. -1.
         21   -1    0    0  502  503 -0.00000000000E+00 -0.00000000000E+00 -0.33547473347E+03  0.33547473347E+03  0.00000000000E+00 0.  1.
         -6    2    1    2    0  503  0.36362704390E+01  0.46796513129E+02 -0.30164019276E+03  0.35047603888E+03  0.17217291260E+03 0.  0.
        -24    2    3    3    0    0  0.38278979112E+02  0.83955684095E+01 -0.28069167764E+03  0.29447889515E+03  0.79963966765E+02 0.  0.
          6    2    1    2  501    0 -0.36362704390E+01 -0.46796513129E+02  0.83434646917E+03  0.85317970447E+03  0.17198384052E+03 0.  0.
         24    2    5    5    0    0 -0.27596457884E+00 -0.88070162038E+02  0.40716148954E+03  0.42396658425E+03  0.78808352324E+02 0.  0.
          5    1    5    5  501    0 -0.33603058602E+01  0.41273648909E+02  0.42718497963E+03  0.42921312022E+03  0.47000000000E+01 0. -1.
        -11    1    6    6    0    0 -0.17110068220E+02  0.31482065610E+01  0.14173375079E+03  0.14279748510E+03  0.00000000000E+00 0.  1.
         12    1    6    6    0    0  0.16834103641E+02 -0.91218368599E+02  0.26542773876E+03  0.28116909915E+03  0.00000000000E+00 0. -1.
         -5    1    3    3    0  503 -0.34642708673E+02  0.38400944720E+02 -0.20948515118E+02  0.55997143724E+02  0.47000000000E+01 0.  1.
         11    1    4    4    0    0 -0.54497939675E+01  0.58719498637E+01  0.21267092294E+01  0.82887237640E+01  0.00000000000E+00 0. -1.
        -12    1    4    4    0    0  0.43728773080E+02  0.25236185458E+01 -0.28281838687E+03  0.28619017139E+03  0.00000000000E+00 0.  1.
</event>
<event>
12    1  0.1565987E-001  0.2101951E+03  0.7818608E-02  0.1141986E+00
         21   -1    0    0  501  502  0.00000000000E+00  0.00000000000E+00  0.98224506024E+02  0.98224506024E+02  0.00000000000E+00 0.  1.
         21   -1    0    0  502  503 -0.00000000000E+00 -0.00000000000E+00 -0.54473472673E+03  0.54473472673E+03  0.00000000000E+00 0.  1.
         -6    2    1    2    0  503  0.21831244719E+02  0.11694081537E+03 -0.36047850845E+03  0.41583932143E+03  0.16978170881E+03 0.  0.
        -24    2    3    3    0    0 -0.14083151097E+02  0.33072182120E+01 -0.20134966066E+03  0.21697625691E+03  0.79547076489E+02 0.  0.
          6    2    1    2  501    0 -0.21831244719E+02 -0.11694081537E+03 -0.86031712260E+02  0.22711991133E+03  0.17329235720E+03 0.  0.
         24    2    5    5    0    0 -0.14130054098E+02 -0.26616750863E+02  0.20801022699E+02  0.86930510071E+02  0.78842381881E+02 0.  0.
          5    1    5    5  501    0 -0.77011906206E+01 -0.90324064509E+02 -0.10683273496E+03  0.14018940126E+03  0.47000000000E+01 0. -1.
        -11    1    6    6    0    0 -0.41208368415E+02 -0.17548334922E+02 -0.89691410117E+01  0.45678432290E+02  0.00000000000E+00 0.  1.
         12    1    6    6    0    0  0.27078314317E+02 -0.90684159405E+01  0.29770163711E+02  0.41252077781E+02  0.00000000000E+00 0. -1.
         -5    1    3    3    0  503  0.35914395816E+02  0.11363359716E+03 -0.15912884779E+03  0.19886306451E+03  0.47000000000E+01 0.  1.
         13    1    4    4    0    0  0.17616684204E+02 -0.24178153401E+02 -0.38209142618E+02  0.48526995001E+02  0.00000000000E+00 0. -1.
        -14    1    4    4    0    0 -0.31699835302E+02  0.27485371613E+02 -0.16314051804E+03  0.16844926191E+03  0.00000000000E+00 0.  1.
</event>
<event>
12    1  0.1565987E-001  0.2304805E+03  0.7818608E-02  0.1126399E+00
         21   -1    0    0  501  502  0.00000000000E+00  0.00000000000E+00  0.20145266980E+04  0.20145266980E+04  0.00000000000E+00 0.  1.
         21   -1    0    0  502  503 -0.00000000000E+00 -0.00000000000E+00 -0.62550896796E+02  0.62550896796E+02  0.00000000000E+00 0.  1.
         -6    2    1    2    0  503 -0.13512510744E+03 -0.72354059135E+02  0.18494055314E+03  0.29507456261E+03  0.17138286020E+03 0.  0.
        -24    2    3    3    0    0 -0.26606008003E+02 -0.24668907601E+02  0.14625739185E+03  0.17029978316E+03  0.79336982621E+02 0.  0.
          6    2    1    2  501    0  0.13512510744E+03  0.72354059135E+02  0.17670352480E+04  0.17820030322E+04  0.17212592568E+03 0.  0.
         24    2    5    5    0    0  0.12515385234E+03  0.10973378722E+03  0.15949513623E+04  0.16055614732E+04  0.79074681740E+02 0.  0.
          5    1    5    5  501    0  0.99712550980E+01 -0.37379728085E+02  0.17208388577E+03  0.17644155900E+03  0.47000000000E+01 0. -1.
        -11    1    6    6    0    0  0.10411269697E+03  0.76677986539E+02  0.14376536780E+04  0.14434566378E+04  0.00000000000E+00 0.  1.
         12    1    6    6    0    0  0.21041155369E+02  0.33055800682E+02  0.15729768428E+03  0.16210483539E+03  0.00000000000E+00 0. -1.
         -5    1    3    3    0  503 -0.10851909944E+03 -0.47685151534E+02  0.38683161299E+02  0.12477477945E+03  0.47000000000E+01 0.  1.
         11    1    4    4    0    0 -0.38032777237E+01  0.12621136876E+02 -0.40309572332E+01  0.13784289379E+02  0.00000000000E+00 0. -1.
        -12    1    4    4    0    0 -0.22802730279E+02 -0.37290044476E+02  0.15028834908E+03  0.15651549378E+03  0.00000000000E+00 0.  1.
</event>
<event>
12    1  0.1565987E-001  0.1848801E+03  0.7818608E-02  0.1163264E+00
         21   -1    0    0  501  502  0.00000000000E+00  0.00000000000E+00  0.15906716184E+03  0.15906716184E+03  0.00000000000E+00 0. -1.
         21   -1    0    0  502  503 -0.00000000000E+00 -0.00000000000E+00 -0.39812752970E+03  0.39812752970E+03  0.00000000000E+00 0. -1.
         -6    2    1    2    0  503 -0.66950662559E+02 -0.52847622317E+01 -0.30887787148E+03  0.35998084469E+03  0.17225083200E+03 0.  0.
        -24    2    3    3    0    0 -0.82788746677E+02 -0.53963798859E+02 -0.17400894268E+03  0.21564716369E+03  0.80364910941E+02 0.  0.
          6    2    1    2  501    0  0.66950662559E+02  0.52847622317E+01  0.69817503624E+02  0.19721384684E+03  0.17178037619E+03 0.  0.
         24    2    5    5    0    0  0.17650728581E+02  0.40887480170E+02 -0.54489709464E+01  0.10033676385E+03  0.89746535535E+02 0.  0.
          5    1    5    5  501    0  0.49299933978E+02 -0.35602717938E+02  0.75266474571E+02  0.96877082992E+02  0.47000000000E+01 0. -1.
        -13    1    6    6    0    0 -0.97012677719E+01  0.54788370607E+02  0.21352962226E+02  0.59597224315E+02  0.00000000000E+00 0.  1.
         14    1    6    6    0    0  0.27351996353E+02 -0.13900890437E+02 -0.26801933173E+02  0.40739539531E+02  0.00000000000E+00 0. -1.
         -5    1    3    3    0  503  0.15838084119E+02  0.48679036627E+02 -0.13486892881E+03  0.14433368101E+03  0.47000000000E+01 0.  1.
         13    1    4    4    0    0 -0.91595676126E+02 -0.22144471474E+02 -0.12458071116E+03  0.15620659107E+03  0.00000000000E+00 0. -1.
        -14    1    4    4    0    0  0.88069294486E+01 -0.31819327385E+02 -0.49428231519E+02  0.59440572614E+02  0.00000000000E+00 0.  1.
</event>
<event>
12    1  0.1565987E-001  0.2045028E+03  0.7818608E-02  0.1146173E+00
         21   -1    0    0  503  502  0.00000000000E+00  0.00000000000E+00  0.20473533453E+04  0.20473533453E+04  0.00000000000E+00 0. -1.
         21   -1    0    0  501  503 -0.00000000000E+00 -0.00000000000E+00 -0.23078248260E+02  0.23078248260E+02  0.00000000000E+00 0.  1.
          6    2    1    2  501    0  0.10895909413E+03 -0.21840552883E+02  0.13668062795E+04  0.13818921060E+04  0.17063790054E+03 0.  0.
         24    2    3    3    0    0  0.70393327095E+02 -0.74624460083E+02  0.69099430845E+03  0.70290950725E+03  0.78003913517E+02 0.  0.
         -6    2    1    2    0  502 -0.10895909413E+03  0.21840552883E+02  0.65746881753E+03  0.68853948751E+03  0.17167494255E+03 0.  0.
        -24    2    5    5    0    0 -0.98353950844E+02 -0.10144531265E+02  0.63550627130E+03  0.64804309126E+03  0.79468334060E+02 0.  0.
          5    1    3    3  501    0  0.38565767032E+02  0.52783907201E+02  0.67581197106E+03  0.67898259880E+03  0.47000000000E+01 0. -1.
        -13    1    4    4    0    0  0.23911205699E+02 -0.36322226454E+02  0.51621595463E+03  0.51804436268E+03  0.00000000000E+00 0.  1.
         14    1    4    4    0    0  0.46482121396E+02 -0.38302233629E+02  0.17477835382E+03  0.18486514457E+03  0.00000000000E+00 0. -1.
         -5    1    5    5    0  502 -0.10605143284E+02  0.31985084148E+02  0.21962546232E+02  0.40496396248E+02  0.47000000000E+01 0.  1.
         13    1    6    6    0    0 -0.60918932329E+02 -0.84932768617E+01  0.56371795816E+03  0.56706365464E+03  0.00000000000E+00 0. -1.
        -14    1    6    6    0    0 -0.37435018515E+02 -0.16512544038E+01  0.71788313139E+02  0.80979436623E+02  0.00000000000E+00 0.  1.
</event>
<event>
12    1  0.1565987E-001  0.2607207E+03  0.7818608E-02  0.1106893E+00
         21   -1    0    0  501  502  0.00000000000E+00  0.00000000000E+00  0.81935850555E+03  0.81935850555E+03  0.00000000000E+00 0.  1.
         21   -1    0    0  502  503 -0.00000000000E+00 -0.00000000000E+00 -0.15595666145E+03  0.15595666145E+03  0.00000000000E+00 0.  1.
         -6    2    1    2    0  503 -0.12303503992E+03  0.15032046005E+03 -0.23942217178E+01  0.26073166424E+03  0.17390056551E+03 0.  0.
        -24    2    3    3    0    0 -0.48195595682E+02  0.11958927627E+03 -0.57103941610E+02  0.16295338690E+03  0.81661102809E+02 0.  0.
          6    2    1    2  501    0  0.12303503992E+03 -0.15032046005E+03  0.66579606581E+03  0.71458350276E+03  0.17207939855E+03 0.  0.
         24    2    5    5    0    0  0.47576818029E+02 -0.36024456465E+02  0.14003542384E+03  0.17125684012E+03  0.78470824389E+02 0.  0.
          5    1    5    5  501    0  0.75458221893E+02 -0.11429600358E+03  0.52576064197E+03  0.54332666264E+03  0.47000000000E+01 0. -1.
        -11    1    6    6    0    0  0.26508175897E+02 -0.35546217641E+02  0.14323470188E+03  0.14994131119E+03  0.00000000000E+00 0.  1.
         12    1    6    6    0    0  0.21068642131E+02 -0.47823882462E+00 -0.31992780407E+01  0.21315528931E+02  0.00000000000E+00 0. -1.
         -5    1    3    3    0  503 -0.74839444239E+02  0.30731183780E+02  0.54709719892E+02  0.97778277349E+02  0.47000000000E+01 0.  1.
         13    1    4    4    0    0 -0.54821406387E+02  0.98934676377E+02 -0.74251870075E+02  0.13530261268E+03  0.00000000000E+00 0. -1.
        -14    1    4    4    0    0  0.66258107043E+01  0.20654599891E+02  0.17147928465E+02  0.27650774217E+02  0.00000000000E+00 0.  1.
</event>
<event>
12    1  0.1565987E-001  0.2619231E+03  0.7818608E-02  0.1105995E+00
         21   -1    0    0  503  502  0.00000000000E+00  0.00000000000E+00  0.37732990812E+03  0.37732990812E+03  0.00000000000E+00 0. -1.
         21   -1    0    0  501  503 -0.00000000000E+00 -0.00000000000E+00 -0.18198678649E+03  0.18198678649E+03  0.00000000000E+00 0.  1.
          6    2    1    2  501    0 -0.10092710664E+03  0.16985825284E+03  0.88826140470E+02  0.27657510498E+03  0.17194649911E+03 0.  0.
         24    2    3    3    0    0 -0.51463484608E+02  0.15744531380E+03  0.12605130686E+02  0.18474666009E+03  0.80838864456E+02 0.  0.
         -6    2    1    2    0  502  0.10092710664E+03 -0.16985825284E+03  0.10651698115E+03  0.28274158963E+03  0.17192682257E+03 0.  0.
        -24    2    5    5    0    0  0.15961747280E+02 -0.49460343391E+02  0.96445037466E+02  0.13496370583E+03  0.78819120108E+02 0.  0.
          5    1    3    3  501    0 -0.49463622030E+02  0.12412939033E+02  0.76221009784E+02  0.91828444898E+02  0.47000000000E+01 0. -1.
        -13    1    4    4    0    0  0.19344938858E+02  0.13544059984E+02 -0.20258200567E+01  0.23701733421E+02  0.00000000000E+00 0.  1.
         14    1    4    4    0    0 -0.70808423466E+02  0.14390125382E+03  0.14630950742E+02  0.16104492666E+03  0.00000000000E+00 0. -1.
         -5    1    5    5    0  502  0.84965359359E+02 -0.12039790945E+03  0.10071943686E+02  0.14777788380E+03  0.47000000000E+01 0.  1.
         13    1    6    6    0    0  0.34893942952E+02 -0.47067457745E+02  0.99664532822E+02  0.11561121025E+03  0.00000000000E+00 0. -1.
        -14    1    6    6    0    0 -0.18932195672E+02 -0.23928856460E+01 -0.32194953561E+01  0.19352495577E+02  0.00000000000E+00 0.  1.
</event>
<event>
12    1  0.1565987E-001  0.2031761E+03  0.7818608E-02  0.1147234E+00
         21   -1    0    0  503  502  0.00000000000E+00  0.00000000000E+00  0.12593609042E+03  0.12593609042E+03  0.00000000000E+00 0. -1.
         21   -1    0    0  501  503 -0.00000000000E+00 -0.00000000000E+00 -0.50512362013E+03  0.50512362013E+03  0.00000000000E+00 0. -1.
          6    2    1    2  501    0 -0.10687521146E+03  0.19036953737E+02 -0.37736854801E+03  0.42858783457E+03  0.17174339719E+03 0.  0.
         24    2    3    3    0    0 -0.44016504823E+02  0.28715464765E+02 -0.78192568348E+02  0.12269038871E+03  0.78592767626E+02 0.  0.
         -6    2    1    2    0  502  0.10687521146E+03 -0.19036953737E+02 -0.18189817045E+01  0.20247187598E+03  0.17090007441E+03 0.  0.
        -24    2    5    5    0    0  0.42717110886E+02 -0.72254752349E+02 -0.99060567987E+01  0.11859168319E+03  0.83188680483E+02 0.  0.
          5    1    3    3  501    0 -0.62858706642E+02 -0.96785110273E+01 -0.29917597966E+03  0.30589744586E+03  0.47000000000E+01 0. -1.
        -11    1    4    4    0    0  0.19168274021E+02 -0.62884165242E+01 -0.72243461673E+01  0.21427974446E+02  0.00000000000E+00 0.  1.
         12    1    4    4    0    0 -0.63184778843E+02  0.35003881289E+02 -0.70968222180E+02  0.10126241426E+03  0.00000000000E+00 0. -1.
         -5    1    5    5    0  502  0.64158100578E+02  0.53217798612E+02  0.80870750943E+01  0.83880192790E+02  0.47000000000E+01 0.  1.
         13    1    6    6    0    0  0.65478163246E+02 -0.59349832488E+02 -0.19895149553E+02  0.90584819115E+02  0.00000000000E+00 0. -1.
        -14    1    6    6    0    0 -0.22761052360E+02 -0.12904919861E+02  0.99890927538E+01  0.28006864073E+02  0.00000000000E+00 0.  1.
</event>
<event>
12    1  0.1565987E-001  0.2807202E+03  0.7818608E-02  0.1095491E+00
         21   -1    0    0  503  502  0.00000000000E+00  0.00000000000E+00  0.38985806736E+03  0.38985806736E+03  0.00000000000E+00 0. -1.
         21   -1    0    0  501  503 -0.00000000000E+00 -0.00000000000E+00 -0.22760623698E+03  0.22760623698E+03  0.00000000000E+00 0. -1.
          6    2    1    2  501    0  0.89728706886E+02  0.20158880277E+03  0.18628491380E+03  0.33571721597E+03  0.17121534320E+03 0.  0.
         24    2    3    3    0    0 -0.16939609460E+02  0.71279080913E+02  0.93828279276E+02  0.14354783082E+03  0.80215808889E+02 0.  0.
         -6    2    1    2    0  502 -0.89728706886E+02 -0.20158880277E+03 -0.24033083422E+02  0.28174708837E+03  0.17353543287E+03 0.  0.
        -24    2    5    5    0    0 -0.10255817375E+03 -0.70691483544E+02 -0.24097378852E+02  0.15013858737E+03  0.80283540663E+02 0.  0.
          5    1    3    3  501    0  0.10666831635E+03  0.13030972186E+03  0.92456634521E+02  0.19216938515E+03  0.47000000000E+01 0. -1.
        -11    1    4    4    0    0 -0.21183313882E+02 -0.69224606202E+01  0.12980062417E+01  0.22323486919E+02  0.00000000000E+00 0.  1.
         12    1    4    4    0    0  0.42437044210E+01  0.78201541534E+02  0.92530273034E+02  0.12122434390E+03  0.00000000000E+00 0. -1.
         -5    1    5    5    0  502  0.12829466862E+02 -0.13089731923E+03  0.64295429899E-01  0.13160850100E+03  0.47000000000E+01 0.  1.
         13    1    6    6    0    0 -0.25893382640E+02 -0.33705133086E+02  0.27478483564E+02  0.50611958270E+02  0.00000000000E+00 0. -1.
        -14    1    6    6    0    0 -0.76664791108E+02 -0.36986350458E+02 -0.51575862416E+02  0.99526629099E+02  0.00000000000E+00 0.  1.
</event>
<event>
12    1  0.1565987E-001  0.1721322E+03  0.7818608E-02  0.1176197E+00
         21   -1    0    0  503  502  0.00000000000E+00  0.00000000000E+00  0.12105472956E+03  0.12105472956E+03  0.00000000000E+00 0. -1.
         21   -1    0    0  501  503 -0.00000000000E+00 -0.00000000000E+00 -0.27559901285E+03  0.27559901285E+03  0.00000000000E+00 0. -1.
          6    2    1    2  501    0 -0.11749330909E+02 -0.13897934017E+02 -0.14638577923E+03  0.22432835650E+03  0.16900655556E+03 0.  0.
         24    2    3    3    0    0  0.56994677166E+02 -0.23300797272E+02 -0.97548072026E+02  0.13934974667E+03  0.78175476732E+02 0.  0.
         -6    2    1    2    0  502  0.11749330909E+02  0.13897934017E+02 -0.81585040579E+01  0.17232538591E+03  0.17116739787E+03 0.  0.
        -24    2    5    5    0    0 -0.15329597004E+02  0.60144843349E+02  0.41936878409E+02  0.98815642990E+02  0.64447116329E+02 0.  0.
          5    1    3    3  501    0 -0.68744008074E+02  0.94028632549E+01 -0.48837707207E+02  0.84978609831E+02  0.47000000000E+01 0. -1.
        -13    1    4    4    0    0  0.20725149657E+02  0.19344487280E+02 -0.17639127720E+01  0.28405147503E+02  0.00000000000E+00 0.  1.
         14    1    4    4    0    0  0.36269527509E+02 -0.42645284552E+02 -0.95784159254E+02  0.11094459917E+03  0.00000000000E+00 0. -1.
         -5    1    5    5    0  502  0.27078927913E+02 -0.46246909331E+02 -0.50095382466E+02  0.73509742919E+02  0.47000000000E+01 0.  1.
         13    1    6    6    0    0  0.13738713970E+02  0.49806318445E+02  0.44043836202E+02  0.67891686722E+02  0.00000000000E+00 0. -1.
        -14    1    6    6    0    0 -0.29068310975E+02  0.10338524903E+02 -0.21069577931E+01  0.30923956268E+02  0.00000000000E+00 0.  1.
</event>
<event>
12    1  0.1565987E-001  0.1730393E+03  0.7818608E-02  0.1175062E+00
         21   -1    0    0  503  502  0.00000000000E+00  0.00000000000E+00  0.15173828061E+03  0.15173828061E+03  0.00000000000E+00 0. -1.
         21   -1    0    0  501  503 -0.00000000000E+00 -0.00000000000E+00 -0.23858204308E+03  0.23858204308E+03  0.00000000000E+00 0. -1.
          6    2    1    2  501    0  0.53094041364E+01  0.84469249727E+01 -0.12621772542E+03  0.21418104308E+03  0.17275145351E+03 0.  0.
         24    2    3    3    0    0 -0.42876371459E+02  0.31437403359E+02 -0.12914474086E+03  0.16050527121E+03  0.79100470509E+02 0.  0.
         -6    2    1    2    0  502 -0.53094041364E+01 -0.84469249727E+01  0.39373962943E+02  0.17613928062E+03  0.17139193944E+03 0.  0.
        -24    2    5    5    0    0 -0.58181344316E+02  0.36360930697E+01 -0.12518506966E+02  0.10093050575E+03  0.81436871108E+02 0.  0.
          5    1    3    3  501    0  0.48185775595E+02 -0.22990478386E+02  0.29270154441E+01  0.53675771867E+02  0.47000000000E+01 0. -1.
        -13    1    4    4    0    0 -0.65564523727E+02  0.15279510222E+02 -0.95128314221E+02  0.11653997756E+03  0.00000000000E+00 0.  1.
         14    1    4    4    0    0  0.22688152269E+02  0.16157893137E+02 -0.34016426640E+02  0.43965293645E+02  0.00000000000E+00 0. -1.
         -5    1    5    5    0  502  0.52871940180E+02 -0.12083018042E+02  0.51892469909E+02  0.75208774865E+02  0.47000000000E+01 0.  1.
         11    1    6    6    0    0 -0.30733283281E+02  0.92476773037E+01 -0.46743561601E+02  0.56701100412E+02  0.00000000000E+00 0. -1.
        -12    1    6    6    0    0 -0.27448061035E+02 -0.56115842339E+01  0.34225054635E+02  0.44229405343E+02  0.00000000000E+00 0.  1.
</event>
<event>
12    1  0.1565987E-001  0.1890981E+03  0.7818608E-02  0.1159328E+00
         21   -1    0    0  503  502  0.00000000000E+00  0.00000000000E+00  0.14782795864E+03  0.14782795864E+03  0.00000000000E+00 0.  1.
         21   -1    0    0  501  503 -0.00000000000E+00 -0.00000000000E+00 -0.25082378096E+03  0.25082378096E+03  0.00000000000E+00 0.  1.
          6    2    1    2  501    0 -0.34722783130E+02  0.69514443209E+02 -0.89746786309E+02  0.20931455694E+03  0.17239538454E+03 0.  0.
         24    2    3    3    0    0  0.31129189555E+02  0.83443554036E+02 -0.69418839845E+02  0.13884599769E+03  0.80792218667E+02 0.  0.
         -6    2    1    2    0  502  0.34722783130E+02 -0.69514443209E+02 -0.13249036012E+02  0.18933718266E+03  0.17214848911E+03 0.  0.
        -24    2    5    5    0    0  0.15916083249E+02 -0.92931064920E+00 -0.63638408041E+02  0.10205149551E+03  0.78169530083E+02 0.  0.
          5    1    3    3  501    0 -0.65851972685E+02 -0.13929110826E+02 -0.20327946463E+02  0.70468559247E+02  0.47000000000E+01 0. -1.
        -13    1    4    4    0    0 -0.40194779809E+00  0.26916911594E+02 -0.69057375864E+02  0.74118842766E+02  0.00000000000E+00 0.  1.
         14    1    4    4    0    0  0.31531137353E+02  0.56526642442E+02 -0.36146398140E+00  0.64727154926E+02  0.00000000000E+00 0. -1.
         -5    1    5    5    0  502  0.18806699880E+02 -0.68585132560E+02  0.50389372029E+02  0.87285687156E+02  0.47000000000E+01 0.  1.
         11    1    6    6    0    0  0.42055676445E+02 -0.20735114153E+02 -0.34999451748E+02  0.58511421986E+02  0.00000000000E+00 0. -1.
        -12    1    6    6    0    0 -0.26139593196E+02  0.19805803504E+02 -0.28638956293E+02  0.43540073523E+02  0.00000000000E+00 0.  1.
</event>
<event>
12    1  0.1565987E-001  0.2293306E+03  0.7818608E-02  0.1129961E+00
         21   -1    0    0  503  502  0.00000000000E+00  0.00000000000E+00  0.11449413366E+03  0.11449413366E+03  0.00000000000E+00 0. -1.
         21   -1    0    0  501  503 -0.00000000000E+00 -0.00000000000E+00 -0.49976495853E+03  0.49976495853E+03  0.00000000000E+00 0.  1.
          6    2    1    2  501    0  0.34536877031E+00  0.12722629972E+03 -0.31413857501E+03  0.38894162638E+03  0.19080328563E+03 0.  0.
         24    2    3    3    0    0 -0.76564787549E+02  0.61788563611E+02 -0.18609444657E+03  0.22580163043E+03  0.81702141809E+02 0.  0.
         -6    2    1    2    0  502 -0.34536877031E+00 -0.12722629972E+03 -0.71132249869E+02  0.22531746580E+03  0.17181825516E+03 0.  0.
        -24    2    5    5    0    0  0.46504550229E+01 -0.16124313436E+03 -0.67196485291E+02  0.19039349785E+03  0.75586647491E+02 0.  0.
          5    1    3    3  501    0  0.76910156319E+02  0.65437736105E+02 -0.12804412843E+03  0.16313999595E+03  0.47000000000E+01 0. -1.
        -13    1    4    4    0    0 -0.45702238671E+02  0.46533181033E+02 -0.17918723650E+03  0.19068848230E+03  0.00000000000E+00 0.  1.
         14    1    4    4    0    0 -0.30862548878E+02  0.15255382577E+02 -0.69072100678E+01  0.35113148132E+02  0.00000000000E+00 0. -1.
         -5    1    5    5    0  502 -0.49958237932E+01  0.34016834644E+02 -0.39357645778E+01  0.34923967951E+02  0.47000000000E+01 0.  1.
         11    1    6    6    0    0 -0.14418042431E+02 -0.11881784688E+03 -0.15235831922E+02  0.12065525790E+03  0.00000000000E+00 0. -1.
        -12    1    6    6    0    0  0.19068497454E+02 -0.42425287477E+02 -0.51960653369E+02  0.69738239949E+02  0.00000000000E+00 0.  1.
</event>
<event>
12    1  0.1565987E-001  0.2184296E+03  0.7818608E-02  0.1135344E+00
         21   -1    0    0  501  502  0.00000000000E+00  0.00000000000E+00  0.35781667075E+03  0.35781667075E+03  0.00000000000E+00 0. -1.
         21   -1    0    0  502  503 -0.00000000000E+00 -0.00000000000E+00 -0.15665823811E+03  0.15665823811E+03  0.00000000000E+00 0.  1.
         -6    2    1    2    0  503 -0.26967634309E+02  0.13092799481E+03 -0.30743622801E+00  0.21842978919E+03  0.17274861842E+03 0.  0.
        -24    2    3    3    0    0 -0.23479546416E+02  0.12666649189E+03 -0.56422839623E+02  0.16184926549E+03  0.80099679399E+02 0.  0.
          6    2    1    2  501    0  0.26967634309E+02 -0.13092799481E+03  0.20146586888E+03  0.29604511967E+03  0.17083566207E+03 0.  0.
         24    2    5    5    0    0  0.20577771988E+02 -0.13712997512E+03  0.88021941111E+02  0.18215521824E+03  0.78769198552E+02 0.  0.
          5    1    5    5  501    0  0.63898623206E+01  0.62019803078E+01  0.11344392776E+03  0.11388990143E+03  0.47000000000E+01 0. -1.
        -11    1    6    6    0    0  0.27466666404E+02 -0.22428814941E+02 -0.29675296211E+01  0.35584768301E+02  0.00000000000E+00 0.  1.
         12    1    6    6    0    0 -0.68888944154E+01 -0.11470116018E+03  0.90989470732E+02  0.14657044994E+03  0.00000000000E+00 0. -1.
         -5    1    3    3    0  503 -0.34880878931E+01  0.42615029153E+01  0.56115403395E+02  0.56580523702E+02  0.47000000000E+01 0.  1.
         13    1    4    4    0    0  0.13659542552E+02  0.10985881113E+03 -0.45116050473E+02  0.11954496851E+03  0.00000000000E+00 0. -1.
        -14    1    4    4    0    0 -0.37139088968E+02  0.16807680762E+02 -0.11306789150E+02  0.42304296979E+02  0.00000000000E+00 0.  1.
</event>
<event>
12    1  0.1565987E-001  0.2977379E+03  0.7818608E-02  0.1086494E+00
         21   -1    0    0  501  502  0.00000000000E+00  0.00000000000E+00  0.16107795951E+04  0.16107795951E+04  0.00000000000E+00 0.  1.
         21   -1    0    0  502  503 -0.00000000000E+00 -0.00000000000E+00 -0.13318983502E+03  0.13318983502E+03  0.00000000000E+00 0. -1.
         -6    2    1    2    0  503  0.19691587331E+03 -0.13995097515E+03  0.69622243809E+02  0.30486540889E+03  0.17243411523E+03 0.  0.
        -24    2    3    3    0    0  0.99578485350E+02 -0.14897985839E+03  0.27401372275E+02  0.19827844993E+03  0.80328298587E+02 0.  0.
          6    2    1    2  501    0 -0.19691587331E+03  0.13995097515E+03  0.14079675163E+04  0.14391040213E+04  0.17402793005E+03 0.  0.
         24    2    5    5    0    0 -0.27966885901E+02  0.67882513498E+02  0.63297147280E+03  0.64262515716E+03  0.83210725829E+02 0.  0.
          5    1    5    5  501    0 -0.16894898741E+03  0.72068461653E+02  0.77499604350E+03  0.79647886410E+03  0.47000000000E+01 0. -1.
        -11    1    6    6    0    0 -0.49700688248E+02  0.27008209691E+02  0.46370777402E+03  0.46714505401E+03  0.00000000000E+00 0.  1.
         12    1    6    6    0    0  0.21733802347E+02  0.40874303807E+02  0.16926369878E+03  0.17548010315E+03  0.00000000000E+00 0. -1.
         -5    1    3    3    0  503  0.97337387956E+02  0.90288832365E+01  0.42220871534E+02  0.10658695896E+03  0.47000000000E+01 0.  1.
         11    1    4    4    0    0  0.10656829285E+03 -0.11278010461E+03  0.52218776937E+01  0.15525276501E+03  0.00000000000E+00 0. -1.
        -12    1    4    4    0    0 -0.69898075050E+01 -0.36199753777E+02  0.22179494581E+02  0.43025684914E+02  0.00000000000E+00 0.  1.
</event>
<event>
12    1  0.1565987E-001  0.1854778E+03  0.7818608E-02  0.1162653E+00
         21   -1    0    0  501  502  0.00000000000E+00  0.00000000000E+00  0.53780483339E+02  0.53780483339E+02  0.00000000000E+00 0.  1.
         21   -1    0    0  502  503 -0.00000000000E+00 -0.00000000000E+00 -0.70080131558E+03  0.70080131558E+03  0.00000000000E+00 0.  1.
         -6    2    1    2    0  503 -0.25076881558E+02  0.66188805570E+02 -0.43542971761E+03  0.47320518866E+03  0.17121420393E+03 0.  0.
        -24    2    3    3    0    0 -0.11063013215E+02  0.38974349063E+02 -0.91949729732E+02  0.12833186812E+03  0.79830604601E+02 0.  0.
          6    2    1    2  501    0  0.25076881558E+02 -0.66188805570E+02 -0.21159111463E+03  0.28137661026E+03  0.17144150325E+03 0.  0.
         24    2    5    5    0    0  0.73994164976E+02 -0.76794940095E+01 -0.13436212638E+03  0.17273662323E+03  0.79061045521E+02 0.  0.
          5    1    5    5  501    0 -0.48917283417E+02 -0.58509311561E+02 -0.77228988243E+02  0.10863998703E+03  0.47000000000E+01 0. -1.
        -13    1    6    6    0    0 -0.11560113532E+02 -0.35873398820E+01 -0.53819148323E+02  0.55163447667E+02  0.00000000000E+00 0.  1.
         14    1    6    6    0    0  0.85554278508E+02 -0.40921541275E+01 -0.80542978061E+02  0.11757317556E+03  0.00000000000E+00 0. -1.
         -5    1    3    3    0  503 -0.14013868344E+02  0.27214456507E+02 -0.34347998788E+03  0.34487332054E+03  0.47000000000E+01 0.  1.
         11    1    4    4    0    0 -0.34035089998E+02  0.28471027701E+02 -0.93007467435E+02  0.10305035550E+03  0.00000000000E+00 0. -1.
        -12    1    4    4    0    0  0.22972076784E+02  0.10503321362E+02  0.10577377028E+01  0.25281512622E+02  0.00000000000E+00 0.  1.
</event>
<event>
12    1  0.1565987E-001  0.1996777E+03  0.7818608E-02  0.1150860E+00
         21   -1    0    0  503  502  0.00000000000E+00  0.00000000000E+00  0.32784160071E+03  0.32784160071E+03  0.00000000000E+00 0.  1.
         21   -1    0    0  501  503 -0.00000000000E+00 -0.00000000000E+00 -0.31896225771E+03  0.31896225771E+03  0.00000000000E+00 0. -1.
          6    2    1    2  501    0  0.82964112731E+02  0.37440331448E+02 -0.25146714146E+03  0.32110266486E+03  0.17772556295E+03 0.  0.
         24    2    3    3    0    0  0.96855706165E+02 -0.18342057398E+02 -0.22452652652E+03  0.25744311721E+03  0.78404965410E+02 0.  0.
         -6    2    1    2    0  502 -0.82964112731E+02 -0.37440331448E+02  0.26034648447E+03  0.32570119356E+03  0.17325170443E+03 0.  0.
        -24    2    5    5    0    0 -0.11118001472E+03  0.66104614224E+01  0.14742054292E+03  0.20115815781E+03  0.79543033048E+02 0.  0.
          5    1    3    3  501    0 -0.13891593434E+02  0.55782388846E+02 -0.26940614940E+02  0.63659547649E+02  0.47000000000E+01 0. -1.
        -13    1    4    4    0    0  0.11170157883E+02 -0.24051774293E+02 -0.13809727833E+02  0.29899311975E+02  0.00000000000E+00 0.  1.
         14    1    4    4    0    0  0.85685548282E+02  0.57097168948E+01 -0.21071679869E+03  0.22754380524E+03  0.00000000000E+00 0. -1.
         -5    1    5    5    0  502  0.28215901990E+02 -0.44050792870E+02  0.11292594155E+03  0.12454303574E+03  0.47000000000E+01 0.  1.
         11    1    6    6    0    0 -0.65670946633E+02 -0.18527209297E+02  0.33669779499E+02  0.76089320982E+02  0.00000000000E+00 0. -1.
        -12    1    6    6    0    0 -0.45509068087E+02  0.25137670719E+02  0.11375076342E+03  0.12506883683E+03  0.00000000000E+00 0.  1.
</event>
<event>
12    1  0.1565987E-001  0.2100232E+03  0.7818608E-02  0.1141648E+00
         21   -1    0    0  501  502  0.00000000000E+00  0.00000000000E+00  0.62869145632E+03  0.62869145632E+03  0.00000000000E+00 0.  1.
         21   -1    0    0  502  503 -0.00000000000E+00 -0.00000000000E+00 -0.11394852805E+03  0.11394852805E+03  0.00000000000E+00 0.  1.
         -6    2    1    2    0  503  0.92497953694E+02  0.76527711206E+02  0.26556354286E+02  0.21119300714E+03  0.17171163121E+03 0.  0.
        -24    2    3    3    0    0  0.88303899509E+02  0.10613012320E+03  0.56364648230E+02  0.16871339704E+03  0.78905355034E+02 0.  0.
          6    2    1    2  501    0 -0.92497953694E+02 -0.76527711206E+02  0.48818657398E+03  0.53144697722E+03  0.17232932587E+03 0.  0.
         24    2    5    5    0    0 -0.96073709821E+02 -0.86768525170E+02  0.49513474818E+03  0.51773466789E+03  0.78306020157E+02 0.  0.
          5    1    5    5  501    0  0.35757561270E+01  0.10240813964E+02 -0.69481741993E+01  0.13712309332E+02  0.47000000000E+01 0. -1.
        -11    1    6    6    0    0 -0.25448791901E+02  0.47360810999E+01  0.18419661315E+03  0.18600662292E+03  0.00000000000E+00 0.  1.
         12    1    6    6    0    0 -0.70624917920E+02 -0.91504606270E+02  0.31093813503E+03  0.33172804497E+03  0.00000000000E+00 0. -1.
         -5    1    3    3    0  503  0.41940541852E+01 -0.29602411994E+02 -0.29808293944E+02  0.42479610100E+02  0.47000000000E+01 0.  1.
         13    1    4    4    0    0  0.14025122099E+02  0.14642045031E+02  0.46173143888E+02  0.50428689742E+02  0.00000000000E+00 0. -1.
        -14    1    4    4    0    0  0.74278777410E+02  0.91488078170E+02  0.10191504342E+02  0.11828470730E+03  0.00000000000E+00 0.  1.
</event>
<event>
12    1  0.1565987E-001  0.1850577E+03  0.7818608E-02  0.1163192E+00
         21   -1    0    0  503  502  0.00000000000E+00  0.00000000000E+00  0.36743338823E+02  0.36743338823E+02  0.00000000000E+00 0. -1.
         21   -1    0    0  501  503 -0.00000000000E+00 -0.00000000000E+00 -0.10440564721E+04  0.10440564721E+04  0.00000000000E+00 0.  1.
          6    2    1    2  501    0  0.64176534689E+02  0.19822640164E+02 -0.68496886693E+03  0.70952710209E+03  0.17243780119E+03 0.  0.
         24    2    3    3    0    0  0.26498356339E+02  0.19077371433E+02 -0.65663025645E+03  0.66214179432E+03  0.78755019582E+02 0.  0.
         -6    2    1    2    0  502 -0.64176534689E+02 -0.19822640164E+02 -0.32234426631E+03  0.37127270879E+03  0.17154018072E+03 0.  0.
        -24    2    5    5    0    0 -0.16788132959E+02  0.38129119573E+02 -0.95312280141E+02  0.13217088985E+03  0.81541659360E+02 0.  0.
          5    1    3    3  501    0  0.37678178350E+02  0.74526873145E+00 -0.28338610480E+02  0.47385307778E+02  0.47000000000E+01 0. -1.
        -11    1    4    4    0    0 -0.19023271615E+02 -0.41753591516E+01 -0.55048741370E+02  0.58392485933E+02  0.00000000000E+00 0.  1.
         12    1    4    4    0    0  0.45521627955E+02  0.23252730584E+02 -0.60158151508E+03  0.60374930838E+03  0.00000000000E+00 0. -1.
         -5    1    5    5    0  502 -0.47388401730E+02 -0.57951759737E+02 -0.22703198617E+03  0.23910181894E+03  0.47000000000E+01 0.  1.
         13    1    6    6    0    0 -0.47722674107E+02  0.28239590805E+02 -0.76993668743E+02  0.94883892939E+02  0.00000000000E+00 0. -1.
        -14    1    6    6    0    0  0.30934541148E+02  0.98895287682E+01 -0.18318611398E+02  0.37286996914E+02  0.00000000000E+00 0.  1.
</event>
<event>
12    1  0.1565987E-001  0.2148145E+03  0.7818608E-02  0.1137830E+00
         21   -1    0    0  503  502  0.00000000000E+00  0.00000000000E+00  0.65214076371E+03  0.65214076371E+03  0.00000000000E+00 0. -1.
         21   -1    0    0  501  503 -0.00000000000E+00 -0.00000000000E+00 -0.10813512664E+03  0.10813512664E+03  0.00000000000E+00 0.  1.
          6    2    1    2  501    0 -0.56880667251E+02  0.11545241541E+03  0.49554990341E+03  0.54006409382E+03  0.17185705727E+03 0.  0.
         24    2    3    3    0    0  0.19044229622E+02  0.14965980742E+02  0.25280363582E+03  0.26655001019E+03  0.80947923907E+02 0.  0.
         -6    2    1    2    0  502  0.56880667251E+02 -0.11545241541E+03  0.48455733659E+02  0.22021179653E+03  0.17199013540E+03 0.  0.
        -24    2    5    5    0    0  0.25951445208E+02 -0.63340375941E+02  0.96363080755E+02  0.14282003121E+03  0.80163815083E+02 0.  0.
          5    1    3    3  501    0 -0.75924896872E+02  0.10048643467E+03  0.24274626759E+03  0.27351408363E+03  0.47000000000E+01 0. -1.
        -13    1    4    4    0    0  0.61094209492E+01 -0.20878111840E+02  0.20135156992E+03  0.20252327097E+03  0.00000000000E+00 0.  1.
         14    1    4    4    0    0  0.12934808673E+02  0.35844092582E+02  0.51452065909E+02  0.64026739217E+02  0.00000000000E+00 0. -1.
         -5    1    5    5    0  502  0.30929222042E+02 -0.52112039467E+02 -0.47907347095E+02  0.77391765319E+02  0.47000000000E+01 0.  1.
         11    1    6    6    0    0  0.32522971464E+01  0.93591236987E+01  0.55523218454E+02  0.56400340607E+02  0.00000000000E+00 0. -1.
        -12    1    6    6    0    0  0.22699148062E+02 -0.72699499640E+02  0.40839862301E+02  0.86419690600E+02  0.00000000000E+00 0.  1.
</event>
<event>
12    1  0.1565987E-001  0.1872541E+03  0.7818608E-02  0.1161152E+00
         21   -1    0    0  501  502  0.00000000000E+00  0.00000000000E+00  0.30685615121E+02  0.30685615121E+02  0.00000000000E+00 0.  1.
         21   -1    0    0  502  503 -0.00000000000E+00 -0.00000000000E+00 -0.11679395370E+04  0.11679395370E+04  0.00000000000E+00 0.  1.
         -6    2    1    2    0  503  0.27682126241E+02  0.68170697577E+02 -0.66638176562E+03  0.69219127296E+03  0.17219337003E+03 0.  0.
        -24    2    3    3    0    0  0.66443548025E+02  0.51172610475E+02 -0.27577840205E+03  0.29927339297E+03  0.80482641376E+02 0.  0.
          6    2    1    2  501    0 -0.27682126241E+02 -0.68170697577E+02 -0.47087215623E+03  0.50643387914E+03  0.17129256348E+03 0.  0.
         24    2    5    5    0    0 -0.14742375241E+02  0.28230332020E+02 -0.18087499842E+03  0.20052370081E+03  0.80496585402E+02 0.  0.
          5    1    5    5  501    0 -0.12939751000E+02 -0.96401029597E+02 -0.28999715781E+03  0.30591017832E+03  0.47000000000E+01 0. -1.
        -13    1    6    6    0    0 -0.13084224344E+02  0.51241182830E+02 -0.16292308732E+03  0.17129152964E+03  0.00000000000E+00 0.  1.
         14    1    6    6    0    0 -0.16581508972E+01 -0.23010850809E+02 -0.17951911095E+02  0.29232171170E+02  0.00000000000E+00 0. -1.
         -5    1    3    3    0  503 -0.38761421784E+02  0.16998087101E+02 -0.39060336357E+03  0.39291787999E+03  0.47000000000E+01 0.  1.
         13    1    4    4    0    0 -0.15503148024E+01  0.11594116658E+02 -0.15302929203E+03  0.15347570243E+03  0.00000000000E+00 0. -1.
        -14    1    4    4    0    0  0.67993862827E+02  0.39578493817E+02 -0.12274911002E+03  0.14579769054E+03  0.00000000000E+00 0.  1.
</event>
<event>
12    1  0.1565987E-001  0.1800782E+03  0.7818608E-02  0.1168090E+00
         21   -1    0    0  503  502  0.00000000000E+00  0.00000000000E+00  0.88133162123E+02  0.88133162123E+02  0.00000000000E+00 0. -1.
         21   -1    0    0  501  503 -0.00000000000E+00 -0.00000000000E+00 -0.10308939977E+04  0.10308939977E+04  0.00000000000E+00 0.  1.
          6    2    1    2  501    0 -0.29065889146E+02 -0.39073153332E+02 -0.92179003793E+03  0.93921510914E+03  0.17336842273E+03 0.  0.
         24    2    3    3    0    0 -0.79488705511E+02 -0.58267603798E+02 -0.68357680352E+03  0.69492322965E+03  0.76990134714E+02 0.  0.
         -6    2    1    2    0  502  0.29065889146E+02  0.39073153332E+02 -0.20970797610E+02  0.17981205064E+03  0.17181694323E+03 0.  0.
        -24    2    5    5    0    0  0.40324827042E+00  0.90042547775E+02 -0.10542810028E+02  0.12022800012E+03  0.78967070032E+02 0.  0.
          5    1    3    3  501    0  0.50422816365E+02  0.19194450466E+02 -0.23821323441E+03  0.24429187950E+03  0.47000000000E+01 0. -1.
        -11    1    4    4    0    0 -0.58552195814E+02 -0.50972703609E+02 -0.65042220655E+03  0.65503864231E+03  0.00000000000E+00 0.  1.
         12    1    4    4    0    0 -0.20936509697E+02 -0.72949001890E+01 -0.33154596967E+02  0.39884587338E+02  0.00000000000E+00 0. -1.
         -5    1    5    5    0  502  0.28662640875E+02 -0.50969394443E+02 -0.10427987582E+02  0.59584050524E+02  0.47000000000E+01 0.  1.
         13    1    6    6    0    0  0.37008694684E+02  0.26647994821E+02  0.33117421776E+01  0.45724465513E+02  0.00000000000E+00 0. -1.
        -14    1    6    6    0    0 -0.36605446414E+02  0.63394552954E+02 -0.13854552205E+02  0.74503534602E+02  0.00000000000E+00 0.  1.
</event>
<event>
12    1  0.1565987E-001  0.1841366E+03  0.7818608E-02  0.1165643E+00
         21   -1    0    0  503  502  0.00000000000E+00  0.00000000000E+00  0.24638627791E+03  0.24638627791E+03  0.00000000000E+00 0. -1.
         21   -1    0    0  501  503 -0.00000000000E+00 -0.00000000000E+00 -0.14447869115E+03  0.14447869115E+03  0.00000000000E+00 0. -1.
          6    2    1    2  501    0  0.40048265768E+02  0.46407674119E+01 -0.52404437436E+01  0.18421116470E+03  0.17966883602E+03 0.  0.
         24    2    3    3    0    0  0.35221901896E+02 -0.48616295841E+02  0.45316234327E+02  0.11047056345E+03  0.80907711015E+02 0.  0.
         -6    2    1    2    0  502 -0.40048265768E+02 -0.46407674119E+01  0.10714803050E+03  0.20665380436E+03  0.17204561635E+03 0.  0.
        -24    2    5    5    0    0  0.13730854707E+01  0.63580659860E+02  0.59531573534E+02  0.11359839908E+03  0.72912292210E+02 0.  0.
          5    1    3    3  501    0  0.48263638727E+01  0.53257063253E+02 -0.50556678071E+02  0.73740601246E+02  0.47000000000E+01 0. -1.
        -13    1    4    4    0    0  0.27238755497E+02 -0.56463425013E+02 -0.11239117900E+01  0.62700329687E+02  0.00000000000E+00 0.  1.
         14    1    4    4    0    0  0.79831463987E+01  0.78471291716E+01  0.46440146117E+02  0.47770233766E+02  0.00000000000E+00 0. -1.
         -5    1    5    5    0  502 -0.41421351239E+02 -0.68221427272E+02  0.47616456967E+02  0.93055405278E+02  0.47000000000E+01 0.  1.
         11    1    6    6    0    0 -0.66835666409E+01 -0.15464587453E+02  0.64295501290E+01  0.18032266718E+02  0.00000000000E+00 0. -1.
        -12    1    6    6    0    0  0.80566521116E+01  0.79045247312E+02  0.53102023405E+02  0.95566132367E+02  0.00000000000E+00 0.  1.
</event>
<event>
12    1  0.1565987E-001  0.2001755E+03  0.7818608E-02  0.1149940E+00
         21   -1    0    0  503  502  0.00000000000E+00  0.00000000000E+00  0.13157391084E+04  0.13157391084E+04  0.00000000000E+00 0.  1.
         21   -1    0    0  501  503 -0.00000000000E+00 -0.00000000000E+00 -0.46310647695E+02  0.46310647695E+02  0.00000000000E+00 0.  1.
          6    2    1    2  501    0  0.24426901851E+02  0.95141258741E+02  0.23137277582E+03  0.30486962373E+03  0.17252128402E+03 0.  0.
         24    2    3    3    0    0 -0.24155390519E+02  0.93998808526E+02  0.86933679801E+02  0.15240229352E+03  0.79055268589E+02 0.  0.
         -6    2    1    2    0  502 -0.24426901851E+02 -0.95141258741E+02  0.10380556849E+04  0.10571801324E+04  0.17441816040E+03 0.  0.
        -24    2    5    5    0    0  0.13679707949E+02  0.10601623787E+02  0.56247254058E+03  0.56847256329E+03  0.80536746091E+02 0.  0.
          5    1    3    3  501    0  0.48582292370E+02  0.11424502152E+01  0.14443909602E+03  0.15246733021E+03  0.47000000000E+01 0. -1.
        -11    1    4    4    0    0 -0.37493943886E+02  0.51901082876E+02  0.87272681173E+02  0.10824065369E+03  0.00000000000E+00 0.  1.
         12    1    4    4    0    0  0.13338553367E+02  0.42097725651E+02 -0.33900137206E+00  0.44161639834E+02  0.00000000000E+00 0. -1.
         -5    1    5    5    0  502 -0.38106609799E+02 -0.10574288253E+03  0.47558314433E+03  0.48870756910E+03  0.47000000000E+01 0.  1.
         13    1    6    6    0    0 -0.30485304833E+02  0.16185983379E+02  0.32803545528E+03  0.32984632753E+03  0.00000000000E+00 0. -1.
        -14    1    6    6    0    0  0.44165012781E+02 -0.55843595913E+01  0.23443708531E+03  0.23862623576E+03  0.00000000000E+00 0.  1.
</event>
<event>
12    1  0.1565987E-001  0.2391467E+03  0.7818608E-02  0.1120453E+00
         21   -1    0    0  503  502  0.00000000000E+00  0.00000000000E+00  0.41310121448E+02  0.41310121448E+02  0.00000000000E+00 0.  1.
         21   -1    0    0  501  503 -0.00000000000E+00 -0.00000000000E+00 -0.14482328543E+04  0.14482328543E+04  0.00000000000E+00 0. -1.
          6    2    1    2  501    0  0.22579543912E+02  0.16426124575E+03 -0.86281608238E+03  0.89520031769E+03  0.17158212061E+03 0.  0.
         24    2    3    3    0    0  0.41662504561E+02  0.16635673424E+02 -0.30047543607E+03  0.31347309511E+03  0.77248843105E+02 0.  0.
         -6    2    1    2    0  502 -0.22579543912E+02 -0.16426124575E+03 -0.54410665051E+03  0.59434265809E+03  0.17233558961E+03 0.  0.
        -24    2    5    5    0    0  0.45477568947E+02 -0.60471198226E+02 -0.27575202163E+03  0.29863935846E+03  0.86147048095E+02 0.  0.
          5    1    3    3  501    0 -0.19082960649E+02  0.14762557233E+03 -0.56234064631E+03  0.58172722258E+03  0.47000000000E+01 0. -1.
        -13    1    4    4    0    0  0.42138948662E+02  0.40293414732E+02 -0.26113659629E+03  0.26756601464E+03  0.00000000000E+00 0.  1.
         14    1    4    4    0    0 -0.47644410061E+00 -0.23657741308E+02 -0.39338839778E+02  0.45907080476E+02  0.00000000000E+00 0. -1.
         -5    1    5    5    0  502 -0.68057112859E+02 -0.10379004753E+03 -0.26835462888E+03  0.29570329964E+03  0.47000000000E+01 0.  1.
         11    1    6    6    0    0  0.30552285646E+02 -0.21952625298E+02 -0.26573392568E+02  0.46059799263E+02  0.00000000000E+00 0. -1.
        -12    1    6    6    0    0  0.14925283302E+02 -0.38518572929E+02 -0.24917862906E+03  0.25257955919E+03  0.00000000000E+00 0.  1.
</event>
<event>
12    1  0.1565987E-001  0.1812740E+03  0.7818608E-02  0.1166849E+00
         21   -1    0    0  503  502  0.00000000000E+00  0.00000000000E+00  0.14216050316E+03  0.14216050316E+03  0.00000000000E+00 0.  1.
         21   -1    0    0  501  503 -0.00000000000E+00 -0.00000000000E+00 -0.28138434619E+03  0.28138434619E+03  0.00000000000E+00 0.  1.
          6    2    1    2  501    0 -0.55423068457E+02  0.10605466912E+02 -0.16019240581E+03  0.24106217106E+03  0.17107066082E+03 0.  0.
         24    2    3    3    0    0 -0.74790976236E+02 -0.46466649799E+02 -0.92375101235E+02  0.15021273982E+03  0.79232999480E+02 0.  0.
         -6    2    1    2    0  502  0.55423068457E+02 -0.10605466912E+02  0.20968562777E+02  0.18248267829E+03  0.17226739333E+03 0.  0.
        -24    2    5    5    0    0  0.21779213420E+02 -0.54523646852E+02 -0.33235823882E+02  0.10488808412E+03  0.80310198589E+02 0.  0.
          5    1    3    3  501    0  0.19367907778E+02  0.57072116711E+02 -0.67817304574E+02  0.90849431244E+02  0.47000000000E+01 0. -1.
        -13    1    4    4    0    0 -0.50516315958E+02 -0.11242144462E+02 -0.94107576593E+02  0.10739888250E+03  0.00000000000E+00 0.  1.
         14    1    4    4    0    0 -0.24274660278E+02 -0.35224505337E+02  0.17324753582E+01  0.42813857321E+02  0.00000000000E+00 0. -1.
         -5    1    5    5    0  502  0.33643855037E+02  0.43918179939E+02  0.54204386659E+02  0.77594594168E+02  0.47000000000E+01 0.  1.
         13    1    6    6    0    0 -0.25119033738E+02 -0.17169425375E+02  0.87889144882E+01  0.31670175900E+02  0.00000000000E+00 0. -1.
        -14    1    6    6    0    0  0.46898247158E+02 -0.37354221476E+02 -0.42024738371E+02  0.73217908217E+02  0.00000000000E+00 0.  1.
</event>
<event>
12    1  0.1565987E-001  0.1778748E+03  0.7818608E-02  0.1170644E+00
         21   -1    0    0  503  502  0.00000000000E+00  0.00000000000E+00  0.25345373068E+02  0.25345373068E+02  0.00000000000E+00 0.  1.
         21   -1    0    0  501  503 -0.00000000000E+00 -0.00000000000E+00 -0.14034030977E+04  0.14034030977E+04  0.00000000000E+00 0.  1.
          6    2    1    2  501    0  0.15453909297E+01 -0.30080221928E+02 -0.94781134621E+03  0.96435770304E+03  0.17530608498E+03 0.  0.
         24    2    3    3    0    0 -0.34526722150E+02 -0.47233447719E+02 -0.37989428081E+03  0.39501833705E+03  0.91086381466E+02 0.  0.
         -6    2    1    2    0  502 -0.15453909297E+01  0.30080221928E+02 -0.43024637838E+03  0.46439076769E+03  0.17216164211E+03 0.  0.
        -24    2    5    5    0    0 -0.43399922322E+02 -0.35000280871E+02 -0.22475043564E+03  0.24475938075E+03  0.79283183754E+02 0.  0.
          5    1    3    3  501    0  0.36072113080E+02  0.17153225791E+02 -0.56791706540E+03  0.56933936599E+03  0.47000000000E+01 0. -1.
        -13    1    4    4    0    0 -0.19945029351E+02 -0.38245030712E+02 -0.37462043693E+03  0.37709542338E+03  0.00000000000E+00 0.  1.
         14    1    4    4    0    0 -0.14581692800E+02 -0.89884170066E+01 -0.52738438827E+01  0.17922913672E+02  0.00000000000E+00 0. -1.
         -5    1    5    5    0  502  0.41854531392E+02  0.65080502799E+02 -0.20549594274E+03  0.21963138693E+03  0.47000000000E+01 0.  1.
         11    1    6    6    0    0  0.23194921469E+02 -0.70025772689E+01 -0.67258751145E+02  0.71489720072E+02  0.00000000000E+00 0. -1.
        -12    1    6    6    0    0 -0.66594843791E+02 -0.27997703602E+02 -0.15749168450E+03  0.17326966068E+03  0.00000000000E+00 0.  1.
</event>
<event>
12    1  0.1565987E-001  0.2142158E+03  0.7818608E-02  0.1138480E+00
         21   -1    0    0  501  502  0.00000000000E+00  0.00000000000E+00  0.24710267144E+03  0.24710267144E+03  0.00000000000E+00 0.  1.
         21   -1    0    0  502  503 -0.00000000000E+00 -0.00000000000E+00 -0.24716898274E+03  0.24716898274E+03  0.00000000000E+00 0. -1.
         -6    2    1    2    0  503  0.66723664102E+01 -0.12629045989E+03 -0.12420789322E+03  0.24668424000E+03  0.17155673345E+03 0.  0.
        -24    2    3    3    0    0 -0.87769709254E+01 -0.13068439065E+03 -0.36567841561E+02  0.15746060352E+03  0.79380031788E+02 0.  0.
          6    2    1    2  501    0 -0.66723664102E+01  0.12629045989E+03  0.12414158192E+03  0.24758741417E+03  0.17290053373E+03 0.  0.
         24    2    5    5    0    0  0.15969307407E+02  0.93792534066E+01  0.94422681966E+02  0.12476160821E+03  0.79415532743E+02 0.  0.
          5    1    5    5  501    0 -0.22641673817E+02  0.11691120649E+03  0.29718899954E+02  0.12282580596E+03  0.47000000000E+01 0. -1.
        -13    1    6    6    0    0 -0.10595073887E+02  0.10394582396E+02  0.96930029931E+02  0.98059847217E+02  0.00000000000E+00 0.  1.
         14    1    6    6    0    0  0.26564381294E+02 -0.10153289896E+01 -0.25073479648E+01  0.26701760996E+02  0.00000000000E+00 0. -1.
         -5    1    3    3    0  503  0.15449337336E+02  0.43939307542E+01 -0.87640051662E+02  0.89223636481E+02  0.47000000000E+01 0.  1.
         11    1    4    4    0    0  0.30602042452E+02 -0.45409320759E+02  0.45073971594E+01  0.54943680648E+02  0.00000000000E+00 0. -1.
        -12    1    4    4    0    0 -0.39379013377E+02 -0.85275069889E+02 -0.41075238720E+02  0.10251692287E+03  0.00000000000E+00 0.  1.
</event>
<event>
12    1  0.1565987E-001  0.1965541E+03  0.7818608E-02  0.1152687E+00
         21   -1    0    0  501  502  0.00000000000E+00  0.00000000000E+00  0.58041149567E+03  0.58041149567E+03  0.00000000000E+00 0. -1.
         21   -1    0    0  502  503 -0.00000000000E+00 -0.00000000000E+00 -0.11471557734E+03  0.11471557734E+03  0.00000000000E+00 0. -1.
         -6    2    1    2    0  503  0.94650824260E+02 -0.11761259973E+01  0.76477979223E+01  0.19670281086E+03  0.17225952857E+03 0.  0.
        -24    2    3    3    0    0  0.22570799193E+02  0.37855983215E+02  0.50596037503E+02  0.10404388336E+03  0.79515119390E+02 0.  0.
          6    2    1    2  501    0 -0.94650824260E+02  0.11761259973E+01  0.45804812041E+03  0.49842426214E+03  0.17221644137E+03 0.  0.
         24    2    5    5    0    0 -0.51258962873E+02  0.67935573278E+02  0.28437897257E+03  0.30731502546E+03  0.79551250406E+02 0.  0.
          5    1    5    5  501    0 -0.43391861388E+02 -0.66759447280E+02  0.17366914784E+03  0.19110923669E+03  0.47000000000E+01 0. -1.
        -13    1    6    6    0    0 -0.75247656546E+01  0.87134640673E+01 -0.19465831827E+01  0.11676289663E+02  0.00000000000E+00 0.  1.
         14    1    6    6    0    0 -0.43734197218E+02  0.59222109210E+02  0.28632555575E+03  0.29563873579E+03  0.00000000000E+00 0. -1.
         -5    1    3    3    0  503  0.72080025067E+02 -0.39032109212E+02 -0.42948239581E+02  0.92658927505E+02  0.47000000000E+01 0.  1.
         13    1    4    4    0    0  0.43270258582E+02 -0.39178038555E+01  0.17352228042E+02  0.46784231134E+02  0.00000000000E+00 0. -1.
        -14    1    4    4    0    0 -0.20699459389E+02  0.41773787070E+02  0.33243809461E+02  0.57259652223E+02  0.00000000000E+00 0.  1.
</event>
<event>
12    1  0.1565987E-001  0.1795959E+03  0.7818608E-02  0.1168292E+00
         21   -1    0    0  503  502  0.00000000000E+00  0.00000000000E+00  0.29112820894E+03  0.29112820894E+03  0.00000000000E+00 0. -1.
         21   -1    0    0  501  503 -0.00000000000E+00 -0.00000000000E+00 -0.12448706683E+03  0.12448706683E+03  0.00000000000E+00 0. -1.
          6    2    1    2  501    0 -0.16927127420E+02  0.46384598902E+02  0.13692619763E+02  0.17971710679E+03  0.17225763257E+03 0.  0.
         24    2    3    3    0    0 -0.55086536796E+02  0.64586991864E+02  0.47975735698E+02  0.12508296296E+03  0.78345838135E+02 0.  0.
         -6    2    1    2    0  502  0.16927127420E+02 -0.46384598902E+02  0.15294852235E+03  0.23589816897E+03  0.17267494601E+03 0.  0.
        -24    2    5    5    0    0 -0.55266382421E+01 -0.61228535742E+02  0.22555482058E+02  0.10267298738E+03  0.79079170761E+02 0.  0.
          5    1    3    3  501    0  0.38159409376E+02 -0.18202392962E+02 -0.34283115935E+02  0.54634143827E+02  0.47000000000E+01 0. -1.
        -11    1    4    4    0    0 -0.53938758676E+02  0.77541655569E+01  0.68510780226E+01  0.54922254515E+02  0.00000000000E+00 0.  1.
         12    1    4    4    0    0 -0.11477781206E+01  0.56832826307E+02  0.41124657675E+02  0.70160708446E+02  0.00000000000E+00 0. -1.
         -5    1    5    5    0  502  0.22453765662E+02  0.14843936839E+02  0.13039304029E+03  0.13322518159E+03  0.47000000000E+01 0.  1.
         11    1    6    6    0    0 -0.40661439595E+02 -0.40264848075E+02  0.23215139610E+02  0.61753974508E+02  0.00000000000E+00 0. -1.
        -12    1    6    6    0    0  0.35134801353E+02 -0.20963687667E+02 -0.65965755185E+00  0.40919012877E+02  0.00000000000E+00 0.  1.
</event>
<event>
12    1  0.1565987E-001  0.1824859E+03  0.7818608E-02  0.1165507E+00
         21   -1    0    0  501  502  0.00000000000E+00  0.00000000000E+00  0.19478627542E+03  0.19478627542E+03  0.00000000000E+00 0. -1.
         21   -1    0    0  502  503 -0.00000000000E+00 -0.00000000000E+00 -0.17145890668E+03  0.17145890668E+03  0.00000000000E+00 0. -1.
         -6    2    1    2    0  503  0.48513378006E+02  0.36126143461E+02 -0.11657411955E+01  0.18248964002E+03  0.17216986867E+03 0.  0.
        -24    2    3    3    0    0 -0.38856065754E+02  0.15938221539E+02 -0.12979794227E+02  0.91921247395E+02  0.80729300212E+02 0.  0.
          6    2    1    2  501    0 -0.48513378006E+02 -0.36126143461E+02  0.24493109937E+02  0.18375554207E+03  0.17177759086E+03 0.  0.
         24    2    5    5    0    0 -0.92341666887E+02 -0.18392466134E+02  0.46798796744E+02  0.13126710638E+03  0.78585364960E+02 0.  0.
          5    1    5    5  501    0  0.43828288881E+02 -0.17733677327E+02 -0.22305686808E+02  0.52488435696E+02  0.47000000000E+01 0. -1.
        -11    1    6    6    0    0 -0.32075001486E+02  0.25539268455E+02  0.38472486993E+02  0.56224480513E+02  0.00000000000E+00 0.  1.
         12    1    6    6    0    0 -0.60266665401E+02 -0.43931734588E+02  0.83263097514E+01  0.75042625864E+02  0.00000000000E+00 0. -1.
         -5    1    3    3    0  503  0.87369443760E+02  0.20187921922E+02  0.11814053032E+02  0.90568392629E+02  0.47000000000E+01 0.  1.
         13    1    4    4    0    0 -0.75243438897E+00  0.33487493216E+02 -0.31576635335E+02  0.46033273384E+02  0.00000000000E+00 0. -1.
        -14    1    4    4    0    0 -0.38103631365E+02 -0.17549271678E+02  0.18596841107E+02  0.45887974010E+02  0.00000000000E+00 0.  1.
</event>
<event>
12    1  0.1565987E-001  0.1744952E+03  0.7818608E-02  0.1174011E+00
         21   -1    0    0  503  502  0.00000000000E+00  0.00000000000E+00  0.24705404095E+04  0.24705404095E+04  0.00000000000E+00 0. -1.
         21   -1    0    0  501  503 -0.00000000000E+00 -0.00000000000E+00 -0.52458648696E+02  0.52458648696E+02  0.00000000000E+00 0. -1.
          6    2    1    2  501    0  0.68971480130E+01  0.27186852033E+02  0.10516564222E+03  0.20373605773E+03  0.17222622722E+03 0.  0.
         24    2    3    3    0    0 -0.45091856983E+02 -0.17588257120E+02  0.96398758925E+02  0.13440630018E+03  0.80185475306E+02 0.  0.
         -6    2    1    2    0  502 -0.68971480130E+01 -0.27186852033E+02  0.23129161186E+04  0.23192630005E+04  0.16915436183E+03 0.  0.
        -24    2    5    5    0    0  0.62257845468E+02 -0.20911501792E+02  0.13511947319E+04  0.13550265622E+04  0.77823201509E+02 0.  0.
          5    1    3    3  501    0  0.51989004996E+02  0.44775109153E+02  0.87668832924E+01  0.69329757556E+02  0.47000000000E+01 0. -1.
        -13    1    4    4    0    0 -0.37846465443E+02  0.22768348865E+02  0.77625287713E+02  0.89310906104E+02  0.00000000000E+00 0.  1.
         14    1    4    4    0    0 -0.72453915396E+01 -0.40356605984E+02  0.18773471212E+02  0.45095394072E+02  0.00000000000E+00 0. -1.
         -5    1    5    5    0  502 -0.69154993481E+02 -0.62753502413E+01  0.96172138671E+03  0.96423643822E+03  0.47000000000E+01 0.  1.
         11    1    6    6    0    0 -0.80633041175E+01 -0.34745582537E-01  0.64154386259E+03  0.64159453372E+03  0.00000000000E+00 0. -1.
        -12    1    6    6    0    0  0.70321149585E+02 -0.20876756210E+02  0.70965086929E+03  0.71343202852E+03  0.00000000000E+00 0.  1.
</event>
<event>
12    1  0.1565987E-001  0.2497583E+03  0.7818608E-02  0.1113553E+00
         21   -1    0    0  503  502  0.00000000000E+00  0.00000000000E+00  0.20455740030E+03  0.20455740030E+03  0.00000000000E+00 0. -1.
         21   -1    0    0  501  503 -0.00000000000E+00 -0.00000000000E+00 -0.39975304979E+03  0.39975304979E+03  0.00000000000E+00 0.  1.
          6    2    1    2  501    0 -0.16046887175E+03 -0.81551453763E+02 -0.24522477574E+03  0.34959078386E+03  0.17227195683E+03 0.  0.
         24    2    3    3    0    0 -0.34740834905E+02 -0.52695861101E+02 -0.17446089934E+03  0.20238412409E+03  0.80863767519E+02 0.  0.
         -6    2    1    2    0  502  0.16046887175E+03  0.81551453763E+02  0.50029126255E+02  0.25471966623E+03  0.17314241675E+03 0.  0.
        -24    2    5    5    0    0  0.48221171890E+02  0.16485451771E+02 -0.34756624863E+02  0.99658889979E+02  0.78274004889E+02 0.  0.
          5    1    3    3  501    0 -0.12572803685E+03 -0.28855592662E+02 -0.70763876402E+02  0.14720665977E+03  0.47000000000E+01 0. -1.
        -13    1    4    4    0    0 -0.28567522188E+02 -0.57329921307E+02 -0.60327345761E+02  0.87989839456E+02  0.00000000000E+00 0.  1.
         14    1    4    4    0    0 -0.61733127172E+01  0.46340602057E+01 -0.11413355358E+03  0.11439428463E+03  0.00000000000E+00 0. -1.
         -5    1    5    5    0  502  0.11224769986E+03  0.65066001991E+02  0.84785751119E+02  0.15506077625E+03  0.47000000000E+01 0.  1.
         13    1    6    6    0    0  0.16867286077E+01  0.40826341215E+02 -0.16341964064E+02  0.44007896790E+02  0.00000000000E+00 0. -1.
        -14    1    6    6    0    0  0.46534443282E+02 -0.24340889444E+02 -0.18414660799E+02  0.55650993189E+02  0.00000000000E+00 0.  1.
</event>
<event>
12    1  0.1565987E-001  0.2062872E+03  0.7818608E-02  0.1144566E+00
         21   -1    0    0  503  502  0.00000000000E+00  0.00000000000E+00  0.37782486190E+03  0.37782486190E+03  0.00000000000E+00 0.  1.
         21   -1    0    0  501  503 -0.00000000000E+00 -0.00000000000E+00 -0.13648231554E+03  0.13648231554E+03  0.00000000000E+00 0. -1.
          6    2    1    2  501    0 -0.11205539499E+03 -0.16375416022E+02  0.13041983029E+02  0.20669905303E+03  0.17242343056E+03 0.  0.
         24    2    3    3    0    0 -0.56947396912E+02  0.43200575145E+02  0.48381267559E+02  0.11805851373E+03  0.80546693947E+02 0.  0.
         -6    2    1    2    0  502  0.11205539499E+03  0.16375416022E+02  0.22830056333E+03  0.30760812442E+03  0.17227026788E+03 0.  0.
        -24    2    5    5    0    0  0.21815688606E+02  0.58056390087E+02  0.14924486661E+03  0.18051602635E+03  0.80408562107E+02 0.  0.
          5    1    3    3  501    0 -0.55107998079E+02 -0.59575991167E+02 -0.35339284530E+02  0.88640539297E+02  0.47000000000E+01 0. -1.
        -13    1    4    4    0    0 -0.26488240719E+02 -0.13993197797E+02  0.43843833061E+02  0.53101018619E+02  0.00000000000E+00 0.  1.
         14    1    4    4    0    0 -0.30459156193E+02  0.57193772942E+02  0.45374344980E+01  0.64957495112E+02  0.00000000000E+00 0. -1.
         -5    1    5    5    0  502  0.90239706385E+02 -0.41680974065E+02  0.79055696717E+02  0.12709209807E+03  0.47000000000E+01 0.  1.
         13    1    6    6    0    0  0.14605018334E+02  0.60844029097E+02  0.47707702419E+02  0.78684987815E+02  0.00000000000E+00 0. -1.
        -14    1    6    6    0    0  0.72106702720E+01 -0.27876390096E+01  0.10153716419E+03  0.10183103854E+03  0.00000000000E+00 0.  1.
</event>
<event>
12    1  0.1565987E-001  0.2174199E+03  0.7818608E-02  0.1136735E+00
         21   -1    0    0  503  502  0.00000000000E+00  0.00000000000E+00  0.32537104466E+03  0.32537104466E+03  0.00000000000E+00 0. -1.
         21   -1    0    0  501  503 -0.00000000000E+00 -0.00000000000E+00 -0.27643996074E+03  0.27643996074E+03  0.00000000000E+00 0.  1.
          6    2    1    2  501    0 -0.13455962382E+03  0.24111449611E+01 -0.18514188897E+03  0.28556770349E+03  0.17076090958E+03 0.  0.
         24    2    3    3    0    0 -0.40206644233E+02 -0.56176095916E+02 -0.94149711243E+02  0.14191320144E+03  0.80640316366E+02 0.  0.
         -6    2    1    2    0  502  0.13455962382E+03 -0.24111449611E+01  0.23407297288E+03  0.31624330191E+03  0.16464374688E+03 0.  0.
        -24    2    5    5    0    0  0.15846947459E+02  0.23501837162E+02  0.14448877719E+03  0.16520820569E+03  0.74921841952E+02 0.  0.
          5    1    3    3  501    0 -0.94352979588E+02  0.58587240877E+02 -0.90992177724E+02  0.14365450204E+03  0.47000000000E+01 0. -1.
        -13    1    4    4    0    0 -0.28306635361E+02 -0.69842956296E+02 -0.41070763731E+02  0.85826055386E+02  0.00000000000E+00 0.  1.
         14    1    4    4    0    0 -0.11900008872E+02  0.13666860380E+02 -0.53078947512E+02  0.56087146056E+02  0.00000000000E+00 0. -1.
         -5    1    5    5    0  502  0.11871267636E+03 -0.25912982123E+02  0.89584195696E+02  0.15103509622E+03  0.47000000000E+01 0.  1.
         13    1    6    6    0    0  0.44986861208E+02  0.20407002760E+02  0.10494434355E+03  0.11598956283E+03  0.00000000000E+00 0. -1.
        -14    1    6    6    0    0 -0.29139913749E+02  0.30948344013E+01  0.39544433635E+02  0.49218642858E+02  0.00000000000E+00 0.  1.
</event>
<event>
12    1  0.1565987E-001  0.1917063E+03  0.7818608E-02  0.1156971E+00
         21   -1    0    0  503  502  0.00000000000E+00  0.00000000000E+00  0.20112658536E+04  0.20112658536E+04  0.00000000000E+00 0.  1.
         21   -1    0    0  501  503 -0.00000000000E+00 -0.00000000000E+00 -0.42554592185E+02  0.42554592185E+02  0.00000000000E+00 0. -1.
          6    2    1    2  501    0  0.37456140338E+02 -0.75013108712E+02  0.17605341433E+04  0.17709409321E+04  0.17239891636E+03 0.  0.
         24    2    3    3    0    0 -0.85939670113E+01  0.19861513059E+02  0.98124934440E+03  0.98453855798E+03  0.77443917037E+02 0.  0.
         -6    2    1    2    0  502 -0.37456140338E+02  0.75013108712E+02  0.20817711812E+03  0.28287951368E+03  0.17220098090E+03 0.  0.
        -24    2    5    5    0    0 -0.41174439069E+02  0.67057309078E+02  0.49096683102E+02  0.12348755874E+03  0.81527147255E+02 0.  0.
          5    1    3    3  501    0  0.46050107349E+02 -0.94874621771E+02  0.77928479887E+03  0.78640237411E+03  0.47000000000E+01 0. -1.
        -11    1    4    4    0    0 -0.18164000928E+02 -0.13549307140E+02  0.77866579571E+03  0.77899546601E+03  0.00000000000E+00 0.  1.
         12    1    4    4    0    0  0.95700339169E+01  0.33410820199E+02  0.20258354869E+03  0.20554309197E+03  0.00000000000E+00 0. -1.
         -5    1    5    5    0  502  0.37182987310E+01  0.79557996332E+01  0.15908043502E+03  0.15939195494E+03  0.47000000000E+01 0.  1.
         13    1    6    6    0    0 -0.91607607037E+01  0.53863217492E+02  0.65396752156E+02  0.85216787829E+02  0.00000000000E+00 0. -1.
        -14    1    6    6    0    0 -0.32013678365E+02  0.13194091586E+02 -0.16300069055E+02  0.38270770915E+02  0.00000000000E+00 0.  1.
</event>
<event>
12    1  0.1565987E-001  0.2501011E+03  0.7818608E-02  0.1113330E+00
         21   -1    0    0  503  502  0.00000000000E+00  0.00000000000E+00  0.51177556124E+02  0.51177556124E+02  0.00000000000E+00 0.  1.
         21   -1    0    0  501  503 -0.00000000000E+00 -0.00000000000E+00 -0.13435021404E+04  0.13435021404E+04  0.00000000000E+00 0. -1.
          6    2    1    2  501    0  0.14828123795E+03  0.10195753971E+03 -0.85737579500E+03  0.89295167133E+03  0.17287789928E+03 0.  0.
         24    2    3    3    0    0  0.50719462114E+02  0.53481819243E+02 -0.21056872443E+03  0.23701747332E+03  0.80033281373E+02 0.  0.
         -6    2    1    2    0  502 -0.14828123795E+03 -0.10195753971E+03 -0.43494878924E+03  0.50172802515E+03  0.17368908006E+03 0.  0.
        -24    2    5    5    0    0 -0.24949356384E+02  0.16605770665E+01 -0.19991119717E+03  0.21675043512E+03  0.79943958318E+02 0.  0.
          5    1    3    3  501    0  0.97561775832E+02  0.48475720466E+02 -0.64680707057E+03  0.65593419801E+03  0.47000000000E+01 0. -1.
        -13    1    4    4    0    0 -0.10027838723E+02 -0.48590919161E+01 -0.85558637930E+02  0.86281219556E+02  0.00000000000E+00 0.  1.
         14    1    4    4    0    0  0.60747300838E+02  0.58340911159E+02 -0.12501008650E+03  0.15073625377E+03  0.00000000000E+00 0. -1.
         -5    1    5    5    0  502 -0.12333188156E+03 -0.10361811678E+03 -0.23503759207E+03  0.28497759003E+03  0.47000000000E+01 0.  1.
         11    1    6    6    0    0 -0.21690501736E-01  0.34801676567E+02 -0.48052340071E+02  0.59331143160E+02  0.00000000000E+00 0. -1.
        -12    1    6    6    0    0 -0.24927665883E+02 -0.33141099501E+02 -0.15185885710E+03  0.15741929196E+03  0.00000000000E+00 0.  1.
</event>
<event>
12    1  0.1565987E-001  0.2169113E+03  0.7818608E-02  0.1136372E+00
         21   -1    0    0  501  502  0.00000000000E+00  0.00000000000E+00  0.13320069312E+04  0.13320069312E+04  0.00000000000E+00 0. -1.
         21   -1    0    0  502  503 -0.00000000000E+00 -0.00000000000E+00 -0.51581634348E+02  0.51581634348E+02  0.00000000000E+00 0. -1.
         -6    2    1    2    0  503  0.12544030198E+03 -0.40668228643E+02  0.10311627624E+04  0.10537301178E+04  0.17222469141E+03 0.  0.
        -24    2    3    3    0    0  0.12327029441E+03 -0.46343751493E+02  0.51579634496E+03  0.53830645250E+03  0.79904058313E+02 0.  0.
          6    2    1    2  501    0 -0.12544030198E+03  0.40668228643E+02  0.24926253439E+03  0.32985844773E+03  0.17113038977E+03 0.  0.
         24    2    5    5    0    0 -0.11613923978E+03  0.24604961102E+02  0.26732442144E+03  0.30353621215E+03  0.81105848487E+02 0.  0.
          5    1    5    5  501    0 -0.93010622029E+01  0.16063267541E+02 -0.18061887049E+02  0.26322235581E+02  0.47000000000E+01 0. -1.
        -11    1    6    6    0    0 -0.94391866237E+01  0.29574673414E+02  0.10274195032E+03  0.10732971587E+03  0.00000000000E+00 0.  1.
         12    1    6    6    0    0 -0.10670005315E+03 -0.49697123118E+01  0.16458247112E+03  0.19620649628E+03  0.00000000000E+00 0. -1.
         -5    1    3    3    0  503  0.21700075700E+01  0.56755228496E+01  0.51536641745E+03  0.51542366528E+03  0.47000000000E+01 0.  1.
         11    1    4    4    0    0  0.51663361944E+02  0.20938996075E+02  0.19233785690E+03  0.20025332886E+03  0.00000000000E+00 0. -1.
        -12    1    4    4    0    0  0.71606932467E+02 -0.67282747568E+02  0.32345848807E+03  0.33805312364E+03  0.00000000000E+00 0.  1.
</event>
<event>
12    1  0.1565987E-001  0.1999612E+03  0.7818608E-02  0.1151839E+00
         21   -1    0    0  503  502  0.00000000000E+00  0.00000000000E+00  0.32426024330E+03  0.32426024330E+03  0.00000000000E+00 0.  1.
         21   -1    0    0  501  503 -0.00000000000E+00 -0.00000000000E+00 -0.13455827743E+03  0.13455827743E+03  0.00000000000E+00 0.  1.
          6    2    1    2  501    0 -0.37496301467E+02 -0.98105318689E+02  0.15199784816E+02  0.20053807430E+03  0.17015833687E+03 0.  0.
         24    2    3    3    0    0 -0.33441999917E+02 -0.11408633748E+03  0.59537183045E+02  0.15300150727E+03  0.75701554169E+02 0.  0.
         -6    2    1    2    0  502  0.37496301467E+02  0.98105318689E+02  0.17450218105E+03  0.25828044644E+03  0.15883057527E+03 0.  0.
        -24    2    5    5    0    0  0.30848698071E+01  0.12088704497E+03  0.11093821916E+03  0.18234876048E+03  0.79502125230E+02 0.  0.
          5    1    3    3  501    0 -0.40543015503E+01  0.15981018796E+02 -0.44337398229E+02  0.47536567025E+02  0.47000000000E+01 0. -1.
        -13    1    4    4    0    0 -0.22295204774E+02 -0.86742791363E+02  0.34646406668E+01  0.89629190247E+02  0.00000000000E+00 0.  1.
         14    1    4    4    0    0 -0.11146795143E+02 -0.27343546122E+02  0.56072542378E+02  0.63372317026E+02  0.00000000000E+00 0. -1.
         -5    1    5    5    0  502  0.34411431660E+02 -0.22781726276E+02  0.63563961891E+02  0.75931685957E+02  0.47000000000E+01 0.  1.
         11    1    6    6    0    0 -0.34061207170E+02  0.29180422575E+02  0.44409417082E+02  0.63117820154E+02  0.00000000000E+00 0. -1.
        -12    1    6    6    0    0  0.37146076977E+02  0.91706622391E+02  0.66528802081E+02  0.11923094033E+03  0.00000000000E+00 0.  1.
</event>
<event>
12    1  0.1565987E-001  0.2010123E+03  0.7818608E-02  0.1149299E+00
         21   -1    0    0  501  502  0.00000000000E+00  0.00000000000E+00  0.19323232278E+03  0.19323232278E+03  0.00000000000E+00 0. -1.
         21   -1    0    0  502  503 -0.00000000000E+00 -0.00000000000E+00 -0.41538776702E+03  0.41538776702E+03  0.00000000000E+00 0. -1.
         -6    2    1    2    0  503  0.65991427698E+02  0.76445263662E+02 -0.32630355975E+03  0.38222932924E+03  0.17154154062E+03 0.  0.
        -24    2    3    3    0    0  0.78872918604E+02 -0.57738111430E+01 -0.13907691826E+03  0.17728588740E+03  0.76378154558E+02 0.  0.
          6    2    1    2  501    0 -0.65991427698E+02 -0.76445263662E+02  0.10414811552E+03  0.22639076056E+03  0.17380218536E+03 0.  0.
         24    2    5    5    0    0  0.16918831807E+02  0.31595931171E+01  0.65214601838E+02  0.10494549371E+03  0.80401383434E+02 0.  0.
          5    1    5    5  501    0 -0.82910259504E+02 -0.79604856779E+02  0.38933513677E+02  0.12144526685E+03  0.47000000000E+01 0. -1.
        -13    1    6    6    0    0 -0.14720571828E+01 -0.31716918919E+02  0.38193743646E+01  0.31979954950E+02  0.00000000000E+00 0.  1.
         14    1    6    6    0    0  0.18390888989E+02  0.34876512036E+02  0.61395227474E+02  0.72965538757E+02  0.00000000000E+00 0. -1.
         -5    1    3    3    0  503 -0.12881490907E+02  0.82219074805E+02 -0.18722664149E+03  0.20494344184E+03  0.47000000000E+01 0.  1.
         11    1    4    4    0    0 -0.76657998842E+01  0.24089743747E+01 -0.57560411305E+02  0.58118573580E+02  0.00000000000E+00 0. -1.
        -12    1    4    4    0    0  0.86538718489E+02 -0.81827855176E+01 -0.81516506953E+02  0.11916731382E+03  0.00000000000E+00 0.  1.
</event>
<event>
12    1  0.1565987E-001  0.2235732E+03  0.7818608E-02  0.1132606E+00
         21   -1    0    0  503  502  0.00000000000E+00  0.00000000000E+00  0.14913154138E+03  0.14913154138E+03  0.00000000000E+00 0.  1.
         21   -1    0    0  501  503 -0.00000000000E+00 -0.00000000000E+00 -0.32471981073E+03  0.32471981073E+03  0.00000000000E+00 0.  1.
          6    2    1    2  501    0  0.45448797902E+02 -0.13530345141E+03 -0.97811025077E+02  0.24403276869E+03  0.17208247549E+03 0.  0.
         24    2    3    3    0    0  0.44041850981E+02 -0.11876061926E+03 -0.13594976511E+03  0.20217230659E+03  0.79671410134E+02 0.  0.
         -6    2    1    2    0  502 -0.45448797902E+02  0.13530345141E+03 -0.77777244273E+02  0.22981858342E+03  0.16246434798E+03 0.  0.
        -24    2    5    5    0    0  0.98779304699E+01  0.42395707850E+02 -0.22932061279E+01  0.97860917100E+02  0.87615813338E+02 0.  0.
          5    1    3    3  501    0  0.14069469219E+01 -0.16542832156E+02  0.38138740037E+02  0.41860462097E+02  0.47000000000E+01 0. -1.
        -13    1    4    4    0    0  0.49187216541E+02 -0.86491298800E+02 -0.52387551840E+02  0.11244813305E+03  0.00000000000E+00 0.  1.
         14    1    4    4    0    0 -0.51453655609E+01 -0.32269320456E+02 -0.83562213274E+02  0.89724173536E+02  0.00000000000E+00 0. -1.
         -5    1    5    5    0  502 -0.55326728372E+02  0.92907743562E+02 -0.75484038145E+02  0.13195766632E+03  0.47000000000E+01 0.  1.
         13    1    6    6    0    0  0.60630408401E+01 -0.26430669482E+02  0.77457251207E+01  0.28201720003E+02  0.00000000000E+00 0. -1.
        -14    1    6    6    0    0  0.38148896297E+01  0.68826377332E+02 -0.10038931249E+02  0.69659197097E+02  0.00000000000E+00 0.  1.
</event>
<event>
12    1  0.1565987E-001  0.1737163E+03  0.7818608E-02  0.1174028E+00
         21   -1    0    0  503  502  0.00000000000E+00  0.00000000000E+00  0.11439868841E+03  0.11439868841E+03  0.00000000000E+00 0.  1.
         21   -1    0    0  501  503 -0.00000000000E+00 -0.00000000000E+00 -0.37312875870E+03  0.37312875870E+03  0.00000000000E+00 0.  1.
          6    2    1    2  501    0  0.40977904129E+01  0.26058967305E+02 -0.26132306432E+03  0.31379182908E+03  0.17169655323E+03 0.  0.
         24    2    3    3    0    0  0.45969059126E+02 -0.20438579497E+02 -0.21824225997E+03  0.23767829083E+03  0.79563785512E+02 0.  0.
         -6    2    1    2    0  502 -0.40977904129E+01 -0.26058967305E+02  0.25929940282E+01  0.17373561802E+03  0.17170171720E+03 0.  0.
        -24    2    5    5    0    0 -0.47144281941E+02  0.34260944254E+02  0.12615915407E+02  0.98808712868E+02  0.78788354445E+02 0.  0.
          5    1    3    3  501    0 -0.41871268713E+02  0.46497546802E+02 -0.43080804348E+02  0.76113538254E+02  0.47000000000E+01 0. -1.
        -13    1    4    4    0    0 -0.20355498641E+02 -0.48624848041E+01 -0.90668300100E+02  0.93052301027E+02  0.00000000000E+00 0.  1.
         14    1    4    4    0    0  0.66324557767E+02 -0.15576094692E+02 -0.12757395987E+03  0.14462598980E+03  0.00000000000E+00 0. -1.
         -5    1    5    5    0  502  0.43046491528E+02 -0.60319911559E+02 -0.10022921379E+02  0.74926905157E+02  0.47000000000E+01 0.  1.
         13    1    6    6    0    0 -0.29307575628E+01  0.11814768399E+02 -0.30664230496E+02  0.32992016067E+02  0.00000000000E+00 0. -1.
        -14    1    6    6    0    0 -0.44213524378E+02  0.22446175854E+02  0.43280145903E+02  0.65816696801E+02  0.00000000000E+00 0.  1.
</event>
<event>
12    1  0.1565987E-001  0.1730039E+03  0.7818608E-02  0.1174911E+00
         21   -1    0    0  501  502  0.00000000000E+00  0.00000000000E+00  0.52726426391E+02  0.52726426391E+02  0.00000000000E+00 0.  1.
         21   -1    0    0  502  503 -0.00000000000E+00 -0.00000000000E+00 -0.90207898128E+03  0.90207898128E+03  0.00000000000E+00 0.  1.
         -6    2    1    2    0  503  0.48072348457E+01 -0.59896930701E+01 -0.71576147182E+03  0.73622610385E+03  0.17220744908E+03 0.  0.
        -24    2    3    3    0    0  0.20001895254E+02 -0.25168124107E+02 -0.18024005325E+03  0.20012539534E+03  0.80809571077E+02 0.  0.
          6    2    1    2  501    0 -0.48072348457E+01  0.59896930701E+01 -0.13359108306E+03  0.21857930382E+03  0.17283329729E+03 0.  0.
         24    2    5    5    0    0  0.53005287605E+02 -0.12524030743E+02 -0.12401763349E+03  0.15694500607E+03  0.79277674379E+02 0.  0.
          5    1    5    5  501    0 -0.57812522450E+02  0.18513723814E+02 -0.95734495737E+01  0.61634297743E+02  0.47000000000E+01 0. -1.
        -13    1    6    6    0    0  0.47134263892E+02 -0.12225795651E+02 -0.19806362069E+02  0.52568059602E+02  0.00000000000E+00 0.  1.
         14    1    6    6    0    0  0.58710237125E+01 -0.29823509267E+00 -0.10421127142E+03  0.10437694647E+03  0.00000000000E+00 0. -1.
         -5    1    3    3    0  503 -0.15194660409E+02  0.19178431037E+02 -0.53552141857E+03  0.53610070852E+03  0.47000000000E+01 0.  1.
         11    1    4    4    0    0  0.30818641825E+02  0.21854234024E+02 -0.93939650054E+02  0.10125242753E+03  0.00000000000E+00 0. -1.
        -12    1    4    4    0    0 -0.10816746571E+02 -0.47022358131E+02 -0.86300403195E+02  0.98872967804E+02  0.00000000000E+00 0.  1.
</event>
<event>
12    1  0.1565987E-001  0.1857547E+03  0.7818608E-02  0.1162910E+00
         21   -1    0    0  503  502  0.00000000000E+00  0.00000000000E+00  0.27950604874E+03  0.27950604874E+03  0.00000000000E+00 0. -1.
         21   -1    0    0  501  503 -0.00000000000E+00 -0.00000000000E+00 -0.20199934757E+03  0.20199934757E+03  0.00000000000E+00 0. -1.
          6    2    1    2  501    0 -0.23989617483E+02 -0.57220498836E+02 -0.11273840182E+03  0.21728957374E+03  0.17508604850E+03 0.  0.
         24    2    3    3    0    0 -0.83585698217E+02 -0.29120042197E+02 -0.64573300431E+02  0.13553814872E+03  0.79789302697E+02 0.  0.
         -6    2    1    2    0  502  0.23989617483E+02  0.57220498836E+02  0.19024510299E+03  0.26421582257E+03  0.17253148829E+03 0.  0.
        -24    2    5    5    0    0  0.30431966638E+02 -0.52439882396E+01  0.18052220952E+03  0.20049815889E+03  0.81594359980E+02 0.  0.
          5    1    3    3  501    0  0.59596080734E+02 -0.28100456638E+02 -0.48165101393E+02  0.81751425029E+02  0.47000000000E+01 0. -1.
        -11    1    4    4    0    0 -0.54435503350E+02 -0.52845524204E+02 -0.22525360925E+02  0.79140794399E+02  0.00000000000E+00 0.  1.
         12    1    4    4    0    0 -0.29150194867E+02  0.23725482007E+02 -0.42047939506E+02  0.56397354316E+02  0.00000000000E+00 0. -1.
         -5    1    5    5    0  502 -0.64423491545E+01  0.62464487075E+02  0.97228934716E+01  0.63717663686E+02  0.47000000000E+01 0.  1.
         13    1    6    6    0    0 -0.20323754135E+02  0.15802035568E+02  0.98235560705E+02  0.10155286651E+03  0.00000000000E+00 0. -1.
        -14    1    6    6    0    0  0.50755720773E+02 -0.21046023808E+02  0.82286648814E+02  0.98945292371E+02  0.00000000000E+00 0.  1.
</event>
<event>
12    1  0.1565987E-001  0.1841189E+03  0.7818608E-02  0.1163949E+00
         21   -1    0    0  501  502  0.00000000000E+00  0.00000000000E+00  0.42601764653E+03  0.42601764653E+03  0.00000000000E+00 0. -1.
         21   -1    0    0  502  503 -0.00000000000E+00 -0.00000000000E+00 -0.13039540183E+03  0.13039540183E+03  0.00000000000E+00 0. -1.
         -6    2    1    2    0  503  0.55362755466E+02 -0.36128752184E+02 -0.26179706623E+02  0.18566208506E+03  0.17150717584E+03 0.  0.
        -24    2    3    3    0    0  0.99193793203E+02 -0.53875638624E+02 -0.99744084599E+01  0.13545438111E+03  0.74205171591E+02 0.  0.
          6    2    1    2  501    0 -0.55362755466E+02  0.36128752184E+02  0.32180195132E+03  0.37075096330E+03  0.17184137884E+03 0.  0.
         24    2    5    5    0    0 -0.10397273769E+03  0.27768607570E+02  0.25361242841E+03  0.28646144185E+03  0.78482278713E+02 0.  0.
          5    1    5    5  501    0  0.48609982229E+02  0.83601446136E+01  0.68189522914E+02  0.84289521445E+02  0.47000000000E+01 0. -1.
        -11    1    6    6    0    0 -0.34917723846E+02  0.58712516601E+01  0.17521549800E+02  0.39505996279E+02  0.00000000000E+00 0.  1.
         12    1    6    6    0    0 -0.69055013849E+02  0.21897355910E+02  0.23609087861E+03  0.24695544557E+03  0.00000000000E+00 0. -1.
         -5    1    3    3    0  503 -0.43831037737E+02  0.17746886440E+02 -0.16205298163E+02  0.50207703950E+02  0.47000000000E+01 0.  1.
         13    1    4    4    0    0  0.28095344354E+02 -0.47199049104E+02  0.19377927808E+02  0.58246053058E+02  0.00000000000E+00 0. -1.
        -14    1    4    4    0    0  0.71098448849E+02 -0.66765895201E+01 -0.29352336268E+02  0.77208328053E+02  0.00000000000E+00 0.  1.
</event>
<event>
12    1  0.1565987E-001  0.1845581E+03  0.7818608E-02  0.1163530E+00
         21   -1    0    0  503  502  0.00000000000E+00  0.00000000000E+00  0.69376619374E+03  0.69376619374E+03  0.00000000000E+00 0.  1.
         21   -1    0    0  501  503 -0.00000000000E+00 -0.00000000000E+00 -0.49278311814E+02  0.49278311814E+02  0.00000000000E+00 0.  1.
          6    2    1    2  501    0 -0.54364458721E+02 -0.36835860896E+02  0.34930806612E+03  0.39506684111E+03  0.17247987962E+03 0.  0.
         24    2    3    3    0    0 -0.95003458485E+02 -0.77482810485E+00  0.20405142582E+03  0.23991044280E+03  0.83028782369E+02 0.  0.
         -6    2    1    2    0  502  0.54364458721E+02  0.36835860896E+02  0.29517981581E+03  0.34797766444E+03  0.17217710727E+03 0.  0.
        -24    2    5    5    0    0  0.32690856271E+02  0.71807098279E+02  0.81762115356E+02  0.13057955646E+03  0.64350801165E+02 0.  0.
          5    1    3    3  501    0  0.40638999763E+02 -0.36061032791E+02  0.14525664030E+03  0.15515639831E+03  0.47000000000E+01 0. -1.
        -13    1    4    4    0    0 -0.38971261409E+01 -0.29546740022E+02  0.37490889422E+02  0.47893258688E+02  0.00000000000E+00 0.  1.
         14    1    4    4    0    0 -0.91106332344E+02  0.28771911917E+02  0.16656053640E+03  0.19201718411E+03  0.00000000000E+00 0. -1.
         -5    1    5    5    0  502  0.21673602451E+02 -0.34971237383E+02  0.21341770045E+03  0.21739810798E+03  0.47000000000E+01 0.  1.
         13    1    6    6    0    0  0.20605274513E+02 -0.69714930847E+01  0.13182095339E+02  0.25435146768E+02  0.00000000000E+00 0. -1.
        -14    1    6    6    0    0  0.12085581757E+02  0.78778591364E+02  0.68580020017E+02  0.10514440969E+03  0.00000000000E+00 0.  1.
</event>
<event>
12    1  0.1565987E-001  0.2091646E+03  0.7818608E-02  0.1142261E+00
         21   -1    0    0  503  502  0.00000000000E+00  0.00000000000E+00  0.43851361308E+02  0.43851361308E+02  0.00000000000E+00 0.  1.
         21   -1    0    0  501  503 -0.00000000000E+00 -0.00000000000E+00 -0.10104186703E+04  0.10104186703E+04  0.00000000000E+00 0. -1.
          6    2    1    2  501    0 -0.11638254205E+03  0.36120674725E+02 -0.54439755824E+03  0.58319681473E+03  0.17000065901E+03 0.  0.
         24    2    3    3    0    0 -0.50003724649E+02  0.14955570739E+02 -0.12855209346E+03  0.16152911428E+03  0.82716216389E+02 0.  0.
         -6    2    1    2    0  502  0.11638254205E+03 -0.36120674725E+02 -0.42216975080E+03  0.47107321692E+03  0.16980305643E+03 0.  0.
        -24    2    5    5    0    0  0.98595827068E+02 -0.86663852669E+02 -0.29158571105E+03  0.32984552309E+03  0.80895498890E+02 0.  0.
          5    1    3    3  501    0 -0.66378817400E+02  0.21165103986E+02 -0.41584546478E+03  0.42166770045E+03  0.47000000000E+01 0. -1.
        -11    1    4    4    0    0  0.14935566960E+02  0.18936888188E+01  0.19475856759E+01  0.15180589835E+02  0.00000000000E+00 0.  1.
         12    1    4    4    0    0 -0.64939291610E+02  0.13061881920E+02 -0.13049967914E+03  0.14634852445E+03  0.00000000000E+00 0. -1.
         -5    1    5    5    0  502  0.17786714981E+02  0.50543177944E+02 -0.13058403974E+03  0.14122769382E+03  0.47000000000E+01 0.  1.
         13    1    6    6    0    0  0.72630982803E+02 -0.42474007109E+02 -0.25020229167E+03  0.26397061901E+03  0.00000000000E+00 0. -1.
        -14    1    6    6    0    0  0.25964844265E+02 -0.44189845561E+02 -0.41383419379E+02  0.65874904083E+02  0.00000000000E+00 0.  1.
</event>
<event>
12    1  0.1565987E-001  0.1900515E+03  0.7818608E-02  0.1159836E+00
         21   -1    0    0  503  502  0.00000000000E+00  0.00000000000E+00  0.50813428748E+02  0.50813428748E+02  0.00000000000E+00 0.  1.
         21   -1    0    0  501  503 -0.00000000000E+00 -0.00000000000E+00 -0.70832421486E+03  0.70832421486E+03  0.00000000000E+00 0.  1.
          6    2    1    2  501    0 -0.36694566726E+02 -0.71394249341E+02 -0.26952572487E+03  0.32979337756E+03  0.17226701787E+03 0.  0.
         24    2    3    3    0    0 -0.76140752158E+02 -0.11557214869E+02 -0.11465786231E+03  0.15908128925E+03  0.78926851232E+02 0.  0.
         -6    2    1    2    0  502  0.36694566726E+02  0.71394249341E+02 -0.38798506124E+03  0.42934426605E+03  0.16540997847E+03 0.  0.
        -24    2    5    5    0    0 -0.18423119218E+02  0.16195429872E+02 -0.31633239634E+03  0.32332038496E+03  0.62194719111E+02 0.  0.
          5    1    3    3  501    0  0.39446185432E+02 -0.59837034473E+02 -0.15486786256E+03  0.17071208830E+03  0.47000000000E+01 0. -1.
        -11    1    4    4    0    0 -0.64483537127E+02  0.24775490822E+02 -0.90759682500E+02  0.11405819336E+03  0.00000000000E+00 0.  1.
         12    1    4    4    0    0 -0.11657215031E+02 -0.36332705690E+02 -0.23898179812E+02  0.45023095889E+02  0.00000000000E+00 0. -1.
         -5    1    5    5    0  502  0.55117685944E+02  0.55198819469E+02 -0.71652664903E+02  0.10602388109E+03  0.47000000000E+01 0.  1.
         11    1    6    6    0    0 -0.26969269830E+02  0.29186310769E+02 -0.12075373138E+03  0.12712452908E+03  0.00000000000E+00 0. -1.
        -12    1    6    6    0    0  0.85461506115E+01 -0.12990880897E+02 -0.19557866496E+03  0.19619585588E+03  0.00000000000E+00 0.  1.
</event>
<event>
12    1  0.1565987E-001  0.2834811E+03  0.7818608E-02  0.1093838E+00
         21   -1    0    0  503  502  0.00000000000E+00  0.00000000000E+00  0.34678875378E+03  0.34678875378E+03  0.00000000000E+00 0. -1.
         21   -1    0    0  501  503 -0.00000000000E+00 -0.00000000000E+00 -0.59302487628E+03  0.59302487628E+03  0.00000000000E+00 0. -1.
          6    2    1    2  501    0 -0.74577889391E+02  0.21268730386E+03 -0.49002848468E+03  0.56611790114E+03  0.17194130212E+03 0.  0.
         24    2    3    3    0    0  0.85855134319E+01  0.17379227731E+03 -0.31149117452E+03  0.36530297196E+03  0.78371186182E+02 0.  0.
         -6    2    1    2    0  502  0.74577889391E+02 -0.21268730386E+03  0.24379236218E+03  0.37369572892E+03  0.17151102339E+03 0.  0.
        -24    2    5    5    0    0  0.11190733452E+03 -0.12749763143E+03  0.18294696447E+03  0.26245266088E+03  0.81442678346E+02 0.  0.
          5    1    3    3  501    0 -0.83163402823E+02  0.38895026549E+02 -0.17853731016E+03  0.20081492917E+03  0.47000000000E+01 0. -1.
        -11    1    4    4    0    0 -0.22190250390E+02  0.36693914328E+02 -0.12259321914E+03  0.12987666434E+03  0.00000000000E+00 0.  1.
         12    1    4    4    0    0  0.30775763821E+02  0.13709836299E+03 -0.18889795538E+03  0.23542630762E+03  0.00000000000E+00 0. -1.
         -5    1    5    5    0  502 -0.37329445132E+02 -0.85189672433E+02  0.60845397714E+02  0.11124306804E+03  0.47000000000E+01 0.  1.
         11    1    6    6    0    0  0.61379204337E+02 -0.95814650846E+02  0.16450928708E+03  0.20002789700E+03  0.00000000000E+00 0. -1.
        -12    1    6    6    0    0  0.50528130186E+02 -0.31682980584E+02  0.18437677390E+02  0.62424763887E+02  0.00000000000E+00 0.  1.
</event>
<event>
12    1  0.1565987E-001  0.2117491E+03  0.7818608E-02  0.1140338E+00
         21   -1    0    0  503  502  0.00000000000E+00  0.00000000000E+00  0.49165649517E+03  0.49165649517E+03  0.00000000000E+00 0. -1.
         21   -1    0    0  501  503 -0.00000000000E+00 -0.00000000000E+00 -0.12377387647E+03  0.12377387647E+03  0.00000000000E+00 0. -1.
          6    2    1    2  501    0  0.65250088884E+02  0.10454540337E+03  0.25040605053E+02  0.21246842365E+03  0.17125560920E+03 0.  0.
         24    2    3    3    0    0  0.24874339345E+02  0.14973881549E+02  0.65116424499E+02  0.10625439456E+03  0.78783867238E+02 0.  0.
         -6    2    1    2    0  502 -0.65250088884E+02 -0.10454540337E+03  0.34284201365E+03  0.40296194799E+03  0.17219282720E+03 0.  0.
        -24    2    5    5    0    0  0.14520620281E+02 -0.12178485657E+02  0.18908530484E+03  0.20659945403E+03  0.81061198942E+02 0.  0.
          5    1    3    3  501    0  0.40375749538E+02  0.89571521824E+02 -0.40075819446E+02  0.10621402910E+03  0.47000000000E+01 0. -1.
        -13    1    4    4    0    0  0.39249571518E+02 -0.14749101600E+02  0.11826364539E+02  0.43565212734E+02  0.00000000000E+00 0.  1.
         14    1    4    4    0    0 -0.14375232172E+02  0.29722983149E+02  0.53290059959E+02  0.62689181824E+02  0.00000000000E+00 0. -1.
         -5    1    5    5    0  502 -0.79770709164E+02 -0.92366917715E+02  0.15375670881E+03  0.19636249396E+03  0.47000000000E+01 0.  1.
         11    1    6    6    0    0  0.41338367929E+01 -0.12234209951E+02  0.19447099073E+03  0.19489928356E+03  0.00000000000E+00 0. -1.
        -12    1    6    6    0    0  0.10386783488E+02  0.55724294013E-01 -0.53856858898E+01  0.11700170465E+02  0.00000000000E+00 0.  1.
</event>
<event>
12    1  0.1565987E-001  0.2922046E+03  0.7818608E-02  0.1089984E+00
         21   -1    0    0  503  502  0.00000000000E+00  0.00000000000E+00  0.97824062904E+02  0.97824062904E+02  0.00000000000E+00 0.  1.
         21   -1    0    0  501  503 -0.00000000000E+00 -0.00000000000E+00 -0.85661822869E+03  0.85661822869E+03  0.00000000000E+00 0. -1.
          6    2    1    2  501    0  0.92433998535E+01  0.23716466677E+03 -0.35529818628E+03  0.45625302935E+03  0.15999220609E+03 0.  0.
         24    2    3    3    0    0 -0.15603323543E+02  0.23769719200E+03 -0.28432348191E+03  0.38090621848E+03  0.86638825736E+02 0.  0.
         -6    2    1    2    0  502 -0.92433998535E+01 -0.23716466677E+03 -0.40349597951E+03  0.49818926225E+03  0.17044358578E+03 0.  0.
        -24    2    5    5    0    0  0.30061502195E+02 -0.72983799160E+02 -0.22090857170E+03  0.24947158273E+03  0.84883123681E+02 0.  0.
          5    1    3    3  501    0  0.24846723397E+02 -0.53252523026E+00 -0.70974704370E+02  0.75346810862E+02  0.47000000000E+01 0. -1.
        -11    1    4    4    0    0  0.74895333941E+01  0.33114406115E+02 -0.56320334852E+01  0.34414775954E+02  0.00000000000E+00 0.  1.
         12    1    4    4    0    0 -0.23092856937E+02  0.20458278589E+03 -0.27869144842E+03  0.34649144253E+03  0.00000000000E+00 0. -1.
         -5    1    5    5    0  502 -0.39304902049E+02 -0.16418086761E+03 -0.18258740781E+03  0.24871767952E+03  0.47000000000E+01 0.  1.
         13    1    6    6    0    0  0.57675768175E+02 -0.48658161306E+02 -0.11684859704E+03  0.13909602988E+03  0.00000000000E+00 0. -1.
        -14    1    6    6    0    0 -0.27614265980E+02 -0.24325637855E+02 -0.10405997466E+03  0.11037555286E+03  0.00000000000E+00 0.  1.
</event>
<event>
12    1  0.1565987E-001  0.2985514E+03  0.7818608E-02  0.1086053E+00
         21   -1    0    0  501  502  0.00000000000E+00  0.00000000000E+00  0.40769913183E+03  0.40769913183E+03  0.00000000000E+00 0.  1.
         21   -1    0    0  502  503 -0.00000000000E+00 -0.00000000000E+00 -0.23009658281E+03  0.23009658281E+03  0.00000000000E+00 0.  1.
         -6    2    1    2    0  503 -0.76294196613E+02  0.23173718301E+03  0.16160617751E+02  0.29898844073E+03  0.17207555230E+03 0.  0.
        -24    2    3    3    0    0 -0.35254090446E+02  0.18229101281E+03  0.71309142457E+02  0.21417886675E+03  0.79465268639E+02 0.  0.
          6    2    1    2  501    0  0.76294196613E+02 -0.23173718301E+03  0.16144193126E+03  0.33880727391E+03  0.17089161846E+03 0.  0.
         24    2    5    5    0    0 -0.97069211860E+01 -0.11104145024E+03  0.32377563664E+02  0.14222814695E+03  0.82195566585E+02 0.  0.
          5    1    5    5  501    0  0.86001117799E+02 -0.12069573276E+03  0.12906436760E+03  0.19657912695E+03  0.47000000000E+01 0. -1.
        -13    1    6    6    0    0  0.34382739582E+02 -0.53276712410E+02  0.28325160756E+02  0.69447070480E+02  0.00000000000E+00 0.  1.
         14    1    6    6    0    0 -0.44089660768E+02 -0.57764737833E+02  0.40524029082E+01  0.72781076475E+02  0.00000000000E+00 0. -1.
         -5    1    3    3    0  503 -0.41040106167E+02  0.49446170200E+02 -0.55148524707E+02  0.84809573981E+02  0.47000000000E+01 0.  1.
         13    1    4    4    0    0  0.10395257867E+02  0.66360818067E+02 -0.61800652306E+01  0.67453782450E+02  0.00000000000E+00 0. -1.
        -14    1    4    4    0    0 -0.45649348312E+02  0.11593019474E+03  0.77489207688E+02  0.14672508430E+03  0.00000000000E+00 0.  1.
</event>
<event>
12    1  0.1565987E-001  0.2194244E+03  0.7818608E-02  0.1134669E+00
         21   -1    0    0  501  502  0.00000000000E+00  0.00000000000E+00  0.13560589172E+03  0.13560589172E+03  0.00000000000E+00 0.  1.
         21   -1    0    0  502  503 -0.00000000000E+00 -0.00000000000E+00 -0.36584209947E+03  0.36584209947E+03  0.00000000000E+00 0.  1.
         -6    2    1    2    0  503  0.13402484760E+03  0.16530288735E+02 -0.16438309441E+03  0.27416941699E+03  0.17294842371E+03 0.  0.
        -24    2    3    3    0    0  0.16491699304E+03  0.80361101209E+00 -0.15162555829E+03  0.23693371141E+03  0.77129846964E+02 0.  0.
          6    2    1    2  501    0 -0.13402484760E+03 -0.16530288735E+02 -0.65853113345E+02  0.22727857420E+03  0.17053740801E+03 0.  0.
         24    2    5    5    0    0 -0.14994480029E+03  0.10815601923E+02 -0.18478591656E+02  0.17011496746E+03  0.77441742148E+02 0.  0.
          5    1    5    5  501    0  0.15919952688E+02 -0.27345890659E+02 -0.47374521689E+02  0.57163606733E+02  0.47000000000E+01 0. -1.
        -13    1    6    6    0    0 -0.14457646490E+03  0.93014063923E+01 -0.38029834200E+02  0.14978363947E+03  0.00000000000E+00 0.  1.
         14    1    6    6    0    0 -0.53683353888E+01  0.15141955311E+01  0.19551242543E+02  0.20331327993E+02  0.00000000000E+00 0. -1.
         -5    1    3    3    0  503 -0.30892145439E+02  0.15726677723E+02 -0.12757536121E+02  0.37235705578E+02  0.47000000000E+01 0.  1.
         11    1    4    4    0    0  0.27885811549E+01 -0.16237346983E+02 -0.27413930984E+02  0.31983608832E+02  0.00000000000E+00 0. -1.
        -12    1    4    4    0    0  0.16212841188E+03  0.17040957995E+02 -0.12421162730E+03  0.20495010258E+03  0.00000000000E+00 0.  1.
</event>
<event>
12    1  0.1565987E-001  0.1771301E+03  0.7818608E-02  0.1170661E+00
         21   -1    0    0  501  502  0.00000000000E+00  0.00000000000E+00  0.30765052526E+03  0.30765052526E+03  0.00000000000E+00 0. -1.
         21   -1    0    0  502  503 -0.00000000000E+00 -0.00000000000E+00 -0.25121555071E+03  0.25121555071E+03  0.00000000000E+00 0.  1.
         -6    2    1    2    0  503  0.31354468131E+02  0.30430884871E+02 -0.18724490499E+03  0.25761047067E+03  0.17144491456E+03 0.  0.
        -24    2    3    3    0    0 -0.16719121599E+02  0.38509153645E+02 -0.18927381492E+03  0.20859481061E+03  0.76972294084E+02 0.  0.
          6    2    1    2  501    0 -0.31354468131E+02 -0.30430884871E+02  0.24367987954E+03  0.30125560530E+03  0.17165638528E+03 0.  0.
         24    2    5    5    0    0 -0.30963031385E+02  0.31779538178E+02  0.66504675215E+02  0.11341675686E+03  0.80447750441E+02 0.  0.
          5    1    5    5  501    0 -0.39143674583E+00 -0.62210423049E+02  0.17717520432E+03  0.18783884845E+03  0.47000000000E+01 0. -1.
        -13    1    6    6    0    0  0.16374527879E+02 -0.10815387597E+02 -0.21908254359E+01  0.19745822045E+02  0.00000000000E+00 0.  1.
         14    1    6    6    0    0 -0.47337559264E+02  0.42594925775E+02  0.68695500651E+02  0.93670934812E+02  0.00000000000E+00 0. -1.
         -5    1    3    3    0  503  0.48073589729E+02 -0.80782687744E+01  0.20289099346E+01  0.49015660062E+02  0.47000000000E+01 0.  1.
         13    1    4    4    0    0  0.16999767147E+02  0.10894979643E+02 -0.72935390799E+01  0.21468310990E+02  0.00000000000E+00 0. -1.
        -14    1    4    4    0    0 -0.33718888746E+02  0.27614174003E+02 -0.18198027584E+03  0.18712649962E+03  0.00000000000E+00 0.  1.
</event>
<event>
12    1  0.1565987E-001  0.1899016E+03  0.7818608E-02  0.1158707E+00
         21   -1    0    0  503  502  0.00000000000E+00  0.00000000000E+00  0.25849438244E+02  0.25849438244E+02  0.00000000000E+00 0. -1.
         21   -1    0    0  501  503 -0.00000000000E+00 -0.00000000000E+00 -0.13902583262E+04  0.13902583262E+04  0.00000000000E+00 0. -1.
          6    2    1    2  501    0  0.40676791622E+02 -0.69736411106E+02 -0.67391153974E+03  0.70015667356E+03  0.17188611266E+03 0.  0.
         24    2    3    3    0    0 -0.39874604122E+01  0.10039871600E+01 -0.16171562928E+03  0.18115201072E+03  0.81530352657E+02 0.  0.
         -6    2    1    2    0  502 -0.40676791622E+02  0.69736411106E+02 -0.69049734826E+03  0.71595109093E+03  0.17111869634E+03 0.  0.
        -24    2    5    5    0    0 -0.33714477749E+02  0.11272007453E+02 -0.60996546516E+03  0.61608100279E+03  0.78957008235E+02 0.  0.
          5    1    3    3  501    0  0.44664252034E+02 -0.70740398266E+02 -0.51219591046E+03  0.51900466284E+03  0.47000000000E+01 0. -1.
        -13    1    4    4    0    0  0.17631650905E+02 -0.11149649643E+02 -0.15366846998E+03  0.15507800768E+03  0.00000000000E+00 0.  1.
         14    1    4    4    0    0 -0.21619111317E+02  0.12153636803E+02 -0.80471592995E+01  0.26074003039E+02  0.00000000000E+00 0. -1.
         -5    1    5    5    0  502 -0.69623138732E+01  0.58464403653E+02 -0.80531883098E+02  0.99870088136E+02  0.47000000000E+01 0.  1.
         11    1    6    6    0    0  0.17828411981E+02  0.23448363264E+02 -0.31710692899E+03  0.31847210620E+03  0.00000000000E+00 0. -1.
        -12    1    6    6    0    0 -0.51542889730E+02 -0.12176355810E+02 -0.29285853617E+03  0.29760889659E+03  0.00000000000E+00 0.  1.
</event>
<event>
12    1  0.1565987E-001  0.1845876E+03  0.7818608E-02  0.1165225E+00
         21   -1    0    0  501  502  0.00000000000E+00  0.00000000000E+00  0.91599766678E+02  0.91599766678E+02  0.00000000000E+00 0.  1.
         21   -1    0    0  502  503 -0.00000000000E+00 -0.00000000000E+00 -0.60951491136E+03  0.60951491136E+03  0.00000000000E+00 0.  1.
         -6    2    1    2    0  503 -0.54208630667E+02  0.12517435992E+02 -0.48767213001E+03  0.52143714629E+03  0.17600377638E+03 0.  0.
        -24    2    3    3    0    0 -0.96558942351E+02  0.45303232666E+02 -0.33676722003E+03  0.36124089409E+03  0.75543436763E+02 0.  0.
          6    2    1    2  501    0  0.54208630667E+02 -0.12517435992E+02 -0.30243014671E+02  0.17967753175E+03  0.16814908158E+03 0.  0.
         24    2    5    5    0    0 -0.15786938064E+01 -0.30438917644E+01 -0.73573338726E+02  0.10825218194E+03  0.79333102627E+02 0.  0.
          5    1    5    5  501    0  0.55787324474E+02 -0.94735442272E+01  0.43330324055E+02  0.71425349806E+02  0.47000000000E+01 0. -1.
        -11    1    6    6    0    0 -0.30391535034E+02 -0.15292325526E+02 -0.70715950300E+01  0.34749216940E+02  0.00000000000E+00 0.  1.
         12    1    6    6    0    0  0.28812841227E+02  0.12248433762E+02 -0.66501743696E+02  0.73502965000E+02  0.00000000000E+00 0. -1.
         -5    1    3    3    0  503  0.42350311683E+02 -0.32785796674E+02 -0.15090490999E+03  0.16019625221E+03  0.47000000000E+01 0.  1.
         13    1    4    4    0    0 -0.53931878767E+02  0.32942509091E+02 -0.86828101125E+02  0.10739169240E+03  0.00000000000E+00 0. -1.
        -14    1    4    4    0    0 -0.42627063584E+02  0.12360723574E+02 -0.24993911890E+03  0.25384920168E+03  0.00000000000E+00 0.  1.
</event>
<event>
12    1  0.1565987E-001  0.2361694E+03  0.7818608E-02  0.1122413E+00
         21   -1    0    0  503  502  0.00000000000E+00  0.00000000000E+00  0.91751492552E+02  0.91751492552E+02  0.00000000000E+00 0.  1.
         21   -1    0    0  501  503 -0.00000000000E+00 -0.00000000000E+00 -0.68955052165E+03  0.68955052165E+03  0.00000000000E+00 0. -1.
          6    2    1    2  501    0 -0.12298170480E+03 -0.10541278126E+03 -0.16381359297E+03  0.28721768052E+03  0.17153060540E+03 0.  0.
         24    2    3    3    0    0 -0.21954288082E+02 -0.97765441868E+02 -0.11672479874E+03  0.17539431413E+03  0.84252088388E+02 0.  0.
         -6    2    1    2    0  502  0.12298170480E+03  0.10541278126E+03 -0.43398543613E+03  0.49408433368E+03  0.17187092788E+03 0.  0.
        -24    2    5    5    0    0  0.14218748521E+03  0.10686950486E+03 -0.43264661823E+03  0.47421308616E+03  0.77824050277E+02 0.  0.
          5    1    3    3  501    0 -0.10102741672E+03 -0.76473393958E+01 -0.47088794225E+02  0.11182336639E+03  0.47000000000E+01 0. -1.
        -13    1    4    4    0    0  0.63814137004E+01 -0.10660198755E+02  0.12087913191E+02  0.17334356741E+02  0.00000000000E+00 0.  1.
         14    1    4    4    0    0 -0.28335701782E+02 -0.87105243113E+02 -0.12881271193E+03  0.15805995739E+03  0.00000000000E+00 0. -1.
         -5    1    5    5    0  502 -0.19205780405E+02 -0.14567235967E+01 -0.13388178931E+01  0.19871247519E+02  0.47000000000E+01 0.  1.
         13    1    6    6    0    0  0.42654884226E+02 -0.25139484851E+01 -0.13913485077E+03  0.14554815624E+03  0.00000000000E+00 0. -1.
        -14    1    6    6    0    0  0.99532600981E+02  0.10938345335E+03 -0.29351176746E+03  0.32866492992E+03  0.00000000000E+00 0.  1.
</event>
<event>
12    1  0.1565987E-001  0.2198846E+03  0.7818608E-02  0.1133980E+00
         21   -1    0    0  503  502  0.00000000000E+00  0.00000000000E+00  0.10797274603E+03  0.10797274603E+03  0.00000000000E+00 0. -1.
         21   -1    0    0  501  503 -0.00000000000E+00 -0.00000000000E+00 -0.44774562995E+03  0.44774562995E+03  0.00000000000E+00 0. -1.
          6    2    1    2  501    0 -0.10934381560E+03 -0.82019035327E+02 -0.17341215630E+03  0.27999180991E+03  0.17216400756E+03 0.  0.
         24    2    3    3    0    0 -0.25809272700E+02 -0.73689385507E+02 -0.32288466096E+02  0.11571950896E+03  0.79070953060E+02 0.  0.
         -6    2    1    2    0  502  0.10934381560E+03  0.82019035327E+02 -0.16636072762E+03  0.27572656607E+03  0.17223836790E+03 0.  0.
        -24    2    5    5    0    0  0.11281686618E+03  0.11512272915E+03 -0.11275018410E+03  0.21244863151E+03  0.80255398307E+02 0.  0.
          5    1    3    3  501    0 -0.83534542899E+02 -0.83296498199E+01 -0.14112369020E+03  0.16427230095E+03  0.47000000000E+01 0. -1.
        -13    1    4    4    0    0 -0.29508019476E+02  0.25153943876E+01 -0.25575964924E+02  0.39130300332E+02  0.00000000000E+00 0.  1.
         14    1    4    4    0    0  0.36987467761E+01 -0.76204779895E+02 -0.67125011727E+01  0.76589208630E+02  0.00000000000E+00 0. -1.
         -5    1    5    5    0  502 -0.34730505784E+01 -0.33103693820E+02 -0.53610543523E+02  0.63277934556E+02  0.47000000000E+01 0.  1.
         11    1    6    6    0    0  0.15009891300E+01  0.43048131667E+02 -0.88324076829E+01  0.43970513231E+02  0.00000000000E+00 0. -1.
        -12    1    6    6    0    0  0.11131587705E+03  0.72074597480E+02 -0.10391777641E+03  0.16847811828E+03  0.00000000000E+00 0.  1.
</event>
<event>
12    1  0.1565987E-001  0.2401757E+03  0.7818608E-02  0.1120501E+00
         21   -1    0    0  501  502  0.00000000000E+00  0.00000000000E+00  0.74730947928E+03  0.74730947928E+03  0.00000000000E+00 0. -1.
         21   -1    0    0  502  503 -0.00000000000E+00 -0.00000000000E+00 -0.76963495654E+02  0.76963495654E+02  0.00000000000E+00 0.  1.
         -6    2    1    2    0  503 -0.16053581992E+03  0.82486770550E+01  0.28412675990E+03  0.37203814415E+03  0.17845048294E+03 0.  0.
        -24    2    3    3    0    0 -0.13757453945E+03  0.27601255059E+02  0.29768852207E+03  0.33875520454E+03  0.80299746236E+02 0.  0.
          6    2    1    2  501    0  0.16053581992E+03 -0.82486770550E+01  0.38621922373E+03  0.45223483079E+03  0.17178842583E+03 0.  0.
         24    2    5    5    0    0  0.14138105685E+03 -0.12498100535E+02  0.16977459169E+03  0.23485191681E+03  0.78658789064E+02 0.  0.
          5    1    5    5  501    0  0.19154763070E+02  0.42494234799E+01  0.21644463204E+03  0.21738291397E+03  0.47000000000E+01 0. -1.
        -13    1    6    6    0    0  0.60638412137E+02 -0.44628004469E+02  0.82500079668E+02  0.11169126624E+03  0.00000000000E+00 0.  1.
         14    1    6    6    0    0  0.80742644709E+02  0.32129903934E+02  0.87274512020E+02  0.12316065057E+03  0.00000000000E+00 0. -1.
         -5    1    3    3    0  503 -0.22961280464E+02 -0.19352578004E+02 -0.13561762167E+02  0.33282939609E+02  0.47000000000E+01 0.  1.
         11    1    4    4    0    0 -0.10674049604E+03 -0.21056376749E+01  0.14428502264E+03  0.17948853714E+03  0.00000000000E+00 0. -1.
        -12    1    4    4    0    0 -0.30834043409E+02  0.29706892734E+02  0.15340349943E+03  0.15926666740E+03  0.00000000000E+00 0.  1.
</event>
<event>
12    1  0.1565987E-001  0.2121177E+03  0.7818608E-02  0.1139940E+00
         21   -1    0    0  503  502  0.00000000000E+00  0.00000000000E+00  0.20343104099E+03  0.20343104099E+03  0.00000000000E+00 0. -1.
         21   -1    0    0  501  503 -0.00000000000E+00 -0.00000000000E+00 -0.72181949813E+03  0.72181949813E+03  0.00000000000E+00 0.  1.
          6    2    1    2  501    0 -0.11329411256E+03  0.50713010033E+02 -0.64452096442E+03  0.67846451067E+03  0.17175404900E+03 0.  0.
         24    2    3    3    0    0 -0.25851926147E+02  0.83002899455E+02 -0.37179807891E+03  0.39021351727E+03  0.80467224205E+02 0.  0.
         -6    2    1    2    0  502  0.11329411256E+03 -0.50713010033E+02  0.12613250728E+03  0.24678602845E+03  0.17200746821E+03 0.  0.
        -24    2    5    5    0    0  0.23666551451E+02 -0.76953661646E+02  0.43646450918E+02  0.12209556770E+03  0.80748642570E+02 0.  0.
          5    1    3    3  501    0 -0.87442186414E+02 -0.32289889422E+02 -0.27272288550E+03  0.28825099341E+03  0.47000000000E+01 0. -1.
        -13    1    4    4    0    0 -0.40739704177E+02  0.56014876832E+02 -0.33559061007E+03  0.34266375281E+03  0.00000000000E+00 0.  1.
         14    1    4    4    0    0  0.14887778031E+02  0.26988022623E+02 -0.36207468839E+02  0.47549764453E+02  0.00000000000E+00 0. -1.
         -5    1    5    5    0  502  0.89627561110E+02  0.26240651613E+02  0.82486056358E+02  0.12469046075E+03  0.47000000000E+01 0.  1.
         11    1    6    6    0    0  0.14853027756E+01 -0.19692549478E+02  0.56068316975E+02  0.59444585941E+02  0.00000000000E+00 0. -1.
        -12    1    6    6    0    0  0.22181248675E+02 -0.57261112168E+02 -0.12421866057E+02  0.62650981763E+02  0.00000000000E+00 0.  1.
</event>
<event>
12    1  0.1565987E-001  0.1872327E+03  0.7818608E-02  0.1161076E+00
         21   -1    0    0  503  502  0.00000000000E+00  0.00000000000E+00  0.61258272691E+03  0.61258272691E+03  0.00000000000E+00 0.  1.
         21   -1    0    0  501  503 -0.00000000000E+00 -0.00000000000E+00 -0.75782104535E+02  0.75782104535E+02  0.00000000000E+00 0.  1.
          6    2    1    2  501    0  0.65298443491E+02  0.29841468053E+02  0.97291360118E+02  0.21063636444E+03  0.17247512671E+03 0.  0.
         24    2    3    3    0    0  0.11175317385E+03  0.29337761446E+02  0.74257324426E+02  0.15856955646E+03  0.79250728019E+02 0.  0.
         -6    2    1    2    0  502 -0.65298443491E+02 -0.29841468053E+02  0.43950926226E+03  0.47772846701E+03  0.17292107055E+03 0.  0.
        -24    2    5    5    0    0 -0.22222967002E+01  0.87000936882E+01  0.88660225802E+02  0.11914627468E+03  0.79085832468E+02 0.  0.
          5    1    3    3  501    0 -0.46454730360E+02  0.50370660709E+00  0.23034035692E+02  0.52066807982E+02  0.47000000000E+01 0. -1.
        -11    1    4    4    0    0  0.63067440273E+02  0.56177020094E+02  0.46945795697E+02  0.96629536596E+02  0.00000000000E+00 0.  1.
         12    1    4    4    0    0  0.48685733579E+02 -0.26839258648E+02  0.27311528730E+02  0.61940019861E+02  0.00000000000E+00 0. -1.
         -5    1    5    5    0  502 -0.63076146791E+02 -0.38541561741E+02  0.35084903646E+03  0.35858219233E+03  0.47000000000E+01 0.  1.
         11    1    6    6    0    0 -0.24912959571E+02  0.20541732304E+02  0.62970457252E+01  0.32897889074E+02  0.00000000000E+00 0. -1.
        -12    1    6    6    0    0  0.22690662871E+02 -0.11841638616E+02  0.82363180077E+02  0.86248385603E+02  0.00000000000E+00 0.  1.
</event>
<event>
12    1  0.1565987E-001  0.1874009E+03  0.7818608E-02  0.1161780E+00
         21   -1    0    0  501  502  0.00000000000E+00  0.00000000000E+00  0.70647171270E+03  0.70647171270E+03  0.00000000000E+00 0. -1.
         21   -1    0    0  502  503 -0.00000000000E+00 -0.00000000000E+00 -0.54820232948E+02  0.54820232948E+02  0.00000000000E+00 0. -1.
         -6    2    1    2    0  503  0.28952320889E+02  0.56203560907E+02  0.19469845182E+03  0.26740412666E+03  0.17204767557E+03 0.  0.
        -24    2    3    3    0    0  0.33606609624E+02  0.89289672026E+02  0.79863249555E+02  0.14771466667E+03  0.79620565049E+02 0.  0.
          6    2    1    2  501    0 -0.28952320889E+02 -0.56203560907E+02  0.45695302793E+03  0.49388781899E+03  0.17641437263E+03 0.  0.
         24    2    5    5    0    0 -0.28535687215E+02 -0.46034215163E+02  0.11030585292E+03  0.14705941312E+03  0.80781528759E+02 0.  0.
          5    1    5    5  501    0 -0.41663367409E+00 -0.10169345744E+02  0.34664717501E+03  0.34682840587E+03  0.47000000000E+01 0. -1.
        -13    1    6    6    0    0  0.17355581851E+02 -0.34451001730E+02  0.16434085015E+02  0.41930500734E+02  0.00000000000E+00 0.  1.
         14    1    6    6    0    0 -0.45891269066E+02 -0.11583213433E+02  0.93871767907E+02  0.10512891239E+03  0.00000000000E+00 0. -1.
         -5    1    3    3    0  503 -0.46542887341E+01 -0.33086111118E+02  0.11483520227E+03  0.11968945999E+03  0.47000000000E+01 0.  1.
         13    1    4    4    0    0 -0.25067848327E+02  0.41966101601E+02  0.31571869581E+02  0.58192212986E+02  0.00000000000E+00 0. -1.
        -14    1    4    4    0    0  0.58674457951E+02  0.47323570424E+02  0.48291379974E+02  0.89522453683E+02  0.00000000000E+00 0.  1.
</event>
<event>
12    1  0.1565987E-001  0.1913604E+03  0.7818608E-02  0.1161685E+00
         21   -1    0    0  503  502  0.00000000000E+00  0.00000000000E+00  0.32535894775E+03  0.32535894775E+03  0.00000000000E+00 0.  1.
         21   -1    0    0  501  503 -0.00000000000E+00 -0.00000000000E+00 -0.10562202862E+03  0.10562202862E+03  0.00000000000E+00 0.  1.
          6    2    1    2  501    0  0.75129754511E+02 -0.21174458787E+01  0.74132514977E+02  0.20521798111E+03  0.17598246050E+03 0.  0.
         24    2    3    3    0    0 -0.87386770506E+01  0.39218552632E+00 -0.17558454925E+02  0.80841391573E+02  0.78425206190E+02 0.  0.
         -6    2    1    2    0  502 -0.75129754511E+02  0.21174458787E+01  0.14560440416E+03  0.22576299526E+03  0.15530397267E+03 0.  0.
        -24    2    5    5    0    0 -0.81917484216E+02 -0.45332017398E+02  0.94631914861E+02  0.15563589989E+03  0.80634161513E+02 0.  0.
          5    1    3    3  501    0  0.83868431561E+02 -0.25096314051E+01  0.91690969902E+02  0.12437658953E+03  0.47000000000E+01 0. -1.
        -11    1    4    4    0    0  0.48014248274E+01  0.39256832921E+00 -0.47624292215E+02  0.47867327053E+02  0.00000000000E+00 0.  1.
         12    1    4    4    0    0 -0.13540101878E+02 -0.38280289245E-03  0.30065837290E+02  0.32974064520E+02  0.00000000000E+00 0. -1.
         -5    1    5    5    0  502  0.67877297056E+01  0.47449463276E+02  0.50972489295E+02  0.70127095368E+02  0.47000000000E+01 0.  1.
         11    1    6    6    0    0 -0.13682827572E+02 -0.48018044639E+02  0.62977055423E+02  0.80368289089E+02  0.00000000000E+00 0. -1.
        -12    1    6    6    0    0 -0.68234656645E+02  0.26860272417E+01  0.31654859438E+02  0.75267610802E+02  0.00000000000E+00 0.  1.
</event>
<event>
12    1  0.1565987E-001  0.2196939E+03  0.7818608E-02  0.1134591E+00
         21   -1    0    0  501  502  0.00000000000E+00  0.00000000000E+00  0.16016494762E+03  0.16016494762E+03  0.00000000000E+00 0. -1.
         21   -1    0    0  502  503 -0.00000000000E+00 -0.00000000000E+00 -0.92456931566E+03  0.92456931566E+03  0.00000000000E+00 0.  1.
         -6    2    1    2    0  503  0.10932554579E+03 -0.68621227377E+02 -0.82801739134E+03  0.85601606240E+03  0.17461314644E+03 0.  0.
        -24    2    3    3    0    0  0.13079678150E+03 -0.71270812369E+02 -0.54273202763E+03  0.56987298104E+03  0.89497675678E+02 0.  0.
          6    2    1    2  501    0 -0.10932554579E+03  0.68621227377E+02  0.63613023304E+02  0.22871820088E+03  0.17777640696E+03 0.  0.
         24    2    5    5    0    0 -0.61762486572E+02  0.67602396532E+02 -0.28092634165E+02  0.12530011624E+03  0.80785111694E+02 0.  0.
          5    1    5    5  501    0 -0.47563059214E+02  0.10188308449E+01  0.91705657469E+02  0.10341808464E+03  0.47000000000E+01 0. -1.
        -11    1    6    6    0    0 -0.52279998478E+02  0.72835894922E+00 -0.36252996831E+00  0.52286328764E+02  0.00000000000E+00 0.  1.
         12    1    6    6    0    0 -0.94824880940E+01  0.66874037583E+02 -0.27730104197E+02  0.73013787477E+02  0.00000000000E+00 0. -1.
         -5    1    3    3    0  503 -0.21471235714E+02  0.26495849920E+01 -0.28528536371E+03  0.28614308136E+03  0.47000000000E+01 0.  1.
         13    1    4    4    0    0 -0.67982843490E+01  0.51245416287E+01 -0.56756522388E+01  0.10231843692E+02  0.00000000000E+00 0. -1.
        -14    1    4    4    0    0  0.13759506585E+03 -0.76395353998E+02 -0.53705637539E+03  0.55964113735E+03  0.00000000000E+00 0.  1.
</event>
<event>
12    1  0.1565987E-001  0.2091426E+03  0.7818608E-02  0.1142290E+00
         21   -1    0    0  501  502  0.00000000000E+00  0.00000000000E+00  0.28062402988E+03  0.28062402988E+03  0.00000000000E+00 0. -1.
         21   -1    0    0  502  503 -0.00000000000E+00 -0.00000000000E+00 -0.88880129662E+03  0.88880129662E+03  0.00000000000E+00 0.  1.
         -6    2    1    2    0  503  0.40605186718E+02 -0.11098790916E+03 -0.83509194741E+03  0.86083025855E+03  0.17228777159E+03 0.  0.
        -24    2    3    3    0    0 -0.30230496125E+02 -0.10801523612E+03 -0.57838947364E+03  0.59447564382E+03  0.79282619456E+02 0.  0.
          6    2    1    2  501    0 -0.40605186718E+02  0.11098790916E+03  0.22691468068E+03  0.30859506795E+03  0.17255012746E+03 0.  0.
         24    2    5    5    0    0  0.43502051802E+02  0.39736382400E+02  0.10947105205E+03  0.14745567629E+03  0.79296006442E+02 0.  0.
          5    1    5    5  501    0 -0.84107238520E+02  0.71251526757E+02  0.11744362863E+03  0.16113939165E+03  0.47000000000E+01 0. -1.
        -13    1    6    6    0    0  0.52495471228E+02  0.58118212224E+02  0.86008978066E+02  0.11632302180E+03  0.00000000000E+00 0.  1.
         14    1    6    6    0    0 -0.89934194255E+01 -0.18381829824E+02  0.23462073981E+02  0.31132654498E+02  0.00000000000E+00 0. -1.
         -5    1    3    3    0  503  0.70835682844E+02 -0.29726730416E+01 -0.25670247377E+03  0.26635461473E+03  0.47000000000E+01 0.  1.
         11    1    4    4    0    0 -0.52495009526E+02 -0.73630838659E+02 -0.46964883474E+03  0.47827529144E+03  0.00000000000E+00 0. -1.
        -12    1    4    4    0    0  0.22264513400E+02 -0.34384397457E+02 -0.10874063891E+03  0.11620035239E+03  0.00000000000E+00 0.  1.
</event>
<event>
12    1  0.1565987E-001  0.2884317E+03  0.7818608E-02  0.1091544E+00
         21   -1    0    0  503  502  0.00000000000E+00  0.00000000000E+00  0.27182475719E+03  0.27182475719E+03  0.00000000000E+00 0.  1.
         21   -1    0    0  501  503 -0.00000000000E+00 -0.00000000000E+00 -0.55105683489E+03  0.55105683489E+03  0.00000000000E+00 0. -1.
          6    2    1    2  501    0  0.11803149069E+03  0.19706340580E+03 -0.41524866132E+03  0.50398765371E+03  0.16972532415E+03 0.  0.
         24    2    3    3    0    0  0.15465465228E+02  0.57789320487E+02 -0.87674480640E+02  0.13352308824E+03  0.81011198978E+02 0.  0.
         -6    2    1    2    0  502 -0.11803149069E+03 -0.19706340580E+03  0.13601658362E+03  0.31889393837E+03  0.17443455566E+03 0.  0.
        -24    2    5    5    0    0 -0.10161665761E+03 -0.48994523244E+02  0.48227957067E+02  0.14591193445E+03  0.78980683467E+02 0.  0.
          5    1    3    3  501    0  0.10256602547E+03  0.13927408531E+03 -0.32757418068E+03  0.37046456547E+03  0.47000000000E+01 0. -1.
        -13    1    4    4    0    0  0.36829137063E+02  0.64113567778E+02 -0.82237761735E+02  0.11058925972E+03  0.00000000000E+00 0.  1.
         14    1    4    4    0    0 -0.21363671835E+02 -0.63242472909E+01 -0.54367189046E+01  0.22933828518E+02  0.00000000000E+00 0. -1.
         -5    1    5    5    0  502 -0.16414833083E+02 -0.14806888255E+03  0.87788626556E+02  0.17298200391E+03  0.47000000000E+01 0.  1.
         13    1    6    6    0    0 -0.94296195787E+02 -0.16401568343E+02  0.56967624142E+02  0.11138264759E+03  0.00000000000E+00 0. -1.
        -14    1    6    6    0    0 -0.73204618223E+01 -0.32592954901E+02 -0.87396670754E+01  0.34529286860E+02  0.00000000000E+00 0.  1.
</event>
<event>
12    1  0.1565987E-001  0.1931069E+03  0.7818608E-02  0.1157539E+00
         21   -1    0    0  503  502  0.00000000000E+00  0.00000000000E+00  0.70049654457E+02  0.70049654457E+02  0.00000000000E+00 0. -1.
         21   -1    0    0  501  503 -0.00000000000E+00 -0.00000000000E+00 -0.67018650662E+03  0.67018650662E+03  0.00000000000E+00 0. -1.
          6    2    1    2  501    0 -0.11386267876E+02 -0.84748444892E+02 -0.47603518715E+03  0.51068989462E+03  0.16395951652E+03 0.  0.
         24    2    3    3    0    0 -0.25795379412E+01 -0.56672963216E+02 -0.13124027171E+03  0.16460982459E+03  0.81571481882E+02 0.  0.
         -6    2    1    2    0  502  0.11386267876E+02  0.84748444892E+02 -0.12410166501E+03  0.22954626645E+03  0.17314248230E+03 0.  0.
        -24    2    5    5    0    0 -0.49359079148E+02  0.86609288090E+02 -0.10124469524E+03  0.16444641246E+03  0.82792794247E+02 0.  0.
          5    1    3    3  501    0 -0.88067299351E+01 -0.28075481677E+02 -0.34479491544E+03  0.34608007003E+03  0.47000000000E+01 0. -1.
        -13    1    4    4    0    0 -0.26692494134E+02 -0.99386627187E+01 -0.64678283651E+01  0.29207859618E+02  0.00000000000E+00 0.  1.
         14    1    4    4    0    0  0.24112956192E+02 -0.46734300497E+02 -0.12477244334E+03  0.13540196497E+03  0.00000000000E+00 0. -1.
         -5    1    5    5    0  502  0.60745347025E+02 -0.18608431979E+01 -0.22856969775E+02  0.65099853993E+02  0.47000000000E+01 0.  1.
         13    1    6    6    0    0 -0.38923294222E+02  0.97483179933E+02 -0.60843701987E+02  0.12132579806E+03  0.00000000000E+00 0. -1.
        -14    1    6    6    0    0 -0.10435784926E+02 -0.10873891842E+02 -0.40400993249E+02  0.43120614401E+02  0.00000000000E+00 0.  1.
</event>
<event>
12    1  0.1565987E-001  0.2231333E+03  0.7818608E-02  0.1132050E+00
         21   -1    0    0  501  502  0.00000000000E+00  0.00000000000E+00  0.58039389316E+02  0.58039389316E+02  0.00000000000E+00 0.  1.
         21   -1    0    0  502  503 -0.00000000000E+00 -0.00000000000E+00 -0.13793235816E+04  0.13793235816E+04  0.00000000000E+00 0. -1.
         -6    2    1    2    0  503  0.10742643406E+03 -0.85966062540E+02 -0.11091545259E+04  0.11313762553E+04  0.17566407153E+03 0.  0.
        -24    2    3    3    0    0  0.99030178756E+02 -0.11789687761E+03 -0.71403700351E+03  0.73485384663E+03  0.80341044770E+02 0.  0.
          6    2    1    2  501    0 -0.10742643406E+03  0.85966062540E+02 -0.21212966636E+03  0.30598671562E+03  0.17233186630E+03 0.  0.
         24    2    5    5    0    0 -0.11199581227E+03  0.10562289562E+03 -0.22322373045E+03  0.28248270401E+03  0.79173140544E+02 0.  0.
          5    1    5    5  501    0  0.45693782067E+01 -0.19656833080E+02  0.11094064088E+02  0.23504011614E+02  0.47000000000E+01 0. -1.
        -11    1    6    6    0    0 -0.12000737511E+02  0.62722092412E+02 -0.72960288643E+02  0.96960209861E+02  0.00000000000E+00 0.  1.
         12    1    6    6    0    0 -0.99995074755E+02  0.42900803208E+02 -0.15026344181E+03  0.18552249415E+03  0.00000000000E+00 0. -1.
         -5    1    3    3    0  503  0.83962553036E+01  0.31930815065E+02 -0.39511752242E+03  0.39652240867E+03  0.47000000000E+01 0.  1.
         13    1    4    4    0    0 -0.25814275487E+01  0.24137688371E+01 -0.12735354030E+03  0.12740256778E+03  0.00000000000E+00 0. -1.
        -14    1    4    4    0    0  0.10161160631E+03 -0.12031064644E+03 -0.58668346321E+03  0.60745127886E+03  0.00000000000E+00 0.  1.
</event>
<event>
12    1  0.1565987E-001  0.2049308E+03  0.7818608E-02  0.1145851E+00
         21   -1    0    0  501  502  0.00000000000E+00  0.00000000000E+00  0.41603749280E+03  0.41603749280E+03  0.00000000000E+00 0.  1.
         21   -1    0    0  502  503 -0.00000000000E+00 -0.00000000000E+00 -0.10239556356E+03  0.10239556356E+03  0.00000000000E+00 0.  1.
         -6    2    1    2    0  503 -0.39547838634E+01  0.11093639263E+03  0.12145593232E+03  0.23821877175E+03  0.17226176649E+03 0.  0.
        -24    2    3    3    0    0 -0.67977703333E+02  0.10123903802E+03  0.73580833053E+02  0.15755224813E+03  0.67366615832E+02 0.  0.
          6    2    1    2  501    0  0.39547838634E+01 -0.11093639263E+03  0.19218599693E+03  0.28021428461E+03  0.17106158060E+03 0.  0.
         24    2    5    5    0    0  0.56071116728E+02 -0.41173303676E+02  0.15123224932E+03  0.18386959002E+03  0.78087270624E+02 0.  0.
          5    1    5    5  501    0 -0.52116332864E+02 -0.69763088952E+02  0.40953747607E+02  0.96344694584E+02  0.47000000000E+01 0. -1.
        -11    1    6    6    0    0 -0.74492677577E+01 -0.40363518708E+02  0.60514912440E+02  0.73121541697E+02  0.00000000000E+00 0.  1.
         12    1    6    6    0    0  0.63520384485E+02 -0.80978496816E+00  0.90717336882E+02  0.11074804832E+03  0.00000000000E+00 0. -1.
         -5    1    3    3    0  503  0.64022919469E+02  0.96973546106E+01  0.47875099264E+02  0.80666523622E+02  0.47000000000E+01 0.  1.
         11    1    4    4    0    0 -0.68717163835E+02  0.47436325450E+02  0.31501882304E+02  0.89244731869E+02  0.00000000000E+00 0. -1.
        -12    1    4    4    0    0  0.73946050195E+00  0.53802712568E+02  0.42078950750E+02  0.68307516261E+02  0.00000000000E+00 0.  1.
</event>
<event>
12    1  0.1565987E-001  0.1886307E+03  0.7818608E-02  0.1159908E+00
         21   -1    0    0  503  502  0.00000000000E+00  0.00000000000E+00  0.40327684563E+03  0.40327684563E+03  0.00000000000E+00 0.  1.
         21   -1    0    0  501  503 -0.00000000000E+00 -0.00000000000E+00 -0.15942855509E+03  0.15942855509E+03  0.00000000000E+00 0.  1.
          6    2    1    2  501    0 -0.54611372860E+02  0.55309667666E+02 -0.66488390442E+02  0.20000565314E+03  0.17187202751E+03 0.  0.
         24    2    3    3    0    0  0.32193194993E+01  0.90093285871E+02 -0.55157972587E+02  0.13141441869E+03  0.78103670358E+02 0.  0.
         -6    2    1    2    0  502  0.54611372860E+02 -0.55309667666E+02  0.31033668098E+03  0.36269974758E+03  0.17088209370E+03 0.  0.
        -24    2    5    5    0    0  0.28157849777E+02 -0.96438623267E+02  0.25630552129E+03  0.28967347772E+03  0.90138398518E+02 0.  0.
          5    1    3    3  501    0 -0.57830692359E+02 -0.34783618206E+02 -0.11330417855E+02  0.68591234447E+02  0.47000000000E+01 0. -1.
        -11    1    4    4    0    0  0.28691905246E+01  0.49925846444E+02 -0.72160716596E+02  0.87795167390E+02  0.00000000000E+00 0.  1.
         12    1    4    4    0    0  0.35012897472E+00  0.40167439427E+02  0.17002744009E+02  0.43619251303E+02  0.00000000000E+00 0. -1.
         -5    1    5    5    0  502  0.26453523083E+02  0.41128955601E+02  0.54031159690E+02  0.73026269860E+02  0.47000000000E+01 0.  1.
         11    1    6    6    0    0 -0.48624012135E+01 -0.26934004975E+02  0.62882880278E+01  0.28082488064E+02  0.00000000000E+00 0. -1.
        -12    1    6    6    0    0  0.33020250990E+02 -0.69504618291E+02  0.25001723327E+03  0.26159098966E+03  0.00000000000E+00 0.  1.
</event>
<event>
12    1  0.1565987E-001  0.1784043E+03  0.7818608E-02  0.1169369E+00
         21   -1    0    0  503  502  0.00000000000E+00  0.00000000000E+00  0.17033590795E+03  0.17033590795E+03  0.00000000000E+00 0.  1.
         21   -1    0    0  501  503 -0.00000000000E+00 -0.00000000000E+00 -0.18751372906E+03  0.18751372906E+03  0.00000000000E+00 0.  1.
          6    2    1    2  501    0 -0.31874389076E+02 -0.35414303645E+02 -0.19629296533E+02  0.17948088641E+03  0.17192419761E+03 0.  0.
         24    2    3    3    0    0  0.31246544246E+02 -0.55139831187E+02 -0.41751997723E+02  0.10958916610E+03  0.79055730358E+02 0.  0.
         -6    2    1    2    0  502  0.31874389076E+02  0.35414303645E+02  0.24514754238E+01  0.17836875060E+03  0.17186986902E+03 0.  0.
        -24    2    5    5    0    0  0.86505713863E+02  0.19778710176E+02  0.11283120479E+02  0.12067003844E+03  0.80990823318E+02 0.  0.
          5    1    3    3  501    0 -0.63120933322E+02  0.19725527541E+02  0.22122701190E+02  0.69891720312E+02  0.47000000000E+01 0. -1.
        -11    1    4    4    0    0 -0.17945575022E+01 -0.52885524311E+02 -0.52726141969E+02  0.74700369244E+02  0.00000000000E+00 0.  1.
         12    1    4    4    0    0  0.33041101748E+02 -0.22543068758E+01  0.10974144246E+02  0.34888796858E+02  0.00000000000E+00 0. -1.
         -5    1    5    5    0  502 -0.54631324787E+02  0.15635593469E+02 -0.88316450552E+01  0.57698712165E+02  0.47000000000E+01 0.  1.
         11    1    6    6    0    0 -0.13339317848E+02  0.65100548506E+01  0.13295545808E+02  0.19927111008E+02  0.00000000000E+00 0. -1.
        -12    1    6    6    0    0  0.99845031711E+02  0.13268655326E+02 -0.20124253288E+01  0.10074292743E+03  0.00000000000E+00 0.  1.
</event>
<event>
12    1  0.1565987E-001  0.3705468E+03  0.7818608E-02  0.1054580E+00
         21   -1    0    0  501  502  0.00000000000E+00  0.00000000000E+00  0.58294064109E+03  0.58294064109E+03  0.00000000000E+00 0.  1.
         21   -1    0    0  502  503 -0.00000000000E+00 -0.00000000000E+00 -0.22261779304E+04  0.22261779304E+04  0.00000000000E+00 0. -1.
         -6    2    1    2    0  503 -0.32686148964E+03  0.13448454282E+02 -0.21501273840E+04  0.21818232516E+04  0.17402769725E+03 0.  0.
        -24    2    3    3    0    0 -0.17522542384E+03 -0.52563032126E+02 -0.98053620548E+03  0.10005880389E+04  0.79109745631E+02 0.  0.
          6    2    1    2  501    0  0.32686148964E+03 -0.13448454282E+02  0.50689009473E+03  0.62729531986E+03  0.17187948059E+03 0.  0.
         24    2    5    5    0    0  0.28093838942E+03 -0.32852333134E+02  0.49574094359E+03  0.57599390449E+03  0.77487033824E+02 0.  0.
          5    1    5    5  501    0  0.45923100213E+02  0.19403878853E+02  0.11149151138E+02  0.51301415369E+02  0.47000000000E+01 0. -1.
        -13    1    6    6    0    0  0.23267301713E+03 -0.34468247095E+02  0.34378576280E+03  0.41654944924E+03  0.00000000000E+00 0.  1.
         14    1    6    6    0    0  0.48265372298E+02  0.16159139608E+01  0.15195518079E+03  0.15944445525E+03  0.00000000000E+00 0. -1.
         -5    1    3    3    0  503 -0.15163606580E+03  0.66011486408E+02 -0.11695911785E+04  0.11812352127E+04  0.47000000000E+01 0.  1.
         13    1    4    4    0    0 -0.16916194472E+03 -0.58238789753E+02 -0.97319592177E+03  0.98950382633E+03  0.00000000000E+00 0. -1.
        -14    1    4    4    0    0 -0.60634791175E+01  0.56757576271E+01 -0.73402837127E+01  0.11084212585E+02  0.00000000000E+00 0.  1.
</event>
<event>
12    1  0.1565987E-001  0.1787182E+03  0.7818608E-02  0.1169225E+00
         21   -1    0    0  503  502  0.00000000000E+00  0.00000000000E+00  0.98187697751E+03  0.98187697751E+03  0.00000000000E+00 0. -1.
         21   -1    0    0  501  503 -0.00000000000E+00 -0.00000000000E+00 -0.42700179449E+02  0.42700179449E+02  0.00000000000E+00 0. -1.
          6    2    1    2  501    0  0.41368930654E+02 -0.28250012934E+02  0.21725278811E+03  0.28086050682E+03  0.17080514833E+03 0.  0.
         24    2    3    3    0    0  0.96755899740E+01 -0.54137127413E+01  0.24400064101E+02  0.84035133434E+02  0.79646815355E+02 0.  0.
         -6    2    1    2    0  502 -0.41368930654E+02  0.28250012934E+02  0.72192400995E+03  0.74371665014E+03  0.17155386296E+03 0.  0.
        -24    2    5    5    0    0  0.20052659669E+02 -0.31127858778E+02  0.28758982165E+03  0.30103547759E+03  0.80891288140E+02 0.  0.
          5    1    3    3  501    0  0.31693340680E+02 -0.22836300193E+02  0.19285272401E+03  0.19682537339E+03  0.47000000000E+01 0. -1.
        -13    1    4    4    0    0 -0.19491448543E+02 -0.33530161267E+02  0.18923705161E+02  0.43154314940E+02  0.00000000000E+00 0.  1.
         14    1    4    4    0    0  0.29167038517E+02  0.28116448526E+02  0.54763589402E+01  0.40880818495E+02  0.00000000000E+00 0. -1.
         -5    1    5    5    0  502 -0.61421590323E+02  0.59377871712E+02  0.43433418830E+03  0.44268117255E+03  0.47000000000E+01 0.  1.
         13    1    6    6    0    0  0.23674830569E+02  0.18457888153E+02  0.18034801134E+03  0.18282941895E+03  0.00000000000E+00 0. -1.
        -14    1    6    6    0    0 -0.36221708998E+01 -0.49585746931E+02  0.10724181031E+03  0.11820605864E+03  0.00000000000E+00 0.  1.
</event>
<event>
12    1  0.1565987E-001  0.1966997E+03  0.7818608E-02  0.1153550E+00
         21   -1    0    0  501  502  0.00000000000E+00  0.00000000000E+00  0.24444532426E+03  0.24444532426E+03  0.00000000000E+00 0.  1.
         21   -1    0    0  502  503 -0.00000000000E+00 -0.00000000000E+00 -0.16949886849E+03  0.16949886849E+03  0.00000000000E+00 0.  1.
         -6    2    1    2    0  503  0.25111272346E+02  0.90489660679E+02 -0.23422676405E+02  0.19808934248E+03  0.17283463525E+03 0.  0.
        -24    2    3    3    0    0 -0.17922931258E+01  0.40490265842E+01 -0.60929605023E+02  0.99984068651E+02  0.79150428204E+02 0.  0.
          6    2    1    2  501    0 -0.25111272346E+02 -0.90489660679E+02  0.98369132175E+02  0.21585485027E+03  0.16762420927E+03 0.  0.
         24    2    5    5    0    0 -0.63440278078E+02 -0.10607820929E+03  0.74082786347E+02  0.16764663394E+03  0.85673095373E+02 0.  0.
          5    1    5    5  501    0  0.38329005732E+02  0.15588548606E+02  0.24286345829E+02  0.48208216330E+02  0.47000000000E+01 0. -1.
        -13    1    6    6    0    0 -0.22270453944E+02 -0.98869466316E+02  0.74608058137E+02  0.12584715661E+03  0.00000000000E+00 0.  1.
         14    1    6    6    0    0 -0.41169824134E+02 -0.72087429693E+01 -0.52527179045E+00  0.41799477328E+02  0.00000000000E+00 0. -1.
         -5    1    3    3    0  503  0.26903565472E+02  0.86440634095E+02  0.37506928618E+02  0.98105273824E+02  0.47000000000E+01 0.  1.
         11    1    4    4    0    0 -0.23312131164E+02 -0.32790841478E+01  0.99425862845E+01  0.25555094879E+02  0.00000000000E+00 0. -1.
        -12    1    4    4    0    0  0.21519838038E+02  0.73281107320E+01 -0.70872191307E+02  0.74428973772E+02  0.00000000000E+00 0.  1.
</event>
<event>
12    1  0.1565987E-001  0.2323014E+03  0.7818608E-02  0.1125036E+00
         21   -1    0    0  501  502  0.00000000000E+00  0.00000000000E+00  0.73612150381E+03  0.73612150381E+03  0.00000000000E+00 0.  1.
         21   -1    0    0  502  503 -0.00000000000E+00 -0.00000000000E+00 -0.95312302257E+02  0.95312302257E+02  0.00000000000E+00 0.  1.
         -6    2    1    2    0  503 -0.14334534599E+03 -0.65483629849E+02  0.12063120133E+03  0.26175530352E+03  0.17066914833E+03 0.  0.
        -24    2    3    3    0    0 -0.96506317613E+02  0.25214720635E+02  0.50787142240E+02  0.13797982957E+03  0.80683629546E+02 0.  0.
          6    2    1    2  501    0  0.14334534599E+03  0.65483629849E+02  0.52017800023E+03  0.56967850255E+03  0.17062370982E+03 0.  0.
         24    2    5    5    0    0  0.14168854264E+03  0.10605667510E+03  0.42190243794E+03  0.46324028977E+03  0.72568846448E+02 0.  0.
          5    1    5    5  501    0  0.16568033491E+01 -0.40573045249E+02  0.98275562285E+02  0.10643821278E+03  0.47000000000E+01 0. -1.
        -11    1    6    6    0    0  0.97263697975E+02  0.33726864943E+02  0.18687446694E+03  0.21335368465E+03  0.00000000000E+00 0.  1.
         12    1    6    6    0    0  0.44424844666E+02  0.72329810155E+02  0.23502797100E+03  0.24988660511E+03  0.00000000000E+00 0. -1.
         -5    1    3    3    0  503 -0.46839028377E+02 -0.90698350484E+02  0.69844059089E+02  0.12377547394E+03  0.47000000000E+01 0.  1.
         11    1    4    4    0    0 -0.39643557337E+02  0.35742475103E+02  0.59009379752E+02  0.79569108727E+02  0.00000000000E+00 0. -1.
        -12    1    4    4    0    0 -0.56862760276E+02 -0.10527754468E+02 -0.82222375123E+01  0.58410720848E+02  0.00000000000E+00 0.  1.
</event>
<event>
12    1  0.1565987E-001  0.2426606E+03  0.7818608E-02  0.1118097E+00
         21   -1    0    0  501  502  0.00000000000E+00  0.00000000000E+00  0.43586247672E+03  0.43586247672E+03  0.00000000000E+00 0.  1.
         21   -1    0    0  502  503 -0.00000000000E+00 -0.00000000000E+00 -0.13622808212E+03  0.13622808212E+03  0.00000000000E+00 0. -1.
         -6    2    1    2    0  503 -0.49395128359E+01 -0.17089975846E+03  0.17838055764E+03  0.30117068913E+03  0.17220056451E+03 0.  0.
        -24    2    3    3    0    0  0.55742636202E+02 -0.72149499764E+02  0.12179345136E+03  0.17210432092E+03  0.80457819260E+02 0.  0.
          6    2    1    2  501    0  0.49395128359E+01  0.17089975846E+03  0.12125383695E+03  0.27091986970E+03  0.17165068190E+03 0.  0.
         24    2    5    5    0    0  0.40342308105E+02  0.17678210146E+03  0.73738845905E+02  0.21118943989E+03  0.79272623938E+02 0.  0.
          5    1    5    5  501    0 -0.35402795269E+02 -0.58823429935E+01  0.47514991046E+02  0.59730429817E+02  0.47000000000E+01 0. -1.
        -11    1    6    6    0    0  0.54042285380E+02  0.10017634032E+03  0.69259600579E+02  0.13323948379E+03  0.00000000000E+00 0.  1.
         12    1    6    6    0    0 -0.13699977275E+02  0.76605761133E+02  0.44792453262E+01  0.77949956092E+02  0.00000000000E+00 0. -1.
         -5    1    3    3    0  503 -0.60682149038E+02 -0.98750258698E+02  0.56587106286E+02  0.12906636821E+03  0.47000000000E+01 0.  1.
         11    1    4    4    0    0  0.34149639110E+02 -0.45108504581E+02  0.13153177890E+02  0.58085980456E+02  0.00000000000E+00 0. -1.
        -12    1    4    4    0    0  0.21592997092E+02 -0.27040995183E+02  0.10864027347E+03  0.11401834047E+03  0.00000000000E+00 0.  1.
</event>
<event>
12    1  0.1565987E-001  0.1907251E+03  0.7818608E-02  0.1158444E+00
         21   -1    0    0  501  502  0.00000000000E+00  0.00000000000E+00  0.98469926228E+02  0.98469926228E+02  0.00000000000E+00 0. -1.
         21   -1    0    0  502  503 -0.00000000000E+00 -0.00000000000E+00 -0.41590890412E+03  0.41590890412E+03  0.00000000000E+00 0. -1.
         -6    2    1    2    0  503 -0.65590739363E+02 -0.49636768515E+02 -0.24855481496E+03  0.31159547368E+03  0.16895647160E+03 0.  0.
        -24    2    3    3    0    0 -0.55627329912E+02  0.16812851657E+02 -0.21567143873E+03  0.23664063407E+03  0.78150805445E+02 0.  0.
          6    2    1    2  501    0  0.65590739363E+02  0.49636768515E+02 -0.68884162929E+02  0.20278335667E+03  0.17207587850E+03 0.  0.
         24    2    5    5    0    0 -0.17960380979E+02  0.51040818453E+02 -0.70649942388E+02  0.11906974342E+03  0.79110359655E+02 0.  0.
          5    1    5    5  501    0  0.83551120343E+02 -0.14040499376E+01  0.17657794591E+01  0.83713613253E+02  0.47000000000E+01 0. -1.
        -11    1    6    6    0    0 -0.22322500626E+02 -0.56334386899E+01 -0.55736347944E+02  0.60303981193E+02  0.00000000000E+00 0.  1.
         12    1    6    6    0    0  0.43621196462E+01  0.56674257143E+02 -0.14913594444E+02  0.58765762224E+02  0.00000000000E+00 0. -1.
         -5    1    3    3    0  503 -0.99634094513E+01 -0.66449620172E+02 -0.32883376225E+02  0.74954839609E+02  0.47000000000E+01 0.  1.
         11    1    4    4    0    0 -0.59983124057E+02 -0.15791695694E+02 -0.11402121869E+03  0.12980058218E+03  0.00000000000E+00 0. -1.
        -12    1    4    4    0    0  0.43557941447E+01  0.32604547350E+02 -0.10165022005E+03  0.10684005188E+03  0.00000000000E+00 0.  1.
</event>
<event>
12    1  0.1565987E-001  0.2587146E+03  0.7818608E-02  0.1108056E+00
         21   -1    0    0  503  502  0.00000000000E+00  0.00000000000E+00  0.10306079610E+03  0.10306079610E+03  0.00000000000E+00 0.  1.
         21   -1    0    0  501  503 -0.00000000000E+00 -0.00000000000E+00 -0.76291694113E+03  0.76291694113E+03  0.00000000000E+00 0. -1.
          6    2    1    2  501    0  0.97132545643E+02  0.16567641659E+03 -0.16078361235E+03  0.30383305913E+03  0.17198764893E+03 0.  0.
         24    2    3    3    0    0  0.19620759576E+02  0.10965503116E+03 -0.25279292878E+02  0.13791144149E+03  0.77274335854E+02 0.  0.
         -6    2    1    2    0  502 -0.97132545643E+02 -0.16567641659E+03 -0.49907253269E+03  0.56214467810E+03  0.17334889615E+03 0.  0.
        -24    2    5    5    0    0 -0.90335667756E+02 -0.18861641188E+03 -0.38433087147E+03  0.44484088553E+03  0.80227869055E+02 0.  0.
          5    1    3    3  501    0  0.77511786067E+02  0.56021385431E+02 -0.13550431947E+03  0.16592161764E+03  0.47000000000E+01 0. -1.
        -11    1    4    4    0    0  0.63973689459E+01  0.10631668285E+03 -0.43586706627E+02  0.11508242427E+03  0.00000000000E+00 0.  1.
         12    1    4    4    0    0  0.13223390630E+02  0.33383483102E+01  0.18307413749E+02  0.22829017223E+02  0.00000000000E+00 0. -1.
         -5    1    5    5    0  502 -0.67968778870E+01  0.22939995288E+02 -0.11474166122E+03  0.11730379257E+03  0.47000000000E+01 0.  1.
         11    1    6    6    0    0 -0.99329647927E+01 -0.88882907450E+02 -0.10774702796E+03  0.14002948640E+03  0.00000000000E+00 0. -1.
        -12    1    6    6    0    0 -0.80402702963E+02 -0.99733504427E+02 -0.27658384351E+03  0.30481139913E+03  0.00000000000E+00 0.  1.
</event>
<event>
12    1  0.1565987E-001  0.1982741E+03  0.7818608E-02  0.1151527E+00
         21   -1    0    0  501  502  0.00000000000E+00  0.00000000000E+00  0.22259988661E+03  0.22259988661E+03  0.00000000000E+00 0. -1.
         21   -1    0    0  502  503 -0.00000000000E+00 -0.00000000000E+00 -0.10814410487E+04  0.10814410487E+04  0.00000000000E+00 0. -1.
         -6    2    1    2    0  503  0.26427659051E+02 -0.95275268776E+02 -0.10260052484E+04  0.10447024683E+04  0.17011960365E+03 0.  0.
        -24    2    3    3    0    0 -0.24146669656E+02 -0.54610049661E+02 -0.31184586592E+03  0.32758522799E+03  0.80615868979E+02 0.  0.
          6    2    1    2  501    0 -0.26427659051E+02  0.95275268776E+02  0.16716408634E+03  0.25933846698E+03  0.17186276703E+03 0.  0.
         24    2    5    5    0    0  0.40907766082E+02  0.95315640380E+02  0.10058894359E+03  0.16453129036E+03  0.78701291648E+02 0.  0.
          5    1    5    5  501    0 -0.67335425134E+02 -0.40371603316E-01  0.66575142747E+02  0.94807176625E+02  0.47000000000E+01 0. -1.
        -11    1    6    6    0    0 -0.18016201160E+02  0.79210122850E+01  0.12935911714E+01  0.19723065634E+02  0.00000000000E+00 0.  1.
         12    1    6    6    0    0  0.58923967243E+02  0.87394628095E+02  0.99295352418E+02  0.14480822472E+03  0.00000000000E+00 0. -1.
         -5    1    3    3    0  503  0.50574328707E+02 -0.40665219115E+02 -0.71415938251E+03  0.71711724034E+03  0.47000000000E+01 0.  1.
         13    1    4    4    0    0 -0.33377208887E+02 -0.62342155416E+02 -0.30624846263E+03  0.31430670257E+03  0.00000000000E+00 0. -1.
        -14    1    4    4    0    0  0.92305392317E+01  0.77321057551E+01 -0.55974032822E+01  0.13278525423E+02  0.00000000000E+00 0.  1.
</event>
<event>
12    1  0.1565987E-001  0.2048344E+03  0.7818608E-02  0.1146303E+00
         21   -1    0    0  501  502  0.00000000000E+00  0.00000000000E+00  0.35445246825E+03  0.35445246825E+03  0.00000000000E+00 0. -1.
         21   -1    0    0  502  503 -0.00000000000E+00 -0.00000000000E+00 -0.12589165182E+03  0.12589165182E+03  0.00000000000E+00 0. -1.
         -6    2    1    2    0  503  0.64924993976E+00 -0.10044326080E+03  0.17825978983E+03  0.26942397304E+03  0.17528107260E+03 0.  0.
        -24    2    3    3    0    0 -0.40284368478E+02 -0.69943110734E+01  0.40323427474E+02  0.97794146429E+02  0.79157852051E+02 0.  0.
          6    2    1    2  501    0 -0.64924993976E+00  0.10044326080E+03  0.50301026602E+02  0.21092014703E+03  0.17851567152E+03 0.  0.
         24    2    5    5    0    0 -0.59400968886E+02  0.44015565461E+02  0.66501416779E+02  0.12773125400E+03  0.80168508207E+02 0.  0.
          5    1    5    5  501    0  0.58751718946E+02  0.56427695342E+02 -0.16200390176E+02  0.83188893024E+02  0.47000000000E+01 0. -1.
        -11    1    6    6    0    0 -0.45283833004E+02  0.13595261492E+01 -0.25192245992E+01  0.45374225453E+02  0.00000000000E+00 0.  1.
         12    1    6    6    0    0 -0.14117135881E+02  0.42656039311E+02  0.69020641378E+02  0.82357028549E+02  0.00000000000E+00 0. -1.
         -5    1    3    3    0  503  0.40933618418E+02 -0.93448949729E+02  0.13793636236E+03  0.17162982661E+03  0.47000000000E+01 0.  1.
         13    1    4    4    0    0 -0.47774278779E+02 -0.80950514169E+01  0.59759520480E+02  0.76935764494E+02  0.00000000000E+00 0. -1.
        -14    1    4    4    0    0  0.74899103005E+01  0.11007403435E+01 -0.19436093006E+02  0.20858381935E+02  0.00000000000E+00 0.  1.
</event>
<event>
12    1  0.1565987E-001  0.1975329E+03  0.7818608E-02  0.1152071E+00
         21   -1    0    0  503  502  0.00000000000E+00  0.00000000000E+00  0.85720624513E+03  0.85720624513E+03  0.00000000000E+00 0.  1.
         21   -1    0    0  501  503 -0.00000000000E+00 -0.00000000000E+00 -0.46123297761E+02  0.46123297761E+02  0.00000000000E+00 0.  1.
          6    2    1    2  501    0 -0.37525486438E+01  0.98318781559E+02  0.34298791009E+03  0.39526241822E+03  0.17003237446E+03 0.  0.
         24    2    3    3    0    0  0.11268117267E+02  0.65557153724E+02  0.34340669692E+03  0.35891396509E+03  0.80413705169E+02 0.  0.
         -6    2    1    2    0  502  0.37525486438E+01 -0.98318781559E+02  0.46809503728E+03  0.50806712466E+03  0.17128506885E+03 0.  0.
        -24    2    5    5    0    0 -0.14650764243E+02 -0.31550278175E+02  0.94333211404E+02  0.12791359325E+03  0.79076340441E+02 0.  0.
          5    1    3    3  501    0 -0.15020665911E+02  0.32761627835E+02 -0.41878682674E+00  0.36348453134E+02  0.47000000000E+01 0. -1.
        -11    1    4    4    0    0  0.11029045243E+02 -0.11598423569E+02  0.16350982453E+02  0.22880513443E+02  0.00000000000E+00 0.  1.
         12    1    4    4    0    0  0.23907202455E+00  0.77155577293E+02  0.32705571446E+03  0.33603345165E+03  0.00000000000E+00 0. -1.
         -5    1    5    5    0  502  0.18403312887E+02 -0.66768503384E+02  0.37376182587E+03  0.38015353142E+03  0.47000000000E+01 0.  1.
         13    1    6    6    0    0 -0.35380740202E+02  0.14655259628E+01  0.13003300544E+02  0.37723074750E+02  0.00000000000E+00 0. -1.
        -14    1    6    6    0    0  0.20729975959E+02 -0.33015804138E+02  0.81329910860E+02  0.90190518496E+02  0.00000000000E+00 0.  1.
</event>
<event>
12    1  0.1565987E-001  0.2140422E+03  0.7818608E-02  0.1138454E+00
         21   -1    0    0  503  502  0.00000000000E+00  0.00000000000E+00  0.18102032675E+04  0.18102032675E+04  0.00000000000E+00 0.  1.
         21   -1    0    0  501  503 -0.00000000000E+00 -0.00000000000E+00 -0.27294793693E+02  0.27294793693E+02  0.00000000000E+00 0.  1.
          6    2    1    2  501    0 -0.83339706075E+02  0.96242936367E+02  0.11406608356E+04  0.11605223724E+04  0.17174639874E+03 0.  0.
         24    2    3    3    0    0 -0.11299594823E+03  0.60709151216E+02  0.10136816347E+04  0.10252894250E+04  0.84936818750E+02 0.  0.
         -6    2    1    2    0  502  0.83339706075E+02 -0.96242936367E+02  0.64224763818E+03  0.67697568880E+03  0.17206349139E+03 0.  0.
        -24    2    5    5    0    0  0.64586911255E+02 -0.84931788778E+01  0.48483305310E+03  0.49572136789E+03  0.80205872675E+02 0.  0.
          5    1    3    3  501    0  0.29656242157E+02  0.35533785151E+02  0.12697920093E+03  0.13523294737E+03  0.47000000000E+01 0. -1.
        -11    1    4    4    0    0 -0.22461380087E+02  0.50896819420E+02  0.24525308988E+03  0.25148375279E+03  0.00000000000E+00 0.  1.
         12    1    4    4    0    0 -0.90534568144E+02  0.98123317958E+01  0.76842854482E+03  0.77380567223E+03  0.00000000000E+00 0. -1.
         -5    1    5    5    0  502  0.18752794819E+02 -0.87749757489E+02  0.15741458508E+03  0.18125432091E+03  0.47000000000E+01 0.  1.
         13    1    6    6    0    0  0.17359767466E+02  0.34605393529E+02  0.15619490138E+03  0.16092153991E+03  0.00000000000E+00 0. -1.
        -14    1    6    6    0    0  0.47227143789E+02 -0.43098572407E+02  0.32863815172E+03  0.33479982798E+03  0.00000000000E+00 0.  1.
</event>
<event>
12    1  0.1565987E-001  0.2427949E+03  0.7818608E-02  0.1118384E+00
         21   -1    0    0  501  502  0.00000000000E+00  0.00000000000E+00  0.37661848020E+03  0.37661848020E+03  0.00000000000E+00 0. -1.
         21   -1    0    0  502  503 -0.00000000000E+00 -0.00000000000E+00 -0.20848219293E+03  0.20848219293E+03  0.00000000000E+00 0.  1.
         -6    2    1    2    0  503  0.15389046128E+03  0.74988502716E+02 -0.64018831889E+02  0.25109314829E+03  0.17217377463E+03 0.  0.
        -24    2    3    3    0    0  0.95011992108E+01  0.35778044622E+02  0.11283047900E+01  0.87838872874E+02  0.79649565301E+02 0.  0.
          6    2    1    2  501    0 -0.15389046128E+03 -0.74988502716E+02  0.23215511916E+03  0.33400752485E+03  0.16840272472E+03 0.  0.
         24    2    5    5    0    0 -0.17253784456E+03 -0.92279103494E+02  0.19785401356E+03  0.29105003861E+03  0.85318072780E+02 0.  0.
          5    1    5    5  501    0  0.18647383288E+02  0.17290600778E+02  0.34301105602E+02  0.42957486243E+02  0.47000000000E+01 0. -1.
        -11    1    6    6    0    0  0.19475282876E+01  0.10663757284E+02  0.11102807301E+02  0.15517116865E+02  0.00000000000E+00 0.  1.
         12    1    6    6    0    0 -0.17448537285E+03 -0.10294286078E+03  0.18675120626E+03  0.27553292174E+03  0.00000000000E+00 0. -1.
         -5    1    3    3    0  503  0.14438926207E+03  0.39210458095E+02 -0.65147136679E+02  0.16325427541E+03  0.47000000000E+01 0.  1.
         13    1    4    4    0    0  0.32741601246E+02  0.16913068531E+02  0.29034133891E+02  0.46915298892E+02  0.00000000000E+00 0. -1.
        -14    1    4    4    0    0 -0.23240402035E+02  0.18864976090E+02 -0.27905829101E+02  0.40923573982E+02  0.00000000000E+00 0.  1.
</event>
<event>
12    1  0.1565987E-001  0.2015129E+03  0.7818608E-02  0.1149019E+00
         21   -1    0    0  503  502  0.00000000000E+00  0.00000000000E+00  0.10656082233E+03  0.10656082233E+03  0.00000000000E+00 0. -1.
         21   -1    0    0  501  503 -0.00000000000E+00 -0.00000000000E+00 -0.65268584185E+03  0.65268584185E+03  0.00000000000E+00 0. -1.
          6    2    1    2  501    0  0.80380064891E+02 -0.62811472109E+02 -0.51913756857E+03  0.55593462307E+03  0.17074324047E+03 0.  0.
         24    2    3    3    0    0  0.25162661751E+02 -0.87452838679E+02 -0.23874977925E+03  0.26906259419E+03  0.84333053774E+02 0.  0.
         -6    2    1    2    0  502 -0.80380064891E+02  0.62811472109E+02 -0.26987450949E+02  0.20331204111E+03  0.17378500422E+03 0.  0.
        -24    2    5    5    0    0 -0.50959822338E+02 -0.29981431395E+02  0.70915532263E+01  0.10006698245E+03  0.80419656352E+02 0.  0.
          5    1    3    3  501    0  0.55217403141E+02  0.24641366570E+02 -0.28038778932E+03  0.28687202889E+03  0.47000000000E+01 0. -1.
        -13    1    4    4    0    0  0.49567136422E+02 -0.86310089646E+02 -0.19602988699E+03  0.21985006068E+03  0.00000000000E+00 0.  1.
         14    1    4    4    0    0 -0.24404474672E+02 -0.11427490327E+01 -0.42719892261E+02  0.49212533507E+02  0.00000000000E+00 0. -1.
         -5    1    5    5    0  502 -0.29420242553E+02  0.92792903504E+02 -0.34079004176E+02  0.10324505866E+03  0.47000000000E+01 0.  1.
         11    1    6    6    0    0 -0.68965418679E+02 -0.80340232572E+01  0.14048406629E+02  0.70838776331E+02  0.00000000000E+00 0. -1.
        -12    1    6    6    0    0  0.18005596341E+02 -0.21947408138E+02 -0.69568534030E+01  0.29228206117E+02  0.00000000000E+00 0.  1.
</event>
<event>
12    1  0.1565987E-001  0.1918873E+03  0.7818608E-02  0.1156777E+00
         21   -1    0    0  501  502  0.00000000000E+00  0.00000000000E+00  0.62808878452E+03  0.62808878452E+03  0.00000000000E+00 0. -1.
         21   -1    0    0  502  503 -0.00000000000E+00 -0.00000000000E+00 -0.50100485055E+03  0.50100485055E+03  0.00000000000E+00 0. -1.
         -6    2    1    2    0  503 -0.17935827015E+02  0.85727792494E+02 -0.46695455401E+03  0.50483210166E+03  0.17069840965E+03 0.  0.
        -24    2    3    3    0    0  0.37729625444E+02  0.40719644328E+02 -0.38072801758E+03  0.39266489797E+03  0.78423750593E+02 0.  0.
          6    2    1    2  501    0  0.17935827015E+02 -0.85727792494E+02  0.59403848798E+03  0.62426153341E+03  0.17073309169E+03 0.  0.
         24    2    5    5    0    0 -0.36712620663E+02 -0.92034441859E+02  0.45893357377E+03  0.47831067009E+03  0.91339569668E+02 0.  0.
          5    1    5    5  501    0  0.54648447678E+02  0.63066493655E+01  0.13510491422E+03  0.14595086332E+03  0.47000000000E+01 0. -1.
        -13    1    6    6    0    0  0.70824318420E+01 -0.90213435383E+02  0.32675201018E+03  0.33905088250E+03  0.00000000000E+00 0.  1.
         14    1    6    6    0    0 -0.43795052505E+02 -0.18210064763E+01  0.13218156358E+03  0.13925978759E+03  0.00000000000E+00 0. -1.
         -5    1    3    3    0  503 -0.55665452458E+02  0.45008148166E+02 -0.86226536431E+02  0.11216720369E+03  0.47000000000E+01 0.  1.
         13    1    4    4    0    0  0.27958784025E+02  0.64269479225E+02 -0.26055217472E+03  0.26981418664E+03  0.00000000000E+00 0. -1.
        -14    1    4    4    0    0  0.97708414188E+01 -0.23549834898E+02 -0.12017584286E+03  0.12285071132E+03  0.00000000000E+00 0.  1.
</event>
<event>
12    1  0.1565987E-001  0.2316035E+03  0.7818608E-02  0.1125519E+00
         21   -1    0    0  501  502  0.00000000000E+00  0.00000000000E+00  0.13835736688E+03  0.13835736688E+03  0.00000000000E+00 0. -1.
         21   -1    0    0  502  503 -0.00000000000E+00 -0.00000000000E+00 -0.62673246709E+03  0.62673246709E+03  0.00000000000E+00 0. -1.
         -6    2    1    2    0  503  0.78587295873E+02 -0.13452771030E+03 -0.48046124134E+03  0.53336965416E+03  0.17136661177E+03 0.  0.
        -24    2    3    3    0    0  0.51003858831E+02  0.10690851784E+02 -0.21323417994E+03  0.22794917495E+03  0.61451793601E+02 0.  0.
          6    2    1    2  501    0 -0.78587295873E+02  0.13452771030E+03 -0.79138588694E+01  0.23172017982E+03  0.17134160225E+03 0.  0.
         24    2    5    5    0    0 -0.38719690106E+02 -0.13405871153E+01  0.78351430011E+01  0.89172849809E+02  0.79933698160E+02 0.  0.
          5    1    5    5  501    0 -0.39867605767E+02  0.13586829742E+03 -0.15749001870E+02  0.14254733001E+03  0.47000000000E+01 0. -1.
        -11    1    6    6    0    0 -0.24994567736E+02 -0.30222731011E+02 -0.22399478716E+02  0.45165014479E+02  0.00000000000E+00 0.  1.
         12    1    6    6    0    0 -0.13725122370E+02  0.28882143896E+02  0.30234621717E+02  0.44007835331E+02  0.00000000000E+00 0. -1.
         -5    1    3    3    0  503  0.27583437042E+02 -0.14521856209E+03 -0.26722706141E+03  0.30542047921E+03  0.47000000000E+01 0.  1.
         11    1    4    4    0    0 -0.12552419731E+02 -0.64883637858E+00 -0.65945929518E+02  0.67133075676E+02  0.00000000000E+00 0. -1.
        -12    1    4    4    0    0  0.63556278562E+02  0.11339688163E+02 -0.14728825042E+03  0.16081609927E+03  0.00000000000E+00 0.  1.
</event>
<event>
12    1  0.1565987E-001  0.2051661E+03  0.7818608E-02  0.1146298E+00
         21   -1    0    0  503  502  0.00000000000E+00  0.00000000000E+00  0.14157269936E+03  0.14157269936E+03  0.00000000000E+00 0.  1.
         21   -1    0    0  501  503 -0.00000000000E+00 -0.00000000000E+00 -0.29765744279E+03  0.29765744279E+03  0.00000000000E+00 0.  1.
          6    2    1    2  501    0 -0.83881515873E+02  0.66734016345E+02 -0.11063030197E+03  0.23309263841E+03  0.17493877993E+03 0.  0.
         24    2    3    3    0    0 -0.70139490588E+02  0.10302945760E+03 -0.11913721363E+03  0.19308439099E+03  0.86909660573E+02 0.  0.
         -6    2    1    2    0  502  0.83881515873E+02 -0.66734016345E+02 -0.45454441462E+02  0.20613750374E+03  0.17010886678E+03 0.  0.
        -24    2    5    5    0    0 -0.73210832651E+01 -0.33101565338E+02  0.23399898926E+02  0.86923133632E+02  0.76542563340E+02 0.  0.
          5    1    3    3  501    0 -0.13742025285E+02 -0.36295441259E+02  0.85069116559E+01  0.40008247412E+02  0.47000000000E+01 0. -1.
        -11    1    4    4    0    0 -0.47730624747E+02  0.93529031316E+02 -0.43553681328E+02  0.11367856172E+03  0.00000000000E+00 0.  1.
         12    1    4    4    0    0 -0.22408865842E+02  0.95004262879E+01 -0.75583532299E+02  0.79405829275E+02  0.00000000000E+00 0. -1.
         -5    1    5    5    0  502  0.91202599138E+02 -0.33632451007E+02 -0.68854340387E+02  0.11921437011E+03  0.47000000000E+01 0.  1.
         11    1    6    6    0    0 -0.81514250486E+01 -0.12629941579E+02 -0.27895206498E+02  0.31687595368E+02  0.00000000000E+00 0. -1.
        -12    1    6    6    0    0  0.83034178358E+00 -0.20471623758E+02  0.51295105424E+02  0.55235538264E+02  0.00000000000E+00 0.  1.
</event>
<event>
12    1  0.1565987E-001  0.1834016E+03  0.7818608E-02  0.1165964E+00
         21   -1    0    0  501  502  0.00000000000E+00  0.00000000000E+00  0.16263352736E+04  0.16263352736E+04  0.00000000000E+00 0. -1.
         21   -1    0    0  502  503 -0.00000000000E+00 -0.00000000000E+00 -0.41158441131E+02  0.41158441131E+02  0.00000000000E+00 0. -1.
         -6    2    1    2    0  503 -0.10608858477E+02  0.39423364477E+02  0.20146585643E+03  0.27244196135E+03  0.17879983627E+03 0.  0.
        -24    2    3    3    0    0 -0.27523046449E+02 -0.67522255830E+01  0.22774543336E+02  0.87047920862E+02  0.79092035416E+02 0.  0.
          6    2    1    2  501    0  0.10608858477E+02 -0.39423364477E+02  0.13837109760E+04  0.13950517533E+04  0.17276162728E+03 0.  0.
         24    2    5    5    0    0  0.42691815853E+02  0.27551955315E+02  0.97530929555E+03  0.97992643226E+03  0.80286295601E+02 0.  0.
          5    1    5    5  501    0 -0.32082957375E+02 -0.66975319792E+02  0.40840168044E+03  0.41512532108E+03  0.47000000000E+01 0. -1.
        -11    1    6    6    0    0  0.90077225783E+01 -0.11357494395E+02  0.31064945652E+02  0.34280644587E+02  0.00000000000E+00 0.  1.
         12    1    6    6    0    0  0.33684093274E+02  0.38909449710E+02  0.94424434990E+03  0.94564578767E+03  0.00000000000E+00 0. -1.
         -5    1    3    3    0  503  0.16914187971E+02  0.46175590060E+02  0.17869131309E+03  0.18539404048E+03  0.47000000000E+01 0.  1.
         11    1    4    4    0    0 -0.50908201007E+02  0.22416898580E+01  0.32200023645E+02  0.60278616656E+02  0.00000000000E+00 0. -1.
        -12    1    4    4    0    0  0.23385154558E+02 -0.89939154410E+01 -0.94254803093E+01  0.26769304207E+02  0.00000000000E+00 0.  1.
</event>
<event>
12    1  0.1565987E-001  0.2352257E+03  0.7818608E-02  0.1123079E+00
         21   -1    0    0  503  502  0.00000000000E+00  0.00000000000E+00  0.59573342861E+02  0.59573342861E+02  0.00000000000E+00 0. -1.
         21   -1    0    0  501  503 -0.00000000000E+00 -0.00000000000E+00 -0.11617488451E+04  0.11617488451E+04  0.00000000000E+00 0. -1.
          6    2    1    2  501    0  0.15719028685E+03  0.28709301129E+02 -0.82505741319E+03  0.85783137910E+03  0.17211022534E+03 0.  0.
         24    2    3    3    0    0  0.35758158726E+02 -0.83675138582E+01 -0.19246639471E+03  0.21260743457E+03  0.82522402626E+02 0.  0.
         -6    2    1    2    0  502 -0.15719028685E+03 -0.28709301129E+02 -0.27711808901E+03  0.36349080881E+03  0.17262132714E+03 0.  0.
        -24    2    5    5    0    0 -0.24248556160E+02  0.28167988161E+02 -0.13076594233E+03  0.15770069575E+03  0.79927152669E+02 0.  0.
          5    1    3    3  501    0  0.12143212813E+03  0.37076814987E+02 -0.63259101847E+03  0.64522394454E+03  0.47000000000E+01 0. -1.
        -11    1    4    4    0    0  0.16320549086E+02 -0.33333351632E+02 -0.31858420518E+02  0.48912489319E+02  0.00000000000E+00 0.  1.
         12    1    4    4    0    0  0.19437609640E+02  0.24965837774E+02 -0.16060797420E+03  0.16369494525E+03  0.00000000000E+00 0. -1.
         -5    1    5    5    0  502 -0.13294173069E+03 -0.56877289290E+02 -0.14635214668E+03  0.20579011306E+03  0.47000000000E+01 0.  1.
         11    1    6    6    0    0 -0.32538297122E+02 -0.98164131462E+01 -0.18080375644E+02  0.38496788569E+02  0.00000000000E+00 0. -1.
        -12    1    6    6    0    0  0.82897409626E+01  0.37984401307E+02 -0.11268556668E+03  0.11920390718E+03  0.00000000000E+00 0.  1.
</event>
<event>
12    1  0.1565987E-001  0.1885209E+03  0.7818608E-02  0.1159848E+00
         21   -1    0    0  503  502  0.00000000000E+00  0.00000000000E+00  0.35417715007E+03  0.35417715007E+03  0.00000000000E+00 0.  1.
         21   -1    0    0  501  503 -0.00000000000E+00 -0.00000000000E+00 -0.12447364264E+03  0.12447364264E+03  0.00000000000E+00 0. -1.
          6    2    1    2  501    0  0.75278160605E+02 -0.34679879080E+02  0.92973354865E+01  0.18874998171E+03  0.16932400796E+03 0.  0.
         24    2    3    3    0    0  0.11177080385E+03 -0.36244686891E+02 -0.16239177792E+02  0.14393519458E+03  0.81530604212E+02 0.  0.
         -6    2    1    2    0  502 -0.75278160605E+02  0.34679879080E+02  0.22040617195E+03  0.28990081100E+03  0.16909791279E+03 0.  0.
        -24    2    5    5    0    0 -0.73311705480E+01  0.50994322866E+02  0.18321280772E+03  0.21060143600E+03  0.90176853488E+02 0.  0.
          5    1    3    3  501    0 -0.36492643248E+02  0.15648078115E+01  0.25536513278E+02  0.44814787125E+02  0.47000000000E+01 0. -1.
        -11    1    4    4    0    0  0.97139373295E+02 -0.16468700948E+02  0.19609172271E+02  0.10045792946E+03  0.00000000000E+00 0.  1.
         12    1    4    4    0    0  0.14631430557E+02 -0.19775985944E+02 -0.35848350062E+02  0.43477265121E+02  0.00000000000E+00 0. -1.
         -5    1    5    5    0  502 -0.67946990057E+02 -0.16314443786E+02  0.37193364230E+02  0.79299375007E+02  0.47000000000E+01 0.  1.
         13    1    6    6    0    0  0.32432322586E+02 -0.33427503547E+01  0.35124884509E+02  0.47924806104E+02  0.00000000000E+00 0. -1.
        -14    1    6    6    0    0 -0.39763493134E+02  0.54337073221E+02  0.14808792321E+03  0.16267662989E+03  0.00000000000E+00 0.  1.
</event>
<event>
12    1  0.1565987E-001  0.1911456E+03  0.7818608E-02  0.1157803E+00
         21   -1    0    0  503  502  0.00000000000E+00  0.00000000000E+00  0.32374743655E+02  0.32374743655E+02  0.00000000000E+00 0. -1.
         21   -1    0    0  501  503 -0.00000000000E+00 -0.00000000000E+00 -0.11717033807E+04  0.11717033807E+04  0.00000000000E+00 0.  1.
          6    2    1    2  501    0 -0.77296485303E+02  0.12190592414E+02 -0.69520340842E+03  0.72056612259E+03  0.17258157714E+03 0.  0.
         24    2    3    3    0    0 -0.41873178049E+02  0.74338797568E+02 -0.47037599150E+03  0.48458589567E+03  0.79311392859E+02 0.  0.
         -6    2    1    2    0  502  0.77296485303E+02 -0.12190592414E+02 -0.44412522859E+03  0.48351200172E+03  0.17439403648E+03 0.  0.
        -24    2    5    5    0    0  0.11622741609E+03 -0.24451437361E+02 -0.38767145965E+03  0.41369034521E+03  0.82120984231E+02 0.  0.
          5    1    3    3  501    0 -0.35423307254E+02 -0.62148205153E+02 -0.22482741691E+03  0.23598022692E+03  0.47000000000E+01 0. -1.
        -11    1    4    4    0    0  0.27996153560E+01  0.63657791732E+02 -0.18815527548E+03  0.19865185624E+03  0.00000000000E+00 0.  1.
         12    1    4    4    0    0 -0.44672793405E+02  0.10681005836E+02 -0.28222071602E+03  0.28593403943E+03  0.00000000000E+00 0. -1.
         -5    1    5    5    0  502 -0.38930930792E+02  0.12260844946E+02 -0.56453768934E+02  0.69821656511E+02  0.47000000000E+01 0.  1.
         13    1    6    6    0    0  0.18067992302E+02 -0.80784441641E+01 -0.82621131403E+01  0.21447053865E+02  0.00000000000E+00 0. -1.
        -14    1    6    6    0    0  0.98159423793E+02 -0.16372993197E+02 -0.37940934651E+03  0.39224329135E+03  0.00000000000E+00 0.  1.
</event>
<event>
12    1  0.1565987E-001  0.2286451E+03  0.7818608E-02  0.1129936E+00
         21   -1    0    0  501  502  0.00000000000E+00  0.00000000000E+00  0.12419509994E+03  0.12419509994E+03  0.00000000000E+00 0. -1.
         21   -1    0    0  502  503 -0.00000000000E+00 -0.00000000000E+00 -0.42521022859E+03  0.42521022859E+03  0.00000000000E+00 0.  1.
         -6    2    1    2    0  503  0.12771201659E+03 -0.26467807617E+02 -0.21627844139E+03  0.30556344012E+03  0.17199345251E+03 0.  0.
        -24    2    3    3    0    0  0.53053511265E+02 -0.24389743725E+02 -0.20484577614E+03  0.22986002803E+03  0.86396214200E+02 0.  0.
          6    2    1    2  501    0 -0.12771201659E+03  0.26467807617E+02 -0.84736687250E+02  0.24384188841E+03  0.18779684862E+03 0.  0.
         24    2    5    5    0    0 -0.15831002308E+03  0.10913995699E+01 -0.36125282318E+02  0.18087079364E+03  0.79661492642E+02 0.  0.
          5    1    5    5  501    0  0.30598006486E+02  0.25376408047E+02 -0.48611404932E+02  0.62971094764E+02  0.47000000000E+01 0. -1.
        -13    1    6    6    0    0 -0.46171384306E+02 -0.13841282075E+01 -0.49741108023E+02  0.67881443466E+02  0.00000000000E+00 0.  1.
         14    1    6    6    0    0 -0.11213863877E+03  0.24755277775E+01  0.13615825705E+02  0.11298935018E+03  0.00000000000E+00 0. -1.
         -5    1    3    3    0  503  0.74658505329E+02 -0.20780638918E+01 -0.11432665255E+02  0.75703412092E+02  0.47000000000E+01 0.  1.
         11    1    4    4    0    0 -0.12415102550E+02 -0.26405391606E+02 -0.24881353693E+02  0.38346593575E+02  0.00000000000E+00 0. -1.
        -12    1    4    4    0    0  0.65468613815E+02  0.20156478805E+01 -0.17996442244E+03  0.19151343446E+03  0.00000000000E+00 0.  1.
</event>
<event>
12    1  0.1565987E-001  0.1856369E+03  0.7818608E-02  0.1162813E+00
         21   -1    0    0  503  502  0.00000000000E+00  0.00000000000E+00  0.37834200281E+03  0.37834200281E+03  0.00000000000E+00 0.  1.
         21   -1    0    0  501  503 -0.00000000000E+00 -0.00000000000E+00 -0.91961076383E+02  0.91961076383E+02  0.00000000000E+00 0. -1.
          6    2    1    2  501    0 -0.25825450742E+02 -0.64830959374E+02  0.11252363681E+03  0.21707743263E+03  0.17202045146E+03 0.  0.
         24    2    3    3    0    0 -0.82339541534E+02 -0.36020052419E+02  0.87879268563E+02  0.14886199667E+03  0.79748880451E+02 0.  0.
         -6    2    1    2    0  502  0.25825450742E+02  0.64830959374E+02  0.17385728962E+03  0.25322564656E+03  0.17037272000E+03 0.  0.
        -24    2    5    5    0    0  0.59933759936E+02  0.62957129856E+02  0.55825706171E+02  0.13026047798E+03  0.79344986440E+02 0.  0.
          5    1    3    3  501    0  0.56514090792E+02 -0.28810906955E+02  0.24644368244E+02  0.68215435964E+02  0.47000000000E+01 0. -1.
        -11    1    4    4    0    0  0.10407327341E+01 -0.36615832510E+02  0.23535474436E+02  0.43539876802E+02  0.00000000000E+00 0.  1.
         12    1    4    4    0    0 -0.83380274268E+02  0.59578009069E+00  0.64343794127E+02  0.10532211987E+03  0.00000000000E+00 0. -1.
         -5    1    5    5    0  502 -0.34108309194E+02  0.18738295185E+01  0.11803158345E+03  0.12296516858E+03  0.47000000000E+01 0.  1.
         13    1    6    6    0    0 -0.52118240897E+01  0.37776382269E+02 -0.39394954724E+01  0.38337159418E+02  0.00000000000E+00 0. -1.
        -14    1    6    6    0    0  0.65145584026E+02  0.25180747586E+02  0.59765201643E+02  0.91923318557E+02  0.00000000000E+00 0.  1.
</event>
<event>
12    1  0.1565987E-001  0.2115821E+03  0.7818608E-02  0.1142371E+00
         21   -1    0    0  503  502  0.00000000000E+00  0.00000000000E+00  0.39063708955E+03  0.39063708955E+03  0.00000000000E+00 0. -1.
         21   -1    0    0  501  503 -0.00000000000E+00 -0.00000000000E+00 -0.21518502899E+03  0.21518502899E+03  0.00000000000E+00 0. -1.
          6    2    1    2  501    0  0.12354567346E+03  0.66229403847E+00 -0.12597918463E+03  0.23754532282E+03  0.15903789916E+03 0.  0.
         24    2    3    3    0    0  0.12697465234E+03 -0.44171099538E+02 -0.98472899134E+02  0.18462579128E+03  0.79474037091E+02 0.  0.
         -6    2    1    2    0  502 -0.12354567346E+03 -0.66229403847E+00  0.30143124519E+03  0.36827679572E+03  0.17176446265E+03 0.  0.
        -24    2    5    5    0    0 -0.12945916878E+03  0.24188902967E+02  0.30570115234E+03  0.34195430483E+03  0.78324789465E+02 0.  0.
          5    1    3    3  501    0 -0.34289788868E+01  0.44833393577E+02 -0.27506285499E+02  0.52919531534E+02  0.47000000000E+01 0. -1.
        -11    1    4    4    0    0  0.92949578485E+02 -0.21602129221E+02 -0.21991232108E+02  0.97927985873E+02  0.00000000000E+00 0.  1.
         12    1    4    4    0    0  0.34025073858E+02 -0.22568970317E+02 -0.76481667025E+02  0.86697805411E+02  0.00000000000E+00 0. -1.
         -5    1    5    5    0  502  0.59134953210E+01 -0.24851197006E+02 -0.42699071526E+01  0.26322490889E+02  0.47000000000E+01 0.  1.
         13    1    6    6    0    0  0.36370228327E+01 -0.10832334589E+01  0.69929165620E+02  0.70032060758E+02  0.00000000000E+00 0. -1.
        -14    1    6    6    0    0 -0.13309619161E+03  0.25272136426E+02  0.23577198672E+03  0.27192224408E+03  0.00000000000E+00 0.  1.
</event>
<event>
12    1  0.1565987E-001  0.2382625E+03  0.7818608E-02  0.1121027E+00
         21   -1    0    0  503  502  0.00000000000E+00  0.00000000000E+00  0.10765289426E+03  0.10765289426E+03  0.00000000000E+00 0.  1.
         21   -1    0    0  501  503 -0.00000000000E+00 -0.00000000000E+00 -0.67372957154E+03  0.67372957154E+03  0.00000000000E+00 0.  1.
          6    2    1    2  501    0 -0.24311320590E+02 -0.16272903298E+03 -0.46593860688E+03  0.52332380125E+03  0.17232886320E+03 0.  0.
         24    2    3    3    0    0 -0.32379266607E+02 -0.14177649615E+03 -0.22455730602E+03  0.28085499304E+03  0.85466669877E+02 0.  0.
         -6    2    1    2    0  502  0.24311320590E+02  0.16272903298E+03 -0.10013807041E+03  0.25805866455E+03  0.17174068452E+03 0.  0.
        -24    2    5    5    0    0  0.49521014023E+02  0.38332569593E+02 -0.82620084512E+01  0.10129990241E+03  0.79194019489E+02 0.  0.
          5    1    3    3  501    0  0.80679460170E+01 -0.20952536827E+02 -0.24138130086E+03  0.24246880821E+03  0.47000000000E+01 0. -1.
        -13    1    4    4    0    0 -0.35286013949E+02 -0.91983854135E+02 -0.20469182326E+03  0.22716706344E+03  0.00000000000E+00 0.  1.
         14    1    4    4    0    0  0.29067473413E+01 -0.49792642017E+02 -0.19865482757E+02  0.53687929596E+02  0.00000000000E+00 0. -1.
         -5    1    5    5    0  502 -0.25209693433E+02  0.12439646339E+03 -0.91876061959E+02  0.15675876214E+03  0.47000000000E+01 0.  1.
         11    1    6    6    0    0 -0.57982118616E+00 -0.21617089740E+02  0.46299175968E+01  0.22114947398E+02  0.00000000000E+00 0. -1.
        -12    1    6    6    0    0  0.50100835209E+02  0.59949659333E+02 -0.12891926048E+02  0.79184955011E+02  0.00000000000E+00 0.  1.
</event>
<event>
12    1  0.1565987E-001  0.2018456E+03  0.7818608E-02  0.1148226E+00
         21   -1    0    0  503  502  0.00000000000E+00  0.00000000000E+00  0.65925593947E+02  0.65925593947E+02  0.00000000000E+00 0.  1.
         21   -1    0    0  501  503 -0.00000000000E+00 -0.00000000000E+00 -0.93888666014E+03  0.93888666014E+03  0.00000000000E+00 0. -1.
          6    2    1    2  501    0 -0.83268241635E+02  0.63950728942E+02 -0.73031102964E+03  0.75764699188E+03  0.17219601765E+03 0.  0.
         24    2    3    3    0    0 -0.68965379189E+02  0.55713456702E+02 -0.28542491090E+03  0.31242999628E+03  0.91021481124E+02 0.  0.
         -6    2    1    2    0  502  0.83268241635E+02 -0.63950728942E+02 -0.14265003656E+03  0.24716526221E+03  0.17239007546E+03 0.  0.
        -24    2    5    5    0    0 -0.12701556596E+02  0.12489328000E+02 -0.59360089258E+02  0.98798858335E+02  0.76943364611E+02 0.  0.
          5    1    3    3  501    0 -0.14302862446E+02  0.82372722405E+01 -0.44488611873E+03  0.44521699560E+03  0.47000000000E+01 0. -1.
        -11    1    4    4    0    0 -0.56152643950E+02 -0.91316600635E+01 -0.17183977131E+03  0.18101219197E+03  0.00000000000E+00 0.  1.
         12    1    4    4    0    0 -0.12812735239E+02  0.64845116765E+02 -0.11358513959E+03  0.13141780431E+03  0.00000000000E+00 0. -1.
         -5    1    5    5    0  502  0.95969798232E+02 -0.76440056942E+02 -0.83289947299E+02  0.14836640388E+03  0.47000000000E+01 0.  1.
         13    1    6    6    0    0  0.13795517431E+02 -0.27620516257E+02 -0.24604787602E+02  0.39479169095E+02  0.00000000000E+00 0. -1.
        -14    1    6    6    0    0 -0.26497074028E+02  0.40109844257E+02 -0.34755301656E+02  0.59319689240E+02  0.00000000000E+00 0.  1.
</event>
<event>
12    1  0.1565987E-001  0.2433958E+03  0.7818608E-02  0.1117836E+00
         21   -1    0    0  503  502  0.00000000000E+00  0.00000000000E+00  0.14602780432E+03  0.14602780432E+03  0.00000000000E+00 0.  1.
         21   -1    0    0  501  503 -0.00000000000E+00 -0.00000000000E+00 -0.49257567511E+03  0.49257567511E+03  0.00000000000E+00 0.  1.
          6    2    1    2  501    0 -0.96761550853E+01  0.17082489420E+03 -0.30908082949E+03  0.39234087249E+03  0.17066232335E+03 0.  0.
         24    2    3    3    0    0 -0.53151328226E+02  0.17284663684E+03 -0.24833630377E+03  0.31746654092E+03  0.80081591343E+02 0.  0.
         -6    2    1    2    0  502  0.96761550853E+01 -0.17082489420E+03 -0.37467041302E+02  0.24626260695E+03  0.17310898285E+03 0.  0.
        -24    2    5    5    0    0  0.67579769565E+02 -0.85285022428E+02  0.43315880870E+00  0.13613353086E+03  0.81802141128E+02 0.  0.
          5    1    3    3  501    0  0.43475173141E+02 -0.20217426469E+01 -0.60744525718E+02  0.74874331567E+02  0.47000000000E+01 0. -1.
        -13    1    4    4    0    0 -0.97324469151E+01  0.12547642736E+03 -0.20291758677E+03  0.23877730496E+03  0.00000000000E+00 0.  1.
         14    1    4    4    0    0 -0.43418881311E+02  0.47370209488E+02 -0.45418717000E+02  0.78689235955E+02  0.00000000000E+00 0. -1.
         -5    1    5    5    0  502 -0.57903614480E+02 -0.85539871769E+02 -0.37900200111E+02  0.11012907609E+03  0.47000000000E+01 0.  1.
         13    1    6    6    0    0 -0.88276200991E+00  0.59565338854E+01 -0.19434080981E+02  0.20345590880E+02  0.00000000000E+00 0. -1.
        -14    1    6    6    0    0  0.68462531575E+02 -0.91241556314E+02  0.19867239790E+02  0.11578793998E+03  0.00000000000E+00 0.  1.
</event>
<event>
12    1  0.1565987E-001  0.2123637E+03  0.7818608E-02  0.1140052E+00
         21   -1    0    0  503  502  0.00000000000E+00  0.00000000000E+00  0.24895740798E+03  0.24895740798E+03  0.00000000000E+00 0. -1.
         21   -1    0    0  501  503 -0.00000000000E+00 -0.00000000000E+00 -0.18046949131E+03  0.18046949131E+03  0.00000000000E+00 0. -1.
          6    2    1    2  501    0  0.22645704317E+02 -0.11977860173E+03  0.19653348222E+02  0.21152064033E+03  0.17174104295E+03 0.  0.
         24    2    3    3    0    0 -0.44934230102E+02 -0.67792404198E+02  0.47106164610E+02  0.12182471290E+03  0.77507256606E+02 0.  0.
         -6    2    1    2    0  502 -0.22645704317E+02  0.11977860173E+03  0.48834568449E+02  0.21790625895E+03  0.17389244164E+03 0.  0.
        -24    2    5    5    0    0 -0.58371449766E+02  0.37923806213E+02  0.68363326406E+02  0.12636392544E+03  0.80304769663E+02 0.  0.
          5    1    3    3  501    0  0.67579934419E+02 -0.51986197534E+02 -0.27452816388E+02  0.89695927432E+02  0.47000000000E+01 0. -1.
        -11    1    4    4    0    0 -0.56669699512E+02 -0.21213762994E+02  0.10460034239E+02  0.61407580147E+02  0.00000000000E+00 0.  1.
         12    1    4    4    0    0  0.11735469410E+02 -0.46578641205E+02  0.36646130372E+02  0.60417132752E+02  0.00000000000E+00 0. -1.
         -5    1    5    5    0  502  0.35725745449E+02  0.81854795520E+02 -0.19528757957E+02  0.91542333512E+02  0.47000000000E+01 0.  1.
         13    1    6    6    0    0 -0.68741556355E+01  0.51395703948E+02  0.24312119666E+02  0.57269988324E+02  0.00000000000E+00 0. -1.
        -14    1    6    6    0    0 -0.51497294130E+02 -0.13471897735E+02  0.44051206740E+02  0.69093937119E+02  0.00000000000E+00 0.  1.
</event>
<event>
12    1  0.1565987E-001  0.1813661E+03  0.7818608E-02  0.1166556E+00
         21   -1    0    0  501  502  0.00000000000E+00  0.00000000000E+00  0.23270447471E+03  0.23270447471E+03  0.00000000000E+00 0. -1.
         21   -1    0    0  502  503 -0.00000000000E+00 -0.00000000000E+00 -0.91049887223E+03  0.91049887223E+03  0.00000000000E+00 0. -1.
         -6    2    1    2    0  503  0.57332162955E+02  0.15372342427E+02 -0.86437602616E+03  0.88319849594E+03  0.17137789477E+03 0.  0.
        -24    2    3    3    0    0  0.47601591280E+02  0.60612200606E+02 -0.36421555154E+03  0.38087995243E+03  0.80478691707E+02 0.  0.
          6    2    1    2  501    0 -0.57332162955E+02 -0.15372342427E+02  0.18658162864E+03  0.26000485099E+03  0.17107464036E+03 0.  0.
         24    2    5    5    0    0 -0.85714630046E+02 -0.55402649127E+02  0.15082333076E+03  0.19910546052E+03  0.80491340985E+02 0.  0.
          5    1    5    5  501    0  0.28382467091E+02  0.40030306700E+02  0.35758297872E+02  0.60899390469E+02  0.47000000000E+01 0. -1.
        -11    1    6    6    0    0 -0.58947734539E+02 -0.70488343849E+02  0.79729312393E+02  0.12165609430E+03  0.00000000000E+00 0.  1.
         12    1    6    6    0    0 -0.26766895507E+02  0.15085694722E+02  0.71094018370E+02  0.77449366223E+02  0.00000000000E+00 0. -1.
         -5    1    3    3    0  503  0.97305716749E+01 -0.45239858179E+02 -0.50016047461E+03  0.50231854351E+03  0.47000000000E+01 0.  1.
         11    1    4    4    0    0 -0.40066722542E+01 -0.12136642136E+02 -0.12369002403E+03  0.12434859690E+03  0.00000000000E+00 0. -1.
        -12    1    4    4    0    0  0.51608263534E+02  0.72748842742E+02 -0.24052552751E+03  0.25653135553E+03  0.00000000000E+00 0.  1.
</event>
<event>
12    1  0.1565987E-001  0.2533906E+03  0.7818608E-02  0.1111356E+00
         21   -1    0    0  503  502  0.00000000000E+00  0.00000000000E+00  0.58262007232E+03  0.58262007232E+03  0.00000000000E+00 0. -1.
         21   -1    0    0  501  503 -0.00000000000E+00 -0.00000000000E+00 -0.11713063918E+03  0.11713063918E+03  0.00000000000E+00 0.  1.
          6    2    1    2  501    0  0.16141245591E+03 -0.92015776171E+02  0.32029526855E+03  0.40770940702E+03  0.17063709305E+03 0.  0.
         24    2    3    3    0    0  0.14498155067E+03 -0.12240518360E+03  0.21857551664E+03  0.30018039391E+03  0.79563392359E+02 0.  0.
         -6    2    1    2    0  502 -0.16141245591E+03  0.92015776171E+02  0.14519416460E+03  0.29204130448E+03  0.17229594918E+03 0.  0.
        -24    2    5    5    0    0 -0.18725650098E+03  0.62004348090E+02  0.12567424357E+03  0.24763727542E+03  0.81367489439E+02 0.  0.
          5    1    3    3  501    0  0.16430905241E+02  0.30389407431E+02  0.10171975191E+03  0.10752901311E+03  0.47000000000E+01 0. -1.
        -13    1    4    4    0    0  0.47114297782E+02 -0.91484717070E+02  0.11621520632E+03  0.15522623713E+03  0.00000000000E+00 0.  1.
         14    1    4    4    0    0  0.97867252889E+02 -0.30920466533E+02  0.10236031032E+03  0.14495415678E+03  0.00000000000E+00 0. -1.
         -5    1    5    5    0  502  0.25844045065E+02  0.30011428082E+02  0.19519921021E+02  0.44404029068E+02  0.47000000000E+01 0.  1.
         13    1    6    6    0    0 -0.57901935977E+02  0.48545355736E+02  0.79375463870E+02  0.10958900500E+03  0.00000000000E+00 0. -1.
        -14    1    6    6    0    0 -0.12935456500E+03  0.13458992354E+02  0.46298779705E+02  0.13804827041E+03  0.00000000000E+00 0.  1.
</event>
<event>
12    1  0.1565987E-001  0.1803033E+03  0.7818608E-02  0.1167868E+00
         21   -1    0    0  501  502  0.00000000000E+00  0.00000000000E+00  0.26157334311E+03  0.26157334311E+03  0.00000000000E+00 0.  1.
         21   -1    0    0  502  503 -0.00000000000E+00 -0.00000000000E+00 -0.28214776687E+03  0.28214776687E+03  0.00000000000E+00 0.  1.
         -6    2    1    2    0  503  0.51325867039E+02  0.12323569309E+02 -0.21427405150E+03  0.27909152174E+03  0.17085810890E+03 0.  0.
        -24    2    3    3    0    0 -0.34641498844E+02  0.28632252621E+02 -0.12188877541E+03  0.15175931692E+03  0.78448565110E+02 0.  0.
          6    2    1    2  501    0 -0.51325867039E+02 -0.12323569309E+02  0.19369962774E+03  0.26462958824E+03  0.17240376504E+03 0.  0.
         24    2    5    5    0    0  0.32075290073E+02  0.14395453025E+02  0.88327689808E+02  0.12753475076E+03  0.85013402251E+02 0.  0.
          5    1    5    5  501    0 -0.83401157112E+02 -0.26719022333E+02  0.10537193793E+03  0.13709483749E+03  0.47000000000E+01 0. -1.
        -13    1    6    6    0    0  0.66881609877E+01 -0.13872883485E+02  0.88205318912E+02  0.89539749151E+02  0.00000000000E+00 0.  1.
         14    1    6    6    0    0  0.25387129086E+02  0.28268336510E+02  0.12237089589E+00  0.37995001604E+02  0.00000000000E+00 0. -1.
         -5    1    3    3    0  503  0.85967365882E+02 -0.16308683312E+02 -0.92385276086E+02  0.12733220483E+03  0.47000000000E+01 0.  1.
         13    1    4    4    0    0 -0.13357776049E+01  0.39629582256E+01  0.11417038008E+02  0.12158869051E+02  0.00000000000E+00 0. -1.
        -14    1    4    4    0    0 -0.33305721239E+02  0.24669294395E+02 -0.13330581342E+03  0.13960044787E+03  0.00000000000E+00 0.  1.
</event>
<event>
12    1  0.1565987E-001  0.2660977E+03  0.7818608E-02  0.1105568E+00
         21   -1    0    0  503  502  0.00000000000E+00  0.00000000000E+00  0.45759813039E+02  0.45759813039E+02  0.00000000000E+00 0.  1.
         21   -1    0    0  501  503 -0.00000000000E+00 -0.00000000000E+00 -0.16972342031E+04  0.16972342031E+04  0.00000000000E+00 0.  1.
          6    2    1    2  501    0  0.12636345838E+03 -0.15875860591E+03 -0.11261863614E+04  0.11541515255E+04  0.15032632723E+03 0.  0.
         24    2    3    3    0    0  0.56575353365E+02 -0.15015566283E+03 -0.78489394102E+03  0.80565906297E+03  0.85326041846E+02 0.  0.
         -6    2    1    2    0  502 -0.12636345838E+03  0.15875860591E+03 -0.52528802870E+03  0.58884249067E+03  0.17215094296E+03 0.  0.
        -24    2    5    5    0    0 -0.67239976182E+02  0.73860044734E+02 -0.42822383452E+03  0.44690271602E+03  0.79811431066E+02 0.  0.
          5    1    3    3  501    0  0.69788105016E+02 -0.86029430798E+01 -0.34129242036E+03  0.34849246251E+03  0.47000000000E+01 0. -1.
        -13    1    4    4    0    0  0.46040279352E+02 -0.12262150660E+03 -0.42908521330E+03  0.44863109732E+03  0.00000000000E+00 0.  1.
         14    1    4    4    0    0  0.10535074013E+02 -0.27534156228E+02 -0.35580872771E+03  0.35702796566E+03  0.00000000000E+00 0. -1.
         -5    1    5    5    0  502 -0.59123482199E+02  0.84898561172E+02 -0.97064194177E+02  0.14193977465E+03  0.47000000000E+01 0.  1.
         13    1    6    6    0    0 -0.66177031079E+02  0.13578098542E+02 -0.22844298686E+03  0.23822250618E+03  0.00000000000E+00 0. -1.
        -14    1    6    6    0    0 -0.10629451030E+01  0.60281946192E+02 -0.19978084766E+03  0.20868020984E+03  0.00000000000E+00 0.  1.
</event>
<event>
12    1  0.1565987E-001  0.1743225E+03  0.7818608E-02  0.1173737E+00
         21   -1    0    0  501  502  0.00000000000E+00  0.00000000000E+00  0.18654136038E+03  0.18654136038E+03  0.00000000000E+00 0. -1.
         21   -1    0    0  502  503 -0.00000000000E+00 -0.00000000000E+00 -0.18296220437E+03  0.18296220437E+03  0.00000000000E+00 0. -1.
         -6    2    1    2    0  503  0.83057687452E+01 -0.72046401307E+01 -0.61175625588E+02  0.18354250981E+03  0.17269772177E+03 0.  0.
        -24    2    3    3    0    0 -0.50892430445E+01 -0.34356286081E+02 -0.10088274332E+03  0.13338891155E+03  0.80056349137E+02 0.  0.
          6    2    1    2  501    0 -0.83057687452E+01  0.72046401307E+01  0.64754781599E+02  0.18596105494E+03  0.17397539936E+03 0.  0.
         24    2    5    5    0    0 -0.19640715918E+01  0.32024148786E+01 -0.34213833450E+02  0.86597521920E+02  0.79463396385E+02 0.  0.
          5    1    5    5  501    0 -0.63416971534E+01  0.40022252521E+01  0.98968615049E+02  0.99363533021E+02  0.47000000000E+01 0. -1.
        -13    1    6    6    0    0  0.22530345928E+01 -0.26280133483E+02  0.14049247785E+02  0.29884827991E+02  0.00000000000E+00 0.  1.
         14    1    6    6    0    0 -0.42171061846E+01  0.29482548361E+02 -0.48263081235E+02  0.56712693929E+02  0.00000000000E+00 0. -1.
         -5    1    3    3    0  503  0.13395011790E+02  0.27151645950E+02  0.39707117736E+02  0.50153598251E+02  0.47000000000E+01 0.  1.
         11    1    4    4    0    0 -0.38296644790E+02 -0.25088802487E+02 -0.30489300535E+02  0.55006167468E+02  0.00000000000E+00 0. -1.
        -12    1    4    4    0    0  0.33207401746E+02 -0.92674835943E+01 -0.70393442789E+02  0.78382744087E+02  0.00000000000E+00 0.  1.
</event>
<event>
12    1  0.1565987E-001  0.2301167E+03  0.7818608E-02  0.1126620E+00
         21   -1    0    0  503  502  0.00000000000E+00  0.00000000000E+00  0.35684925115E+02  0.35684925115E+02  0.00000000000E+00 0. -1.
         21   -1    0    0  501  503 -0.00000000000E+00 -0.00000000000E+00 -0.18312442355E+04  0.18312442355E+04  0.00000000000E+00 0. -1.
          6    2    1    2  501    0 -0.87668433992E+02  0.12494555869E+03 -0.49048213251E+03  0.54178079138E+03  0.17221079131E+03 0.  0.
         24    2    3    3    0    0 -0.90208258166E+02  0.84368837100E+02 -0.47538767910E+03  0.49815908159E+03  0.83146825645E+02 0.  0.
         -6    2    1    2    0  502  0.87668433992E+02 -0.12494555869E+03 -0.13050771779E+04  0.13251483692E+04  0.17173995842E+03 0.  0.
        -24    2    5    5    0    0  0.91776076461E+02 -0.21743985951E+02 -0.62430844633E+03  0.63657332381E+03  0.81048820362E+02 0.  0.
          5    1    3    3  501    0  0.25398241735E+01  0.40576721586E+02 -0.15094453412E+02  0.43621709793E+02  0.47000000000E+01 0. -1.
        -13    1    4    4    0    0 -0.31575353653E+02 -0.22317598505E+01 -0.21877961766E+03  0.22105769567E+03  0.00000000000E+00 0.  1.
         14    1    4    4    0    0 -0.58632904513E+02  0.86600596950E+02 -0.25660806144E+03  0.27710138592E+03  0.00000000000E+00 0. -1.
         -5    1    5    5    0  502 -0.41076424687E+01 -0.10320157273E+03 -0.68076873154E+03  0.68857504543E+03  0.47000000000E+01 0.  1.
         13    1    6    6    0    0  0.55995228471E+02 -0.42798772441E+02 -0.51217230014E+03  0.51699870944E+03  0.00000000000E+00 0. -1.
        -14    1    6    6    0    0  0.35780847990E+02  0.21054786491E+02 -0.11213614619E+03  0.11957461436E+03  0.00000000000E+00 0.  1.
</event>
<event>
12    1  0.1565987E-001  0.1952402E+03  0.7818608E-02  0.1153820E+00
         21   -1    0    0  503  502  0.00000000000E+00  0.00000000000E+00  0.34592503475E+02  0.34592503475E+02  0.00000000000E+00 0. -1.
         21   -1    0    0  501  503 -0.00000000000E+00 -0.00000000000E+00 -0.14067892410E+04  0.14067892410E+04  0.00000000000E+00 0. -1.
          6    2    1    2  501    0 -0.90360290592E+02 -0.16749148812E+02 -0.10216304131E+04  0.10401189486E+04  0.17225913657E+03 0.  0.
         24    2    3    3    0    0 -0.93899434081E+02  0.41430945887E+02 -0.56324494552E+03  0.57801855274E+03  0.79542137600E+02 0.  0.
         -6    2    1    2    0  502  0.90360290592E+02  0.16749148812E+02 -0.35056632440E+03  0.40126279587E+03  0.17224856296E+03 0.  0.
        -24    2    5    5    0    0 -0.65359364894E+00  0.29884334662E+02 -0.84497390820E+02  0.11971204085E+03  0.79357816420E+02 0.  0.
          5    1    3    3  501    0  0.35391434888E+01 -0.58180094699E+02 -0.45838546760E+03  0.46210039587E+03  0.47000000000E+01 0. -1.
        -11    1    4    4    0    0 -0.31247696646E+02  0.41459316548E+01 -0.46631014085E+02  0.56285511187E+02  0.00000000000E+00 0.  1.
         12    1    4    4    0    0 -0.62651737434E+02  0.37285014232E+02 -0.51661393144E+03  0.52173304155E+03  0.00000000000E+00 0. -1.
         -5    1    5    5    0  502  0.91013884241E+02 -0.13135185849E+02 -0.26606893358E+03  0.28155075501E+03  0.47000000000E+01 0.  1.
         11    1    6    6    0    0  0.37595722224E+02  0.21217933620E+02 -0.30002231937E+02  0.52571598395E+02  0.00000000000E+00 0. -1.
        -12    1    6    6    0    0 -0.38249315872E+02  0.86664010415E+01 -0.54495158883E+02  0.67140442458E+02  0.00000000000E+00 0.  1.
</event>
<event>
12    1  0.1565987E-001  0.1866095E+03  0.7818608E-02  0.1161895E+00
         21   -1    0    0  501  502  0.00000000000E+00  0.00000000000E+00  0.33067499960E+03  0.33067499960E+03  0.00000000000E+00 0.  1.
         21   -1    0    0  502  503 -0.00000000000E+00 -0.00000000000E+00 -0.12565365838E+03  0.12565365838E+03  0.00000000000E+00 0.  1.
         -6    2    1    2    0  503 -0.26633473757E+02 -0.63089355768E+02  0.85215447844E+01  0.18533919207E+03  0.17201276306E+03 0.  0.
        -24    2    3    3    0    0  0.27081990180E+02  0.11317248125E+02 -0.23252170157E+02  0.88110838541E+02  0.79758022506E+02 0.  0.
          6    2    1    2  501    0  0.26633473757E+02  0.63089355768E+02  0.19649979643E+03  0.27098946591E+03  0.17359006856E+03 0.  0.
         24    2    5    5    0    0 -0.29156563761E+02  0.76786540285E+02  0.17522356528E+03  0.20954917651E+03  0.80382097317E+02 0.  0.
          5    1    5    5  501    0  0.55790037518E+02 -0.13697184516E+02  0.21276231156E+02  0.61440289405E+02  0.47000000000E+01 0. -1.
        -11    1    6    6    0    0  0.20201688092E+02  0.31764037722E+02  0.25136902501E+02  0.45265065575E+02  0.00000000000E+00 0.  1.
         12    1    6    6    0    0 -0.49358251853E+02  0.45022502562E+02  0.15008666277E+03  0.16428411093E+03  0.00000000000E+00 0. -1.
         -5    1    3    3    0  503 -0.53715463937E+02 -0.74406603893E+02  0.31773714942E+02  0.97228353530E+02  0.47000000000E+01 0.  1.
         11    1    4    4    0    0  0.32457017862E+02 -0.28418916454E+02 -0.31477948136E+01  0.43255074073E+02  0.00000000000E+00 0. -1.
        -12    1    4    4    0    0 -0.53750276821E+01  0.39736164578E+02 -0.20104375344E+02  0.44855764467E+02  0.00000000000E+00 0.  1.
</event>
<event>
12    1  0.1565987E-001  0.1764004E+03  0.7818608E-02  0.1171406E+00
         21   -1    0    0  503  502  0.00000000000E+00  0.00000000000E+00  0.92578983254E+02  0.92578983254E+02  0.00000000000E+00 0.  1.
         21   -1    0    0  501  503 -0.00000000000E+00 -0.00000000000E+00 -0.33772889935E+03  0.33772889935E+03  0.00000000000E+00 0.  1.
          6    2    1    2  501    0 -0.30012878545E+02  0.17084902601E+02 -0.13974059135E+03  0.22481278483E+03  0.17268667748E+03 0.  0.
         24    2    3    3    0    0 -0.75645516358E+02  0.46068494612E+02 -0.11511350139E+03  0.16522277057E+03  0.78758462236E+02 0.  0.
         -6    2    1    2    0  502  0.30012878545E+02 -0.17084902601E+02 -0.10540932475E+03  0.20549509777E+03  0.17298682808E+03 0.  0.
        -24    2    5    5    0    0  0.25782411908E+02 -0.77064943908E+02 -0.84318967228E+02  0.14160147224E+03  0.79608732954E+02 0.  0.
          5    1    3    3  501    0  0.45632637813E+02 -0.28983592011E+02 -0.24627089962E+02  0.59590014261E+02  0.47000000000E+01 0. -1.
        -13    1    4    4    0    0 -0.18553258278E+02  0.48426265775E+02 -0.87608601707E+02  0.10180664862E+03  0.00000000000E+00 0.  1.
         14    1    4    4    0    0 -0.57092258080E+02 -0.23577711633E+01 -0.27504899678E+02  0.63416121956E+02  0.00000000000E+00 0. -1.
         -5    1    5    5    0  502  0.42304666367E+01  0.59980041307E+02 -0.21090357523E+02  0.63893625532E+02  0.47000000000E+01 0.  1.
         13    1    6    6    0    0 -0.21422986981E+02 -0.14399642515E+02  0.82054820910E+00  0.25825711512E+02  0.00000000000E+00 0. -1.
        -14    1    6    6    0    0  0.47205398890E+02 -0.62665301393E+02 -0.85139515437E+02  0.11577576073E+03  0.00000000000E+00 0.  1.
</event>
<event>
12    1  0.1565987E-001  0.1746644E+03  0.7818608E-02  0.1173255E+00
         21   -1    0    0  501  502  0.00000000000E+00  0.00000000000E+00  0.53925666992E+02  0.53925666992E+02  0.00000000000E+00 0.  1.
         21   -1    0    0  502  503 -0.00000000000E+00 -0.00000000000E+00 -0.64911670959E+03  0.64911670959E+03  0.00000000000E+00 0.  1.
         -6    2    1    2    0  503 -0.17602167920E+02  0.17635901656E+02 -0.42591563559E+03  0.46033876904E+03  0.17287796939E+03 0.  0.
        -24    2    3    3    0    0 -0.11312857812E+02  0.42979137443E+02 -0.96648937040E+02  0.13000487160E+03  0.74733276407E+02 0.  0.
          6    2    1    2  501    0  0.17602167920E+02 -0.17635901656E+02 -0.16927540702E+03  0.24270360755E+03  0.17213371650E+03 0.  0.
         24    2    5    5    0    0 -0.55825393638E+02 -0.12106726175E+02 -0.81015462872E+02  0.12766410860E+03  0.80446081368E+02 0.  0.
          5    1    5    5  501    0  0.73427561558E+02 -0.55291754808E+01 -0.88259944144E+02  0.11503949895E+03  0.47000000000E+01 0. -1.
        -11    1    6    6    0    0  0.84239558632E+01  0.23634185439E+02 -0.18825382922E+02  0.31367703070E+02  0.00000000000E+00 0.  1.
         12    1    6    6    0    0 -0.64249349501E+02 -0.35740911613E+02 -0.62190079950E+02  0.96296405532E+02  0.00000000000E+00 0. -1.
         -5    1    3    3    0  503 -0.62893101078E+01 -0.25343235788E+02 -0.32926669855E+03  0.33033389743E+03  0.47000000000E+01 0.  1.
         11    1    4    4    0    0 -0.37955429770E+02  0.24280172954E+02 -0.25520626609E+02  0.51782659552E+02  0.00000000000E+00 0. -1.
        -12    1    4    4    0    0  0.26642571958E+02  0.18698964489E+02 -0.71128310431E+02  0.78222212052E+02  0.00000000000E+00 0.  1.
</event>
<event>
12    1  0.1565987E-001  0.2350772E+03  0.7818608E-02  0.1123386E+00
         21   -1    0    0  501  502  0.00000000000E+00  0.00000000000E+00  0.44441084118E+02  0.44441084118E+02  0.00000000000E+00 0. -1.
         21   -1    0    0  502  503 -0.00000000000E+00 -0.00000000000E+00 -0.12995340987E+04  0.12995340987E+04  0.00000000000E+00 0. -1.
         -6    2    1    2    0  503 -0.85543248308E+01 -0.15801254018E+03 -0.77507595870E+03  0.80948695561E+03  0.17171269673E+03 0.  0.
        -24    2    3    3    0    0 -0.36648978106E+02 -0.17730551891E+03 -0.69107206751E+03  0.71871100997E+03  0.78641711160E+02 0.  0.
          6    2    1    2  501    0  0.85543248308E+01  0.15801254018E+03 -0.48001705588E+03  0.53448822720E+03  0.17383944247E+03 0.  0.
         24    2    5    5    0    0 -0.48207424284E+02  0.55026959055E+02 -0.21749291316E+03  0.24679230858E+03  0.90836965605E+02 0.  0.
          5    1    5    5  501    0  0.56761749115E+02  0.10298558113E+03 -0.26252414272E+03  0.28769591862E+03  0.47000000000E+01 0. -1.
        -11    1    6    6    0    0 -0.64888614418E+00  0.26997694733E+02 -0.52800927806E+01  0.27516830375E+02  0.00000000000E+00 0.  1.
         12    1    6    6    0    0 -0.47558538140E+02  0.28029264322E+02 -0.21221282038E+03  0.21927547820E+03  0.00000000000E+00 0. -1.
         -5    1    3    3    0  503  0.28094653275E+02  0.19292978728E+02 -0.84003891190E+02  0.90775945635E+02  0.47000000000E+01 0.  1.
         13    1    4    4    0    0 -0.22057429001E+02 -0.50667210092E+02 -0.35498599347E+03  0.35926139775E+03  0.00000000000E+00 0. -1.
        -14    1    4    4    0    0 -0.14591549106E+02 -0.12663830882E+03 -0.33608607404E+03  0.35944961223E+03  0.00000000000E+00 0.  1.
</event>
<event>
12    1  0.1565987E-001  0.1747968E+03  0.7818608E-02  0.1173016E+00
         21   -1    0    0  501  502  0.00000000000E+00  0.00000000000E+00  0.91199451253E+02  0.91199451253E+02  0.00000000000E+00 0.  1.
         21   -1    0    0  502  503 -0.00000000000E+00 -0.00000000000E+00 -0.33880003917E+03  0.33880003917E+03  0.00000000000E+00 0.  1.
         -6    2    1    2    0  503 -0.12293171825E+02  0.24337762847E+02 -0.99439939514E+02  0.20110252545E+03  0.17265710353E+03 0.  0.
        -24    2    3    3    0    0  0.42661718700E+01 -0.47546399632E+02 -0.85418613922E+02  0.12586801043E+03  0.79167898200E+02 0.  0.
          6    2    1    2  501    0  0.12293171825E+02 -0.24337762847E+02 -0.14816064840E+03  0.22889696497E+03  0.17233338058E+03 0.  0.
         24    2    5    5    0    0  0.27973529266E+02 -0.79945152518E+02 -0.91636837938E+02  0.14793347601E+03  0.79456009879E+02 0.  0.
          5    1    5    5  501    0 -0.15680357441E+02  0.55607389671E+02 -0.56523810464E+02  0.80963488962E+02  0.47000000000E+01 0. -1.
        -13    1    6    6    0    0  0.20940223212E+02  0.38166165257E+01 -0.49551908291E+02  0.53930057715E+02  0.00000000000E+00 0.  1.
         14    1    6    6    0    0  0.70333060536E+01 -0.83761769044E+02 -0.42084929647E+02  0.94003418293E+02  0.00000000000E+00 0. -1.
         -5    1    3    3    0  503 -0.16559343695E+02  0.71884162480E+02 -0.14021325593E+02  0.75234515020E+02  0.47000000000E+01 0.  1.
         11    1    4    4    0    0  0.26795755502E+02 -0.49922343551E+02 -0.26121377784E+02  0.62390538352E+02  0.00000000000E+00 0. -1.
        -12    1    4    4    0    0 -0.22529583632E+02  0.23759439183E+01 -0.59297236138E+02  0.63477472080E+02  0.00000000000E+00 0.  1.
</event>
<event>
12    1  0.1565987E-001  0.2352218E+03  0.7818608E-02  0.1123037E+00
         21   -1    0    0  501  502  0.00000000000E+00  0.00000000000E+00  0.24969177152E+04  0.24969177152E+04  0.00000000000E+00 0. -1.
         21   -1    0    0  502  503 -0.00000000000E+00 -0.00000000000E+00 -0.22185224081E+02  0.22185224081E+02  0.00000000000E+00 0. -1.
         -6    2    1    2    0  503 -0.10400230901E+02  0.15982820021E+03  0.12885121026E+04  0.13097857289E+04  0.17211042615E+03 0.  0.
        -24    2    3    3    0    0  0.36671760534E+02  0.75156833520E+02  0.94766106095E+03  0.95540382293E+03  0.87986423774E+02 0.  0.
          6    2    1    2  501    0  0.10400230901E+02 -0.15982820021E+03  0.11862203886E+04  0.12093172104E+04  0.17226748595E+03 0.  0.
         24    2    5    5    0    0  0.34226983883E+02 -0.14992078830E+02  0.40008449047E+03  0.40958165630E+03  0.79330226294E+02 0.  0.
          5    1    5    5  501    0 -0.23826752982E+02 -0.14483612138E+03  0.78613589811E+03  0.79973555411E+03  0.47000000000E+01 0. -1.
        -13    1    6    6    0    0 -0.19313956709E+02 -0.83524781014E+01  0.37459056588E+02  0.42964796458E+02  0.00000000000E+00 0.  1.
         14    1    6    6    0    0  0.53540940592E+02 -0.66396007290E+01  0.36262543389E+03  0.36661685984E+03  0.00000000000E+00 0. -1.
         -5    1    3    3    0  503 -0.47071991435E+02  0.84671366691E+02  0.34085104163E+03  0.35438190599E+03  0.47000000000E+01 0.  1.
         13    1    4    4    0    0  0.53049505149E+02  0.65998620519E+02  0.48315663286E+03  0.49052053961E+03  0.00000000000E+00 0. -1.
        -14    1    4    4    0    0 -0.16377744615E+02  0.91582130017E+01  0.46450442810E+03  0.46488328331E+03  0.00000000000E+00 0.  1.
</event>
<event>
12    1  0.1565987E-001  0.1882829E+03  0.7818608E-02  0.1160060E+00
         21   -1    0    0  501  502  0.00000000000E+00  0.00000000000E+00  0.27957328625E+03  0.27957328625E+03  0.00000000000E+00 0.  1.
         21   -1    0    0  502  503 -0.00000000000E+00 -0.00000000000E+00 -0.14456748135E+03  0.14456748135E+03  0.00000000000E+00 0. -1.
         -6    2    1    2    0  503 -0.35520807919E+01 -0.75447979667E+02  0.14206662743E+03  0.23572556285E+03  0.17227477888E+03 0.  0.
        -24    2    3    3    0    0 -0.41232956648E+02 -0.66347255867E+02  0.15516701410E+03  0.19453840817E+03  0.87557266488E+02 0.  0.
          6    2    1    2  501    0  0.35520807919E+01  0.75447979667E+02 -0.70608225263E+01  0.18841520475E+03  0.17246860367E+03 0.  0.
         24    2    5    5    0    0 -0.39541858934E+02 -0.72822275684E+01  0.19796662184E+02  0.91230898836E+02  0.79464329246E+02 0.  0.
          5    1    5    5  501    0  0.43093939726E+02  0.82730207235E+02 -0.26857484710E+02  0.97184305910E+02  0.47000000000E+01 0. -1.
        -13    1    6    6    0    0 -0.50908386466E+02 -0.10651708674E+01 -0.15828592362E+02  0.53323003832E+02  0.00000000000E+00 0.  1.
         14    1    6    6    0    0  0.11366527532E+02 -0.62170567011E+01  0.35625254546E+02  0.37907895004E+02  0.00000000000E+00 0. -1.
         -5    1    3    3    0  503  0.37680875856E+02 -0.91007238002E+01 -0.13100386676E+02  0.41187154672E+02  0.47000000000E+01 0.  1.
         11    1    4    4    0    0 -0.45361993262E+02 -0.18803399434E+02  0.23399270236E+02  0.54394890482E+02  0.00000000000E+00 0. -1.
        -12    1    4    4    0    0  0.41290366142E+01 -0.47543856433E+02  0.13176774386E+03  0.14014351769E+03  0.00000000000E+00 0.  1.
</event>
<event>
12    1  0.1565987E-001  0.1949840E+03  0.7818608E-02  0.1154233E+00
         21   -1    0    0  503  502  0.00000000000E+00  0.00000000000E+00  0.19836250780E+03  0.19836250780E+03  0.00000000000E+00 0. -1.
         21   -1    0    0  501  503 -0.00000000000E+00 -0.00000000000E+00 -0.69287991456E+03  0.69287991456E+03  0.00000000000E+00 0. -1.
          6    2    1    2  501    0 -0.89040400719E+02 -0.16795642636E+02 -0.62643966455E+03  0.65582310233E+03  0.17165955157E+03 0.  0.
         24    2    3    3    0    0 -0.81390566668E+02 -0.47254620496E+02 -0.26756594305E+03  0.29554722570E+03  0.83061454582E+02 0.  0.
         -6    2    1    2    0  502  0.89040400719E+02  0.16795642636E+02  0.13192225779E+03  0.23541932003E+03  0.17265134686E+03 0.  0.
        -24    2    5    5    0    0  0.22228271730E+01  0.46886184568E+02  0.30827312618E+02  0.98726197569E+02  0.81199037058E+02 0.  0.
          5    1    3    3  501    0 -0.76498340512E+01  0.30458977861E+02 -0.35887372150E+03  0.36027587662E+03  0.47000000000E+01 0. -1.
        -11    1    4    4    0    0 -0.26615323377E+02 -0.39461659985E+02 -0.21145843380E+03  0.21674931897E+03  0.00000000000E+00 0.  1.
         12    1    4    4    0    0 -0.54775243292E+02 -0.77929605115E+01 -0.56107509250E+02  0.78797906733E+02  0.00000000000E+00 0. -1.
         -5    1    5    5    0  502  0.86817573546E+02 -0.30090541932E+02  0.10109494517E+03  0.13669312246E+03  0.47000000000E+01 0.  1.
         11    1    6    6    0    0 -0.39327889044E+02  0.19113809258E+02  0.12284137225E+02  0.45419385601E+02  0.00000000000E+00 0. -1.
        -12    1    6    6    0    0  0.41550716217E+02  0.27772375309E+02  0.18543175393E+02  0.53306811968E+02  0.00000000000E+00 0.  1.
</event>
<event>
12    1  0.1565987E-001  0.2897713E+03  0.7818608E-02  0.1090470E+00
         21   -1    0    0  503  502  0.00000000000E+00  0.00000000000E+00  0.13731366028E+04  0.13731366028E+04  0.00000000000E+00 0.  1.
         21   -1    0    0  501  503 -0.00000000000E+00 -0.00000000000E+00 -0.75063480011E+02  0.75063480011E+02  0.00000000000E+00 0. -1.
          6    2    1    2  501    0 -0.20283604525E+03 -0.11585391678E+03  0.96079713240E+03  0.10035400858E+04  0.17145548356E+03 0.  0.
         24    2    3    3    0    0 -0.11459883079E+03 -0.43221740905E+02  0.30995623089E+03  0.34272452295E+03  0.79913845241E+02 0.  0.
         -6    2    1    2    0  502  0.20283604525E+03  0.11585391678E+03  0.33727599038E+03  0.44465999702E+03  0.17147252836E+03 0.  0.
        -24    2    5    5    0    0  0.42335409322E+02 -0.12893220741E+02  0.93180725769E+02  0.12537819711E+03  0.71263753984E+02 0.  0.
          5    1    3    3  501    0 -0.88237214458E+02 -0.72632175875E+02  0.65084090151E+03  0.66081556282E+03  0.47000000000E+01 0. -1.
        -11    1    4    4    0    0 -0.37773381353E+02 -0.56711614906E+02  0.13811633282E+03  0.15401024964E+03  0.00000000000E+00 0.  1.
         12    1    4    4    0    0 -0.76825449439E+02  0.13489874001E+02  0.17183989807E+03  0.18871427331E+03  0.00000000000E+00 0. -1.
         -5    1    5    5    0  502  0.16050063593E+03  0.12874713752E+03  0.24409526461E+03  0.31928179991E+03  0.47000000000E+01 0.  1.
         13    1    6    6    0    0  0.34437542836E+02  0.11323278806E+02  0.88936681263E+01  0.37326375825E+02  0.00000000000E+00 0. -1.
        -14    1    6    6    0    0  0.78978664860E+01 -0.24216499546E+02  0.84287057643E+02  0.88051821284E+02  0.00000000000E+00 0.  1.
</event>
<event>
12    1  0.1565987E-001  0.2491293E+03  0.7818608E-02  0.1114245E+00
         21   -1    0    0  501  502  0.00000000000E+00  0.00000000000E+00  0.19792080883E+03  0.19792080883E+03  0.00000000000E+00 0. -1.
         21   -1    0    0  502  503 -0.00000000000E+00 -0.00000000000E+00 -0.50158804550E+03  0.50158804550E+03  0.00000000000E+00 0.  1.
         -6    2    1    2    0  503 -0.48472767755E+02  0.16919733717E+03 -0.36815584162E+03  0.44452688587E+03  0.17631812278E+03 0.  0.
        -24    2    3    3    0    0  0.11752566018E+02  0.45079351595E+02 -0.70900304687E+02  0.11678413704E+03  0.80258399632E+02 0.  0.
          6    2    1    2  501    0  0.48472767755E+02 -0.16919733717E+03  0.64488604947E+02  0.25498196846E+03  0.17285738617E+03 0.  0.
         24    2    5    5    0    0 -0.31540090316E+01 -0.12363713454E+03 -0.16871556086E+02  0.14829259716E+03  0.80062201801E+02 0.  0.
          5    1    5    5  501    0  0.51626776786E+02 -0.45560202627E+02  0.81360161033E+02  0.10668937130E+03  0.47000000000E+01 0. -1.
        -13    1    6    6    0    0 -0.12176567238E+02 -0.11606394735E+03  0.11799559072E+02  0.11729594306E+03  0.00000000000E+00 0.  1.
         14    1    6    6    0    0  0.90225582065E+01 -0.75731871873E+01 -0.28671115158E+02  0.30996654096E+02  0.00000000000E+00 0. -1.
         -5    1    3    3    0  503 -0.60225333772E+02  0.12411798557E+03 -0.29725553693E+03  0.32774274883E+03  0.47000000000E+01 0.  1.
         13    1    4    4    0    0  0.39804637004E+02  0.50420398821E+02 -0.48560472867E+02  0.80527916087E+02  0.00000000000E+00 0. -1.
        -14    1    4    4    0    0 -0.28052070986E+02 -0.53410472266E+01 -0.22339831819E+02  0.36256220953E+02  0.00000000000E+00 0.  1.
</event>
<event>
12    1  0.1565987E-001  0.1973278E+03  0.7818608E-02  0.1152364E+00
         21   -1    0    0  501  502  0.00000000000E+00  0.00000000000E+00  0.16012334354E+03  0.16012334354E+03  0.00000000000E+00 0. -1.
         21   -1    0    0  502  503 -0.00000000000E+00 -0.00000000000E+00 -0.28180171451E+03  0.28180171451E+03  0.00000000000E+00 0.  1.
         -6    2    1    2    0  503  0.85894287260E+02 -0.27957094503E+02 -0.14495172624E+03  0.24484538789E+03  0.17543897319E+03 0.  0.
        -24    2    3    3    0    0  0.39754615754E+02 -0.68364696628E+02 -0.14505376700E+03  0.18333324268E+03  0.79475287549E+02 0.  0.
          6    2    1    2  501    0 -0.85894287260E+02  0.27957094503E+02  0.23273355270E+02  0.19707967017E+03  0.17360679598E+03 0.  0.
         24    2    5    5    0    0  0.75551763882E-01  0.53660770025E+02 -0.36602216353E+01  0.10327668662E+03  0.88165712322E+02 0.  0.
          5    1    5    5  501    0 -0.85969839024E+02 -0.25703675522E+02  0.26933576905E+02  0.93802983545E+02  0.47000000000E+01 0. -1.
        -13    1    6    6    0    0 -0.27492328686E+02 -0.13475479541E+02 -0.19824935414E+01  0.30681378164E+02  0.00000000000E+00 0.  1.
         14    1    6    6    0    0  0.27567880449E+02  0.67136249567E+02 -0.16777280939E+01  0.72595308457E+02  0.00000000000E+00 0. -1.
         -5    1    3    3    0  503  0.46139671506E+02  0.40407602125E+02  0.10204076428E+00  0.61512145211E+02  0.47000000000E+01 0.  1.
         11    1    4    4    0    0  0.32816373227E+02 -0.33081074665E+02 -0.15850081244E+02  0.49218867604E+02  0.00000000000E+00 0. -1.
        -12    1    4    4    0    0  0.69382425269E+01 -0.35283621963E+02 -0.12920368576E+03  0.13411437508E+03  0.00000000000E+00 0.  1.
</event>
<event>
12    1  0.1565987E-001  0.2123039E+03  0.7818608E-02  0.1141252E+00
         21   -1    0    0  501  502  0.00000000000E+00  0.00000000000E+00  0.18496113633E+03  0.18496113633E+03  0.00000000000E+00 0. -1.
         21   -1    0    0  502  503 -0.00000000000E+00 -0.00000000000E+00 -0.41620118378E+03  0.41620118378E+03  0.00000000000E+00 0. -1.
         -6    2    1    2    0  503  0.20865423198E+02 -0.12189607318E+03 -0.31504164096E+03  0.37990024474E+03  0.17256576101E+03 0.  0.
        -24    2    3    3    0    0  0.67952529084E+02 -0.12704996989E+03 -0.24730617117E+03  0.29711170652E+03  0.79723163493E+02 0.  0.
          6    2    1    2  501    0 -0.20865423198E+02  0.12189607318E+03  0.83801593516E+02  0.22126207537E+03  0.16321819868E+03 0.  0.
         24    2    5    5    0    0 -0.61507958660E+02  0.35457233802E+02  0.49749989060E+02  0.11974808418E+03  0.82608097941E+02 0.  0.
          5    1    5    5  501    0  0.40642535462E+02  0.86438839376E+02  0.34051604456E+02  0.10151399119E+03  0.47000000000E+01 0. -1.
        -13    1    6    6    0    0 -0.35764028534E+02  0.29287179497E+01  0.66057471531E+02  0.75174681050E+02  0.00000000000E+00 0.  1.
         14    1    6    6    0    0 -0.25743930126E+02  0.32528515852E+02 -0.16307482471E+02  0.44573403128E+02  0.00000000000E+00 0. -1.
         -5    1    3    3    0  503 -0.47087105886E+02  0.51538967106E+01 -0.67735469796E+02  0.82788538220E+02  0.47000000000E+01 0.  1.
         11    1    4    4    0    0  0.17053343623E+02 -0.37422820154E+02 -0.14938230806E+03  0.15493985271E+03  0.00000000000E+00 0. -1.
        -12    1    4    4    0    0  0.50899185460E+02 -0.89627149735E+02 -0.97923863110E+02  0.14217185381E+03  0.00000000000E+00 0.  1.
</event>
<event>
12    1  0.1565987E-001  0.1775106E+03  0.7818608E-02  0.1170883E+00
         21   -1    0    0  501  502  0.00000000000E+00  0.00000000000E+00  0.76182090266E+03  0.76182090266E+03  0.00000000000E+00 0.  1.
         21   -1    0    0  502  503 -0.00000000000E+00 -0.00000000000E+00 -0.40922936308E+02  0.40922936308E+02  0.00000000000E+00 0.  1.
         -6    2    1    2    0  503 -0.18292081900E+02  0.34796597235E+02  0.38348138227E+03  0.42148283422E+03  0.17042419299E+03 0.  0.
        -24    2    3    3    0    0  0.31019651544E+02  0.10872774323E+02  0.95386751805E+02  0.12818332440E+03  0.79068933418E+02 0.  0.
          6    2    1    2  501    0  0.18292081900E+02 -0.34796597235E+02  0.33741658409E+03  0.38126100475E+03  0.17310285696E+03 0.  0.
         24    2    5    5    0    0  0.70878775716E+02 -0.16164191123E+02  0.28202316008E+03  0.30250157137E+03  0.81762191346E+02 0.  0.
          5    1    5    5  501    0 -0.52586693816E+02 -0.18632406112E+02  0.55393424002E+02  0.78759433382E+02  0.47000000000E+01 0. -1.
        -13    1    6    6    0    0  0.73769375292E+02 -0.21582424273E+02  0.13497608810E+03  0.15532632142E+03  0.00000000000E+00 0.  1.
         14    1    6    6    0    0 -0.28905995756E+01  0.54182331499E+01  0.14704707199E+03  0.14717524994E+03  0.00000000000E+00 0. -1.
         -5    1    3    3    0  503 -0.49311733443E+02  0.23923822911E+02  0.28809463046E+03  0.29329950982E+03  0.47000000000E+01 0.  1.
         11    1    4    4    0    0  0.54047497393E+01 -0.33636155138E+02  0.42462253274E+02  0.54439371831E+02  0.00000000000E+00 0. -1.
        -12    1    4    4    0    0  0.25614901804E+02  0.44508929462E+02  0.52924498530E+02  0.73743952572E+02  0.00000000000E+00 0.  1.
</event>
<event>
12    1  0.1565987E-001  0.1940547E+03  0.7818608E-02  0.1155030E+00
         21   -1    0    0  501  502  0.00000000000E+00  0.00000000000E+00  0.30973466370E+03  0.30973466370E+03  0.00000000000E+00 0. -1.
         21   -1    0    0  502  503 -0.00000000000E+00 -0.00000000000E+00 -0.13263182918E+03  0.13263182918E+03  0.00000000000E+00 0. -1.
         -6    2    1    2    0  503  0.21302827820E+02  0.88191318696E+02  0.23439371100E+02  0.19546518538E+03  0.17153925327E+03 0.  0.
        -24    2    3    3    0    0  0.16627923124E+02  0.17857222036E+02  0.75770397273E+02  0.10754837136E+03  0.72319643761E+02 0.  0.
          6    2    1    2  501    0 -0.21302827820E+02 -0.88191318696E+02  0.15366346342E+03  0.24690130750E+03  0.17063492166E+03 0.  0.
         24    2    5    5    0    0  0.44966207975E+02 -0.27990394476E+02  0.11286830124E+03  0.14840221289E+03  0.80489386395E+02 0.  0.
          5    1    5    5  501    0 -0.66269035794E+02 -0.60200924220E+02  0.40795162172E+02  0.98499094609E+02  0.47000000000E+01 0. -1.
        -11    1    6    6    0    0  0.47579713326E+02 -0.32544641801E+02  0.29291190404E+02  0.64660317548E+02  0.00000000000E+00 0.  1.
         12    1    6    6    0    0 -0.26135053517E+01  0.45542473250E+01  0.83577110840E+02  0.83741895341E+02  0.00000000000E+00 0. -1.
         -5    1    3    3    0  503  0.46749046956E+01  0.70334096660E+02 -0.52331026172E+02  0.87916814018E+02  0.47000000000E+01 0.  1.
         13    1    4    4    0    0  0.31593680180E+02 -0.13162619208E+02  0.14312865713E+02  0.37098157591E+02  0.00000000000E+00 0. -1.
        -14    1    4    4    0    0 -0.14965757056E+02  0.31019841244E+02  0.61457531560E+02  0.70450213772E+02  0.00000000000E+00 0.  1.
</event>
<event>
12    1  0.1565987E-001  0.2198467E+03  0.7818608E-02  0.1134260E+00
         21   -1    0    0  501  502  0.00000000000E+00  0.00000000000E+00  0.52894202168E+02  0.52894202168E+02  0.00000000000E+00 0.  1.
         21   -1    0    0  502  503 -0.00000000000E+00 -0.00000000000E+00 -0.92141613793E+03  0.92141613793E+03  0.00000000000E+00 0. -1.
         -6    2    1    2    0  503 -0.63897351948E+02  0.11990883807E+03 -0.37398169893E+03  0.43310554941E+03  0.17104708346E+03 0.  0.
        -24    2    3    3    0    0 -0.76810419526E+02  0.70713542209E+02 -0.35472737837E+03  0.37851852431E+03  0.80898174764E+02 0.  0.
          6    2    1    2  501    0  0.63897351948E+02 -0.11990883807E+03 -0.49454023683E+03  0.54120479068E+03  0.17283396247E+03 0.  0.
         24    2    5    5    0    0 -0.17276975743E+02 -0.81175923923E+02 -0.17739295118E+03  0.21151705827E+03  0.79894820189E+02 0.  0.
          5    1    5    5  501    0  0.81174327692E+02 -0.38732914152E+02 -0.31714728564E+03  0.32968773242E+03  0.47000000000E+01 0. -1.
        -13    1    6    6    0    0  0.14292042122E+01 -0.62608701252E+01  0.82507623903E+01  0.10455438749E+02  0.00000000000E+00 0.  1.
         14    1    6    6    0    0 -0.18706179956E+02 -0.74915053797E+02 -0.18564371357E+03  0.20106161952E+03  0.00000000000E+00 0. -1.
         -5    1    3    3    0  503  0.12913067578E+02  0.49195295866E+02 -0.19254320568E+02  0.54587025108E+02  0.47000000000E+01 0.  1.
         13    1    4    4    0    0 -0.10781067275E+02 -0.35433663784E+01 -0.13409871250E+01  0.11427383924E+02  0.00000000000E+00 0. -1.
        -14    1    4    4    0    0 -0.66029352251E+02  0.74256908587E+02 -0.35338639124E+03  0.36709114038E+03  0.00000000000E+00 0.  1.
</event>
<event>
12    1  0.1565987E-001  0.2480443E+03  0.7818608E-02  0.1115826E+00
         21   -1    0    0  501  502  0.00000000000E+00  0.00000000000E+00  0.18689026295E+03  0.18689026295E+03  0.00000000000E+00 0.  1.
         21   -1    0    0  502  503 -0.00000000000E+00 -0.00000000000E+00 -0.34636796893E+03  0.34636796893E+03  0.00000000000E+00 0.  1.
         -6    2    1    2    0  503  0.11212349279E+03  0.13686642389E+03 -0.15608450992E+03  0.29306713721E+03  0.17384440472E+03 0.  0.
        -24    2    3    3    0    0  0.10136526187E+03  0.34506724016E+02 -0.41981595382E+02  0.13933095801E+03  0.78644969274E+02 0.  0.
          6    2    1    2  501    0 -0.11212349279E+03 -0.13686642389E+03 -0.33931960597E+01  0.24019109466E+03  0.16240736605E+03 0.  0.
         24    2    5    5    0    0 -0.10950099408E+03 -0.14770786668E+03 -0.37754476288E+02  0.20376031152E+03  0.79276620060E+02 0.  0.
          5    1    5    5  501    0 -0.26224987162E+01  0.10841442786E+02  0.34361280228E+02  0.36430783139E+02  0.47000000000E+01 0. -1.
        -13    1    6    6    0    0 -0.52184736700E+02 -0.37181940951E+02  0.19139204343E+02  0.66873407422E+02  0.00000000000E+00 0.  1.
         14    1    6    6    0    0 -0.57316257377E+02 -0.11052592573E+03 -0.56893680631E+02  0.13688690410E+03  0.00000000000E+00 0. -1.
         -5    1    3    3    0  503  0.10758230924E+02  0.10235969988E+03 -0.11410291454E+03  0.15373617921E+03  0.47000000000E+01 0.  1.
         11    1    4    4    0    0  0.46142649411E+02 -0.10059620297E+02  0.13651922890E+02  0.49160096153E+02  0.00000000000E+00 0. -1.
        -12    1    4    4    0    0  0.55222612458E+02  0.44566344313E+02 -0.55633518272E+02  0.90170861854E+02  0.00000000000E+00 0.  1.
</event>
<event>
12    1  0.1565987E-001  0.1910096E+03  0.7818608E-02  0.1157562E+00
         21   -1    0    0  503  502  0.00000000000E+00  0.00000000000E+00  0.27051622993E+03  0.27051622993E+03  0.00000000000E+00 0. -1.
         21   -1    0    0  501  503 -0.00000000000E+00 -0.00000000000E+00 -0.28696627591E+03  0.28696627591E+03  0.00000000000E+00 0. -1.
          6    2    1    2  501    0 -0.77059289366E+02 -0.29496608140E+02 -0.21117104459E+03  0.28471716955E+03  0.17222796693E+03 0.  0.
         24    2    3    3    0    0 -0.39490704328E+02 -0.72017790029E+02 -0.72376218569E+02  0.13469869328E+03  0.78481482838E+02 0.  0.
         -6    2    1    2    0  502  0.77059289366E+02  0.29496608140E+02  0.19472099861E+03  0.27276533628E+03  0.17226861991E+03 0.  0.
        -24    2    5    5    0    0  0.42529716760E+02 -0.51109293052E+02  0.11312864833E+03  0.15289455453E+03  0.78471122653E+02 0.  0.
          5    1    3    3  501    0 -0.37568585038E+02  0.42521181889E+02 -0.13879482602E+03  0.15001847627E+03  0.47000000000E+01 0. -1.
        -11    1    4    4    0    0  0.60174655487E+01 -0.17498832692E+01  0.13428933981E+02  0.14819185233E+02  0.00000000000E+00 0.  1.
         12    1    4    4    0    0 -0.45508169877E+02 -0.70267906760E+02 -0.85805152551E+02  0.11987950805E+03  0.00000000000E+00 0. -1.
         -5    1    5    5    0  502  0.34529572606E+02  0.80605901192E+02  0.81592350289E+02  0.11987078175E+03  0.47000000000E+01 0.  1.
         11    1    6    6    0    0  0.23982181387E+02  0.17300174917E+02  0.49420541594E+02  0.57591935266E+02  0.00000000000E+00 0. -1.
        -12    1    6    6    0    0  0.18547535373E+02 -0.68409467969E+02  0.63708106731E+02  0.95302619268E+02  0.00000000000E+00 0.  1.
</event>
<event>
12    1  0.1565987E-001  0.1795282E+03  0.7818608E-02  0.1168928E+00
         21   -1    0    0  501  502  0.00000000000E+00  0.00000000000E+00  0.24929571117E+03  0.24929571117E+03  0.00000000000E+00 0. -1.
         21   -1    0    0  502  503 -0.00000000000E+00 -0.00000000000E+00 -0.33077212048E+03  0.33077212048E+03  0.00000000000E+00 0. -1.
         -6    2    1    2    0  503  0.46330527843E+02 -0.15947990307E+02 -0.26807623756E+03  0.32112794403E+03  0.16987475117E+03 0.  0.
        -24    2    3    3    0    0 -0.18794011924E+02  0.39102614849E+02 -0.12278512749E+03  0.15259494586E+03  0.79541188043E+02 0.  0.
          6    2    1    2  501    0 -0.46330527843E+02  0.15947990307E+02  0.18659982825E+03  0.25893988762E+03  0.17271222683E+03 0.  0.
         24    2    5    5    0    0 -0.60190959204E+02  0.36308976525E+02  0.20444475556E+03  0.22816306602E+03  0.72934445042E+02 0.  0.
          5    1    5    5  501    0  0.13860431361E+02 -0.20360986218E+02 -0.17844927312E+02  0.30776821605E+02  0.47000000000E+01 0. -1.
        -13    1    6    6    0    0 -0.35377933025E+02  0.99430572988E+01  0.23473910940E+02  0.43606043484E+02  0.00000000000E+00 0.  1.
         14    1    6    6    0    0 -0.24813026179E+02  0.26365919227E+02  0.18097084462E+03  0.18455702253E+03  0.00000000000E+00 0. -1.
         -5    1    3    3    0  503  0.65124539767E+02 -0.55050605156E+02 -0.14529111007E+03  0.16853299817E+03  0.47000000000E+01 0.  1.
         11    1    4    4    0    0 -0.40721539539E+01 -0.20473359088E+02 -0.65124586309E+02  0.68388249079E+02  0.00000000000E+00 0. -1.
        -12    1    4    4    0    0 -0.14721857971E+02  0.59575973937E+02 -0.57660541185E+02  0.84206696778E+02  0.00000000000E+00 0.  1.
</event>
<event>
12    1  0.1565987E-001  0.1863571E+03  0.7818608E-02  0.1162094E+00
         21   -1    0    0  503  502  0.00000000000E+00  0.00000000000E+00  0.64777099708E+02  0.64777099708E+02  0.00000000000E+00 0. -1.
         21   -1    0    0  501  503 -0.00000000000E+00 -0.00000000000E+00 -0.11431558245E+04  0.11431558245E+04  0.00000000000E+00 0. -1.
          6    2    1    2  501    0 -0.16946242634E+02  0.68931360716E+02 -0.98155551154E+03  0.99908967701E+03  0.17230859771E+03 0.  0.
         24    2    3    3    0    0 -0.51913912792E+02  0.92041264054E+01 -0.18833014878E+03  0.20283679846E+03  0.53802895699E+02 0.  0.
         -6    2    1    2    0  502  0.16946242634E+02 -0.68931360716E+02 -0.96823213298E+02  0.20884324724E+03  0.17088610141E+03 0.  0.
        -24    2    5    5    0    0  0.69806139729E+02 -0.78908552852E+02 -0.71479926122E+02  0.14919355916E+03  0.77780983529E+02 0.  0.
          5    1    3    3  501    0  0.34967670158E+02  0.59727234311E+02 -0.79322536276E+03  0.79625287855E+03  0.47000000000E+01 0. -1.
        -11    1    4    4    0    0 -0.42419476261E+02 -0.70486403927E+01 -0.17384884056E+03  0.17908800814E+03  0.00000000000E+00 0.  1.
         12    1    4    4    0    0 -0.94944365306E+01  0.16252766798E+02 -0.14481308222E+02  0.23748790315E+02  0.00000000000E+00 0. -1.
         -5    1    5    5    0  502 -0.52859897095E+02  0.99771921356E+01 -0.25343287177E+02  0.59649688086E+02  0.47000000000E+01 0.  1.
         13    1    6    6    0    0  0.26384999352E+02 -0.55191698013E+02  0.13010799399E+01  0.61188107745E+02  0.00000000000E+00 0. -1.
        -14    1    6    6    0    0  0.43421140377E+02 -0.23716854839E+02 -0.72781006062E+02  0.88005451413E+02  0.00000000000E+00 0.  1.
</event>
<event>
12    1  0.1565987E-001  0.1916104E+03  0.7818608E-02  0.1159140E+00
         21   -1    0    0  503  502  0.00000000000E+00  0.00000000000E+00  0.14429035083E+03  0.14429035083E+03  0.00000000000E+00 0. -1.
         21   -1    0    0  501  503 -0.00000000000E+00 -0.00000000000E+00 -0.47364023615E+03  0.47364023615E+03  0.00000000000E+00 0. -1.
          6    2    1    2  501    0 -0.39396023641E+02  0.46000579740E+02 -0.38266339163E+03  0.42795537931E+03  0.18178678546E+03 0.  0.
         24    2    3    3    0    0  0.34891183422E+02  0.64267987432E+02 -0.17206029809E+03  0.20383924796E+03  0.81227605797E+02 0.  0.
         -6    2    1    2    0  502  0.39396023641E+02 -0.46000579740E+02  0.53313506303E+02  0.18997520767E+03  0.17198880650E+03 0.  0.
        -24    2    5    5    0    0 -0.41771993463E+02 -0.35689855922E+02  0.45681609546E+02  0.10766546418E+03  0.80538049843E+02 0.  0.
          5    1    3    3  501    0 -0.74287207064E+02 -0.18267407692E+02 -0.21060309354E+03  0.22411613134E+03  0.47000000000E+01 0. -1.
        -11    1    4    4    0    0 -0.14967919760E+02 -0.89438417029E+01 -0.12894361315E+02  0.21686297058E+02  0.00000000000E+00 0.  1.
         12    1    4    4    0    0  0.49859103182E+02  0.73211829135E+02 -0.15916593677E+03  0.18215295091E+03  0.00000000000E+00 0. -1.
         -5    1    5    5    0  502  0.81168017105E+02 -0.10310723818E+02  0.76318967572E+01  0.82309743496E+02  0.47000000000E+01 0.  1.
         13    1    6    6    0    0  0.88126381890E+01 -0.42267563961E+02  0.34924319252E+02  0.55533031884E+02  0.00000000000E+00 0. -1.
        -14    1    6    6    0    0 -0.50584631652E+02  0.65777080392E+01  0.10757290294E+02  0.52132432294E+02  0.00000000000E+00 0.  1.
</event>
<event>
12    1  0.1565987E-001  0.1970219E+03  0.7818608E-02  0.1152591E+00
         21   -1    0    0  501  502  0.00000000000E+00  0.00000000000E+00  0.13806112505E+03  0.13806112505E+03  0.00000000000E+00 0. -1.
         21   -1    0    0  502  503 -0.00000000000E+00 -0.00000000000E+00 -0.27916374973E+03  0.27916374973E+03  0.00000000000E+00 0. -1.
         -6    2    1    2    0  503 -0.85998771834E+02  0.43661743396E+02 -0.67363653096E+02  0.20821984273E+03  0.17180076995E+03 0.  0.
        -24    2    3    3    0    0 -0.12218538195E+03  0.86909914111E+01 -0.49639478413E+02  0.15465996395E+03  0.80317032678E+02 0.  0.
          6    2    1    2  501    0  0.85998771834E+02 -0.43661743396E+02 -0.73738971581E+02  0.20900503205E+03  0.17012798389E+03 0.  0.
         24    2    5    5    0    0  0.99968772853E+02 -0.73907748337E+02 -0.88305785938E+02  0.17234082848E+03  0.80295320660E+02 0.  0.
          5    1    5    5  501    0 -0.13970001019E+02  0.30246004942E+02  0.14566814358E+02  0.36664203577E+02  0.47000000000E+01 0. -1.
        -11    1    6    6    0    0  0.48860615528E+02 -0.40563731727E+01 -0.47611369629E+00  0.49031016687E+02  0.00000000000E+00 0.  1.
         12    1    6    6    0    0  0.51108157325E+02 -0.69851375165E+02 -0.87829672242E+02  0.12330981179E+03  0.00000000000E+00 0. -1.
         -5    1    3    3    0  503  0.36186610119E+02  0.34970751985E+02 -0.17724174682E+02  0.53559878776E+02  0.47000000000E+01 0.  1.
         11    1    4    4    0    0 -0.40310529628E+01 -0.51931322698E+01  0.17051466510E+02  0.18274860352E+02  0.00000000000E+00 0. -1.
        -12    1    4    4    0    0 -0.11815432899E+03  0.13884123681E+02 -0.66690944923E+02  0.13638510360E+03  0.00000000000E+00 0.  1.
</event>
<event>
12    1  0.1565987E-001  0.1726197E+03  0.7818608E-02  0.1176464E+00
         21   -1    0    0  501  502  0.00000000000E+00  0.00000000000E+00  0.26443340261E+03  0.26443340261E+03  0.00000000000E+00 0. -1.
         21   -1    0    0  502  503 -0.00000000000E+00 -0.00000000000E+00 -0.20089247856E+03  0.20089247856E+03  0.00000000000E+00 0. -1.
         -6    2    1    2    0  503  0.57505781563E+01  0.14055353258E+02 -0.12498487756E+03  0.21311682265E+03  0.17195039510E+03 0.  0.
        -24    2    3    3    0    0 -0.24470525522E+02 -0.22640486608E+01 -0.20077457793E+01  0.85347096480E+02  0.81707792154E+02 0.  0.
          6    2    1    2  501    0 -0.57505781563E+01 -0.14055353258E+02  0.18852580161E+03  0.25220905852E+03  0.16684366701E+03 0.  0.
         24    2    5    5    0    0 -0.51459369754E+02  0.33478436084E+02  0.92659929981E+02  0.13575687905E+03  0.77943538336E+02 0.  0.
          5    1    5    5  501    0  0.45708791597E+02 -0.47533789342E+02  0.95865871628E+02  0.11645217946E+03  0.47000000000E+01 0. -1.
        -13    1    6    6    0    0 -0.46364624417E+02  0.56373086920E+02  0.55009153415E+02  0.91398086882E+02  0.00000000000E+00 0.  1.
         14    1    6    6    0    0 -0.50947453369E+01 -0.22894650836E+02  0.37650776565E+02  0.44358792172E+02  0.00000000000E+00 0. -1.
         -5    1    3    3    0  503  0.30221103679E+02  0.16319401919E+02 -0.12297713178E+03  0.12776972617E+03  0.47000000000E+01 0.  1.
         13    1    4    4    0    0 -0.40761908642E+02  0.24545175053E+02  0.14704940707E+02  0.49801948714E+02  0.00000000000E+00 0. -1.
        -14    1    4    4    0    0  0.16291383120E+02 -0.26809223714E+02 -0.16712686487E+02  0.35545147766E+02  0.00000000000E+00 0.  1.
</event>
<event>
12    1  0.1565987E-001  0.2422762E+03  0.7818608E-02  0.1118385E+00
         21   -1    0    0  503  502  0.00000000000E+00  0.00000000000E+00  0.11343501969E+03  0.11343501969E+03  0.00000000000E+00 0.  1.
         21   -1    0    0  501  503 -0.00000000000E+00 -0.00000000000E+00 -0.70849620415E+03  0.70849620415E+03  0.00000000000E+00 0. -1.
          6    2    1    2  501    0 -0.15096882497E+03 -0.78152332123E+02 -0.51138150188E+03  0.56561102708E+03  0.17177141893E+03 0.  0.
         24    2    3    3    0    0 -0.95302675594E+02 -0.11624014416E+03 -0.31324119936E+03  0.35625231316E+03  0.78748273398E+02 0.  0.
         -6    2    1    2    0  502  0.15096882497E+03  0.78152332123E+02 -0.83679682581E+02  0.25632019676E+03  0.17262207525E+03 0.  0.
        -24    2    5    5    0    0  0.29379548128E+02  0.80182100750E+02 -0.27972846536E+02  0.12247919488E+03  0.83224671255E+02 0.  0.
          5    1    3    3  501    0 -0.55666149377E+02  0.38087812041E+02 -0.19814030252E+03  0.20935871392E+03  0.47000000000E+01 0. -1.
        -13    1    4    4    0    0 -0.10922860508E+02 -0.99638149819E+00 -0.93684795280E+02  0.94324665514E+02  0.00000000000E+00 0.  1.
         14    1    4    4    0    0 -0.84379815086E+02 -0.11524376267E+03 -0.21955640408E+03  0.26192764764E+03  0.00000000000E+00 0. -1.
         -5    1    5    5    0  502  0.12158927684E+03 -0.20297686275E+01 -0.55706836044E+02  0.13384100189E+03  0.47000000000E+01 0.  1.
         13    1    6    6    0    0 -0.45409935714E+01  0.52216037558E+01 -0.38871323637E+02  0.39482471677E+02  0.00000000000E+00 0. -1.
        -14    1    6    6    0    0  0.33920541699E+02  0.74960496994E+02  0.10898477101E+02  0.82996723200E+02  0.00000000000E+00 0.  1.
</event>
<event>
12    1  0.1565987E-001  0.2197026E+03  0.7818608E-02  0.1134106E+00
         21   -1    0    0  501  502  0.00000000000E+00  0.00000000000E+00  0.40174874410E+03  0.40174874410E+03  0.00000000000E+00 0. -1.
         21   -1    0    0  502  503 -0.00000000000E+00 -0.00000000000E+00 -0.18225428315E+03  0.18225428315E+03  0.00000000000E+00 0. -1.
         -6    2    1    2    0  503  0.16050284555E+02 -0.13625034430E+03  0.28020735839E+03  0.35606938195E+03  0.17160266055E+03 0.  0.
        -24    2    3    3    0    0  0.66532951440E+01 -0.17002419694E+03  0.23087793718E+03  0.29536964283E+03  0.70612393702E+02 0.  0.
          6    2    1    2  501    0 -0.16050284555E+02  0.13625034430E+03 -0.60712897447E+02  0.22793364531E+03  0.17159814332E+03 0.  0.
         24    2    5    5    0    0  0.12451492525E+01  0.42607664230E+02  0.32690367259E+02  0.94463261253E+02  0.77702536427E+02 0.  0.
          5    1    5    5  501    0 -0.17295433807E+02  0.93642680070E+02 -0.93403264707E+02  0.13347038405E+03  0.47000000000E+01 0. -1.
        -13    1    6    6    0    0  0.31436416790E+02 -0.21898005170E+01  0.37662736745E+00  0.31514843726E+02  0.00000000000E+00 0.  1.
         14    1    6    6    0    0 -0.30191267538E+02  0.44797464747E+02  0.32313739892E+02  0.62948417527E+02  0.00000000000E+00 0. -1.
         -5    1    3    3    0  503  0.93969894107E+01  0.33773852642E+02  0.49329421213E+02  0.60699739122E+02  0.47000000000E+01 0.  1.
         11    1    4    4    0    0  0.33824424564E+02 -0.45922603147E+02  0.66128109298E+02  0.87326422211E+02  0.00000000000E+00 0. -1.
        -12    1    4    4    0    0 -0.27171129420E+02 -0.12410159380E+03  0.16474982788E+03  0.20804322061E+03  0.00000000000E+00 0.  1.
</event>
<event>
12    1  0.1565987E-001  0.2344096E+03  0.7818608E-02  0.1124550E+00
         21   -1    0    0  501  502  0.00000000000E+00  0.00000000000E+00  0.52703882230E+03  0.52703882230E+03  0.00000000000E+00 0. -1.
         21   -1    0    0  502  503 -0.00000000000E+00 -0.00000000000E+00 -0.16322686385E+03  0.16322686385E+03  0.00000000000E+00 0. -1.
         -6    2    1    2    0  503  0.10614820011E+03 -0.11846560427E+03 -0.28474582385E+02  0.23613270320E+03  0.17218104396E+03 0.  0.
        -24    2    3    3    0    0  0.13983109457E+03 -0.12024821835E+03 -0.22755016709E+02  0.20159984170E+03  0.78181432354E+02 0.  0.
          6    2    1    2  501    0 -0.10614820011E+03  0.11846560427E+03  0.39228654084E+03  0.45413298294E+03  0.16445819010E+03 0.  0.
         24    2    5    5    0    0  0.10391909052E+01  0.32956166195E+02  0.13055547889E+03  0.15862284846E+03  0.83840838364E+02 0.  0.
          5    1    5    5  501    0 -0.10718739101E+03  0.85509438076E+02  0.26173106195E+03  0.29551013448E+03  0.47000000000E+01 0. -1.
        -11    1    6    6    0    0 -0.13122685574E+02 -0.18737978085E+02  0.69690665881E+01  0.23914108566E+02  0.00000000000E+00 0.  1.
         12    1    6    6    0    0  0.14161876479E+02  0.51694144281E+02  0.12358641230E+03  0.13470873990E+03  0.00000000000E+00 0. -1.
         -5    1    3    3    0  503 -0.33682894461E+02  0.17826140744E+01 -0.57195656754E+01  0.34532861505E+02  0.47000000000E+01 0.  1.
         13    1    4    4    0    0  0.10711570318E+03 -0.12210273693E+03 -0.13006493410E+01  0.16243319834E+03  0.00000000000E+00 0. -1.
        -14    1    4    4    0    0  0.32715391386E+02  0.18545185893E+01 -0.21454367368E+02  0.39166643358E+02  0.00000000000E+00 0.  1.
</event>
<event>
12    1  0.1565987E-001  0.2627773E+03  0.7818608E-02  0.1105672E+00
         21   -1    0    0  501  502  0.00000000000E+00  0.00000000000E+00  0.26342785573E+04  0.26342785573E+04  0.00000000000E+00 0.  1.
         21   -1    0    0  502  503 -0.00000000000E+00 -0.00000000000E+00 -0.50354246085E+02  0.50354246085E+02  0.00000000000E+00 0. -1.
         -6    2    1    2    0  503  0.44109638791E+02 -0.19278642147E+03  0.36172896018E+03  0.44710147621E+03  0.17303070497E+03 0.  0.
        -24    2    3    3    0    0  0.72284280117E+02 -0.17290368956E+03  0.22260394203E+03  0.30368950280E+03  0.86914303143E+02 0.  0.
          6    2    1    2  501    0 -0.44109638791E+02  0.19278642147E+03  0.22221953510E+04  0.22375313271E+04  0.17111983333E+03 0.  0.
         24    2    5    5    0    0 -0.25999361465E+02  0.68166030771E+02  0.15451186762E+04  0.15488273723E+04  0.78434245834E+02 0.  0.
          5    1    5    5  501    0 -0.18110277326E+02  0.12462039070E+03  0.67707667477E+03  0.68870395486E+03  0.47000000000E+01 0. -1.
        -11    1    6    6    0    0 -0.29932122484E+02  0.78847175651E+02  0.14972763558E+04  0.14996497240E+04  0.00000000000E+00 0.  1.
         12    1    6    6    0    0  0.39327610189E+01 -0.10681144880E+02  0.47842320406E+02  0.49177648246E+02  0.00000000000E+00 0. -1.
         -5    1    3    3    0  503 -0.28174641326E+02 -0.19882731910E+02  0.13912501815E+03  0.14341197341E+03  0.47000000000E+01 0.  1.
         13    1    4    4    0    0  0.33204965839E+02 -0.27625164036E+02  0.10235065598E+03  0.11109174687E+03  0.00000000000E+00 0. -1.
        -14    1    4    4    0    0  0.39079314279E+02 -0.14527852553E+03  0.12025328605E+03  0.19259775593E+03  0.00000000000E+00 0.  1.
</event>
<event>
12    1  0.1565987E-001  0.2678526E+03  0.7818608E-02  0.1102597E+00
         21   -1    0    0  503  502  0.00000000000E+00  0.00000000000E+00  0.22482666837E+03  0.22482666837E+03  0.00000000000E+00 0. -1.
         21   -1    0    0  501  503 -0.00000000000E+00 -0.00000000000E+00 -0.31854105577E+03  0.31854105577E+03  0.00000000000E+00 0.  1.
          6    2    1    2  501    0 -0.19185951296E+03 -0.69697515117E+02 -0.51795239232E+02  0.27225474754E+03  0.17254589077E+03 0.  0.
         24    2    3    3    0    0 -0.18586030093E+03 -0.57334729512E+01 -0.47579846109E+02  0.20770051627E+03  0.79364592410E+02 0.  0.
         -6    2    1    2    0  502  0.19185951296E+03  0.69697515117E+02 -0.41919148168E+02  0.27111297660E+03  0.17342783736E+03 0.  0.
        -24    2    5    5    0    0  0.41526863853E+02  0.47368617867E+02  0.34895471243E+02  0.10075728754E+03  0.70470353334E+02 0.  0.
          5    1    3    3  501    0 -0.59992120303E+01 -0.63964042165E+02 -0.42153931228E+01  0.64554231266E+02  0.47000000000E+01 0. -1.
        -13    1    4    4    0    0 -0.43294195152E+02  0.36365097204E+01 -0.48112133641E+02  0.64825835439E+02  0.00000000000E+00 0.  1.
         14    1    4    4    0    0 -0.14256610578E+03 -0.93699826716E+01  0.53228753226E+00  0.14287468083E+03  0.00000000000E+00 0. -1.
         -5    1    5    5    0  502  0.15033264911E+03  0.22328897249E+02 -0.76814619410E+02  0.17035568906E+03  0.47000000000E+01 0.  1.
         13    1    6    6    0    0  0.43668972969E+02  0.50510946115E+02  0.51120168513E+02  0.84092844561E+02  0.00000000000E+00 0. -1.
        -14    1    6    6    0    0 -0.21421091156E+01 -0.31423282474E+01 -0.16224697270E+02  0.16664442979E+02  0.00000000000E+00 0.  1.
</event>
<event>
12    1  0.1565987E-001  0.2178390E+03  0.7818608E-02  0.1135975E+00
         21   -1    0    0  503  502  0.00000000000E+00  0.00000000000E+00  0.70555566795E+02  0.70555566795E+02  0.00000000000E+00 0. -1.
         21   -1    0    0  501  503 -0.00000000000E+00 -0.00000000000E+00 -0.76284629843E+03  0.76284629843E+03  0.00000000000E+00 0. -1.
          6    2    1    2  501    0  0.85725370973E+02  0.91585905981E+02 -0.49713922802E+03  0.54277181684E+03  0.17809271662E+03 0.  0.
         24    2    3    3    0    0  0.20330683612E+02  0.15344706493E+02 -0.80399796012E+02  0.11407258681E+03  0.76809056430E+02 0.  0.
         -6    2    1    2    0  502 -0.85725370973E+02 -0.91585905981E+02 -0.19515150361E+03  0.29063004838E+03  0.17505684294E+03 0.  0.
        -24    2    5    5    0    0 -0.64484438507E+02  0.16761288192E+02 -0.81383981899E+02  0.13202541196E+03  0.79800835229E+02 0.  0.
          5    1    3    3  501    0  0.65394687360E+02  0.76241199487E+02 -0.41673943201E+03  0.42869923003E+03  0.47000000000E+01 0. -1.
        -11    1    4    4    0    0  0.82019726542E+01 -0.11369343316E+01 -0.90759394104E+02  0.91136340684E+02  0.00000000000E+00 0.  1.
         12    1    4    4    0    0  0.12128710958E+02  0.16481640825E+02  0.10359598092E+02  0.22936246128E+02  0.00000000000E+00 0. -1.
         -5    1    5    5    0  502 -0.21240932466E+02 -0.10834719417E+03 -0.11376752171E+03  0.15860463642E+03  0.47000000000E+01 0.  1.
         11    1    6    6    0    0 -0.67630836341E+02 -0.12584882226E+02 -0.75109277930E+02  0.10185142569E+03  0.00000000000E+00 0. -1.
        -12    1    6    6    0    0  0.31463978341E+01  0.29346170418E+02 -0.62747039687E+01  0.30173986270E+02  0.00000000000E+00 0.  1.
</event>
<event>
12    1  0.1565987E-001  0.1751472E+03  0.7818608E-02  0.1172866E+00
         21   -1    0    0  503  502  0.00000000000E+00  0.00000000000E+00  0.43298956144E+03  0.43298956144E+03  0.00000000000E+00 0.  1.
         21   -1    0    0  501  503 -0.00000000000E+00 -0.00000000000E+00 -0.12396869105E+03  0.12396869105E+03  0.00000000000E+00 0.  1.
          6    2    1    2  501    0 -0.22146860676E+02 -0.56449062619E+01  0.33729463565E+03  0.37954366330E+03  0.17252064429E+03 0.  0.
         24    2    3    3    0    0 -0.17797849119E+02  0.47438177132E+02  0.29996298962E+03  0.31433270226E+03  0.79120847353E+02 0.  0.
         -6    2    1    2    0  502  0.22146860676E+02  0.56449062619E+01 -0.28273765260E+02  0.17741458920E+03  0.17364959618E+03 0.  0.
        -24    2    5    5    0    0  0.15700999005E+02  0.72067537483E+02 -0.19617059049E+02  0.10995687182E+03  0.79154490251E+02 0.  0.
          5    1    3    3  501    0 -0.43490115563E+01 -0.53083083394E+02  0.37331646033E+02  0.65210961039E+02  0.47000000000E+01 0. -1.
        -13    1    4    4    0    0 -0.12786778150E+01 -0.99531711741E+01  0.18044982662E+03  0.18072863791E+03  0.00000000000E+00 0.  1.
         14    1    4    4    0    0 -0.16519171304E+02  0.57391348306E+02  0.11951316300E+03  0.13360406435E+03  0.00000000000E+00 0. -1.
         -5    1    5    5    0  502  0.64458616708E+01 -0.66422631221E+02 -0.86567062106E+01  0.67457717375E+02  0.47000000000E+01 0.  1.
         13    1    6    6    0    0  0.26867564286E+02  0.16347705136E+02 -0.38830289257E+02  0.49969038791E+02  0.00000000000E+00 0. -1.
        -14    1    6    6    0    0 -0.11166565282E+02  0.55719832347E+02  0.19213230208E+02  0.59987833033E+02  0.00000000000E+00 0.  1.
</event>
<event>
12    1  0.1565987E-001  0.2518284E+03  0.7818608E-02  0.1112460E+00
         21   -1    0    0  503  502  0.00000000000E+00  0.00000000000E+00  0.47345943185E+03  0.47345943185E+03  0.00000000000E+00 0. -1.
         21   -1    0    0  501  503 -0.00000000000E+00 -0.00000000000E+00 -0.12831952111E+04  0.12831952111E+04  0.00000000000E+00 0. -1.
          6    2    1    2  501    0 -0.12831078788E+03 -0.12890321101E+03 -0.12366254026E+04  0.12620063127E+04  0.17417764128E+03 0.  0.
         24    2    3    3    0    0 -0.72643908915E+02 -0.49585913704E+02 -0.98961488087E+03  0.99662672996E+03  0.78684980075E+02 0.  0.
         -6    2    1    2    0  502  0.12831078788E+03  0.12890321101E+03  0.42688962339E+03  0.49464833026E+03  0.17135496482E+03 0.  0.
        -24    2    5    5    0    0  0.84609197444E+02  0.27877614273E+02  0.31555207419E+03  0.33801455336E+03  0.82127030179E+02 0.  0.
          5    1    3    3  501    0 -0.55666878965E+02 -0.79317297311E+02 -0.24701052177E+03  0.26537958274E+03  0.47000000000E+01 0. -1.
        -13    1    4    4    0    0 -0.30030727711E+02  0.16106296831E+01 -0.97602087771E+02  0.10213033963E+03  0.00000000000E+00 0.  1.
         14    1    4    4    0    0 -0.42613181204E+02 -0.51196543387E+02 -0.89201279310E+03  0.89449639033E+03  0.00000000000E+00 0. -1.
         -5    1    5    5    0  502  0.43701590436E+02  0.10102559674E+03  0.11133754920E+03  0.15663377690E+03  0.47000000000E+01 0.  1.
         13    1    6    6    0    0  0.63689901070E+02  0.56547545061E+02  0.20816972850E+03  0.22491923932E+03  0.00000000000E+00 0. -1.
        -14    1    6    6    0    0  0.20919296374E+02 -0.28669930789E+02  0.10738234569E+03  0.11309531404E+03  0.00000000000E+00 0.  1.
</event>
<event>
12    1  0.1565987E-001  0.1777842E+03  0.7818608E-02  0.1170359E+00
         21   -1    0    0  503  502  0.00000000000E+00  0.00000000000E+00  0.12312092700E+04  0.12312092700E+04  0.00000000000E+00 0. -1.
         21   -1    0    0  501  503 -0.00000000000E+00 -0.00000000000E+00 -0.33058450769E+02  0.33058450769E+02  0.00000000000E+00 0. -1.
          6    2    1    2  501    0 -0.32579263941E+00  0.45351939365E+02  0.90041755065E+03  0.91749356787E+03  0.17025209846E+03 0.  0.
         24    2    3    3    0    0  0.92445232928E+01 -0.31672055609E+02  0.63720621352E+03  0.64303667737E+03  0.79848792013E+02 0.  0.
         -6    2    1    2    0  502  0.32579263941E+00 -0.45351939365E+02  0.29773326855E+03  0.34677415286E+03  0.17190203415E+03 0.  0.
        -24    2    5    5    0    0  0.20481210171E+02 -0.85728435572E+02  0.14676129279E+03  0.18913174179E+03  0.80393370730E+02 0.  0.
          5    1    3    3  501    0 -0.95703159322E+01  0.77023994974E+02  0.26321133713E+03  0.27445689050E+03  0.47000000000E+01 0. -1.
        -13    1    4    4    0    0 -0.26132858765E+02 -0.39019957507E+02  0.44435642411E+03  0.44683119300E+03  0.00000000000E+00 0.  1.
         14    1    4    4    0    0  0.35377382058E+02  0.73479018979E+01  0.19284978941E+03  0.19620548437E+03  0.00000000000E+00 0. -1.
         -5    1    5    5    0  502 -0.20155417532E+02  0.40376496206E+02  0.15097197577E+03  0.15764241107E+03  0.47000000000E+01 0.  1.
         13    1    6    6    0    0 -0.17523095548E+02 -0.39239131730E+02  0.17118223059E+02  0.46257992793E+02  0.00000000000E+00 0. -1.
        -14    1    6    6    0    0  0.38004305719E+02 -0.46489303842E+02  0.12964306973E+03  0.14287374900E+03  0.00000000000E+00 0.  1.
</event>
<event>
12    1  0.1565987E-001  0.1929250E+03  0.7818608E-02  0.1156186E+00
         21   -1    0    0  501  502  0.00000000000E+00  0.00000000000E+00  0.11161149624E+04  0.11161149624E+04  0.00000000000E+00 0. -1.
         21   -1    0    0  502  503 -0.00000000000E+00 -0.00000000000E+00 -0.33639942289E+02  0.33639942289E+02  0.00000000000E+00 0. -1.
         -6    2    1    2    0  503  0.58768382864E+02  0.66781944636E+02  0.46535303184E+03  0.50317960976E+03  0.16947779940E+03 0.  0.
        -24    2    3    3    0    0  0.32343541727E+02  0.53852782172E+01  0.40135956240E+03  0.41052391913E+03  0.79782729549E+02 0.  0.
          6    2    1    2  501    0 -0.58768382864E+02 -0.66781944636E+02  0.61712198829E+03  0.64657529494E+03  0.17119145026E+03 0.  0.
         24    2    5    5    0    0  0.14575796849E+02  0.11640745844E+02  0.32744953958E+03  0.33760651882E+03  0.80043736521E+02 0.  0.
          5    1    5    5  501    0 -0.73344179713E+02 -0.78422690481E+02  0.28967244870E+03  0.30896877612E+03  0.47000000000E+01 0. -1.
        -13    1    6    6    0    0  0.34337335800E+02 -0.16113920999E+02  0.89149729865E+02  0.96883359845E+02  0.00000000000E+00 0.  1.
         14    1    6    6    0    0 -0.19761538951E+02  0.27754666843E+02  0.23829980972E+03  0.24072315897E+03  0.00000000000E+00 0. -1.
         -5    1    3    3    0  503  0.26424841137E+02  0.61396666419E+02  0.63993469437E+02  0.92655690635E+02  0.47000000000E+01 0.  1.
         13    1    4    4    0    0  0.17154117729E+02 -0.63982531188E+01  0.14951300520E+02  0.23637740697E+02  0.00000000000E+00 0. -1.
        -14    1    4    4    0    0  0.15189423998E+02  0.11783531336E+02  0.38640826188E+03  0.38688617843E+03  0.00000000000E+00 0.  1.
</event>
<event>
12    1  0.1565987E-001  0.1733855E+03  0.7818608E-02  0.1174614E+00
         21   -1    0    0  503  502  0.00000000000E+00  0.00000000000E+00  0.51586518160E+03  0.51586518160E+03  0.00000000000E+00 0. -1.
         21   -1    0    0  501  503 -0.00000000000E+00 -0.00000000000E+00 -0.62892598696E+02  0.62892598696E+02  0.00000000000E+00 0. -1.
          6    2    1    2  501    0 -0.43689711935E+01  0.63929846703E+00  0.30705212397E+03  0.35214071029E+03  0.17234435413E+03 0.  0.
         24    2    3    3    0    0  0.63887422010E+02  0.10192678777E+02  0.17518845481E+03  0.20327728452E+03  0.80281793150E+02 0.  0.
         -6    2    1    2    0  502  0.43689711935E+01 -0.63929846703E+00  0.14592045894E+03  0.22661707001E+03  0.17332922278E+03 0.  0.
        -24    2    5    5    0    0 -0.44596747923E+02 -0.21542769632E+02  0.32218220060E+02  0.10097915423E+03  0.81889041002E+02 0.  0.
          5    1    3    3  501    0 -0.68256393203E+02 -0.95533803103E+01  0.13186366917E+03  0.14886342578E+03  0.47000000000E+01 0. -1.
        -11    1    4    4    0    0  0.15962709311E+02 -0.24417703803E+01 -0.45933288883E+01  0.16788954745E+02  0.00000000000E+00 0.  1.
         12    1    4    4    0    0  0.47924712698E+02  0.12634449158E+02  0.17978178369E+03  0.18648832977E+03  0.00000000000E+00 0. -1.
         -5    1    5    5    0  502  0.48965719116E+02  0.20903471165E+02  0.11370223888E+03  0.12563791578E+03  0.47000000000E+01 0.  1.
         13    1    6    6    0    0 -0.34874248790E+02 -0.42130219845E+02 -0.74946645034E+01  0.55202705087E+02  0.00000000000E+00 0. -1.
        -14    1    6    6    0    0 -0.97224991325E+01  0.20587450214E+02  0.39712884564E+02  0.45776449142E+02  0.00000000000E+00 0.  1.
</event>
<event>
12    1  0.1565987E-001  0.1910216E+03  0.7818608E-02  0.1157642E+00
         21   -1    0    0  501  502  0.00000000000E+00  0.00000000000E+00  0.36442260460E+02  0.36442260460E+02  0.00000000000E+00 0. -1.
         21   -1    0    0  502  503 -0.00000000000E+00 -0.00000000000E+00 -0.28068612604E+04  0.28068612604E+04  0.00000000000E+00 0. -1.
         -6    2    1    2    0  503 -0.76697149411E+02 -0.30172175918E+02 -0.25267357700E+04  0.25339461148E+04  0.17232657494E+03 0.  0.
        -24    2    3    3    0    0 -0.15076702790E+02 -0.63666842473E+02 -0.85551636643E+03  0.86124908397E+03  0.74571828468E+02 0.  0.
          6    2    1    2  501    0  0.76697149411E+02  0.30172175918E+02 -0.24368322987E+03  0.30935740599E+03  0.17183618708E+03 0.  0.
         24    2    5    5    0    0  0.11146587080E+03 -0.86589869441E+01 -0.18804104711E+03  0.23297111337E+03  0.80102970365E+02 0.  0.
          5    1    5    5  501    0 -0.34768721387E+02  0.38831162863E+02 -0.55642182769E+02  0.76386292615E+02  0.47000000000E+01 0. -1.
        -11    1    6    6    0    0  0.44295578693E+02  0.33948776552E+01 -0.14647911232E+03  0.15306780796E+03  0.00000000000E+00 0.  1.
         12    1    6    6    0    0  0.67170292105E+02 -0.12053864599E+02 -0.41561934784E+02  0.79903305415E+02  0.00000000000E+00 0. -1.
         -5    1    3    3    0  503 -0.61620446620E+02  0.33494666554E+02 -0.16712194036E+04  0.16726970309E+04  0.47000000000E+01 0.  1.
         13    1    4    4    0    0 -0.39157601061E+02 -0.63306185384E+02 -0.59988376371E+03  0.60448450831E+03  0.00000000000E+00 0. -1.
        -14    1    4    4    0    0  0.24080898271E+02 -0.36065708816E+00 -0.25563260272E+03  0.25676457565E+03  0.00000000000E+00 0.  1.
</event>
<event>
12    1  0.1565987E-001  0.2518780E+03  0.7818608E-02  0.1112250E+00
         21   -1    0    0  501  502  0.00000000000E+00  0.00000000000E+00  0.25184902322E+03  0.25184902322E+03  0.00000000000E+00 0. -1.
         21   -1    0    0  502  503 -0.00000000000E+00 -0.00000000000E+00 -0.32327431821E+03  0.32327431821E+03  0.00000000000E+00 0. -1.
         -6    2    1    2    0  503  0.26171632359E+02 -0.18179651127E+03 -0.17162923166E+03  0.30479359304E+03  0.17235897235E+03 0.  0.
        -24    2    3    3    0    0 -0.15519203261E+02 -0.33721090910E+02 -0.18505420421E+02  0.87691203703E+02  0.77261497396E+02 0.  0.
          6    2    1    2  501    0 -0.26171632359E+02  0.18179651127E+03  0.10020393668E+03  0.27032974838E+03  0.17117949084E+03 0.  0.
         24    2    5    5    0    0 -0.94175844272E+01  0.20482908815E+03  0.99337463143E+02  0.24145002373E+03  0.79915806483E+02 0.  0.
          5    1    5    5  501    0 -0.16754047932E+02 -0.23032576879E+02  0.86647353477E+00  0.28879724656E+02  0.47000000000E+01 0. -1.
        -13    1    6    6    0    0 -0.24929320463E+02  0.58659400231E+02  0.63889740942E+02  0.90245749217E+02  0.00000000000E+00 0.  1.
         14    1    6    6    0    0  0.15511736035E+02  0.14616968792E+03  0.35447722201E+02  0.15120427451E+03  0.00000000000E+00 0. -1.
         -5    1    3    3    0  503  0.41690835621E+02 -0.14807542036E+03 -0.15312381124E+03  0.21710238934E+03  0.47000000000E+01 0.  1.
         11    1    4    4    0    0 -0.11076905760E+01 -0.39771754777E+02  0.21155222483E+02  0.45061767550E+02  0.00000000000E+00 0. -1.
        -12    1    4    4    0    0 -0.14411512685E+02  0.60506638663E+01 -0.39660642904E+02  0.42629436152E+02  0.00000000000E+00 0.  1.
</event>
<event>
12    1  0.1565987E-001  0.1765369E+03  0.7818608E-02  0.1171392E+00
         21   -1    0    0  503  502  0.00000000000E+00  0.00000000000E+00  0.26904340355E+03  0.26904340355E+03  0.00000000000E+00 0.  1.
         21   -1    0    0  501  503 -0.00000000000E+00 -0.00000000000E+00 -0.13879775553E+03  0.13879775553E+03  0.00000000000E+00 0.  1.
          6    2    1    2  501    0 -0.15506111831E+02  0.37862585976E+02 -0.18616937160E+02  0.17751578039E+03  0.17173015757E+03 0.  0.
         24    2    3    3    0    0  0.17497028660E+02  0.86264742235E+02 -0.11463371319E+02  0.11831071712E+03  0.78219339931E+02 0.  0.
         -6    2    1    2    0  502  0.15506111831E+02 -0.37862585976E+02  0.14886258518E+03  0.23032537869E+03  0.17092599533E+03 0.  0.
        -24    2    5    5    0    0 -0.55585544545E+02 -0.76495249330E+01  0.92904180085E+02  0.13482519144E+03  0.79989859196E+02 0.  0.
          5    1    3    3  501    0 -0.33003140491E+02 -0.48402156259E+02 -0.71535658414E+01  0.59205063272E+02  0.47000000000E+01 0. -1.
        -13    1    4    4    0    0  0.23225357215E+02 -0.40848543419E+01  0.94343984749E+01  0.25399037921E+02  0.00000000000E+00 0.  1.
         14    1    4    4    0    0 -0.57283285548E+01  0.90349596577E+02 -0.20897769794E+02  0.92911679201E+02  0.00000000000E+00 0. -1.
         -5    1    5    5    0  502  0.71091656377E+02 -0.30213061043E+02  0.55958405099E+02  0.95500187252E+02  0.47000000000E+01 0.  1.
         13    1    6    6    0    0  0.12986383301E+02  0.54973143129E+01 -0.46594313710E+01  0.14851832096E+02  0.00000000000E+00 0. -1.
        -14    1    6    6    0    0 -0.68571927847E+02 -0.13146839246E+02  0.97563611456E+02  0.11997335934E+03  0.00000000000E+00 0.  1.
</event>
<event>
12    1  0.1565987E-001  0.2367881E+03  0.7818608E-02  0.1122211E+00
         21   -1    0    0  501  502  0.00000000000E+00  0.00000000000E+00  0.16692347567E+03  0.16692347567E+03  0.00000000000E+00 0.  1.
         21   -1    0    0  502  503 -0.00000000000E+00 -0.00000000000E+00 -0.54807190657E+03  0.54807190657E+03  0.00000000000E+00 0.  1.
         -6    2    1    2    0  503 -0.65022156371E+01  0.16297219931E+03 -0.41376464392E+03  0.47597145951E+03  0.16954478216E+03 0.  0.
        -24    2    3    3    0    0  0.39932122839E+02  0.15866351765E+03 -0.27718296377E+03  0.33157146685E+03  0.79627608026E+02 0.  0.
          6    2    1    2  501    0  0.65022156371E+01 -0.16297219931E+03  0.32616213021E+02  0.23902392272E+03  0.17165780414E+03 0.  0.
         24    2    5    5    0    0  0.35155593550E+02 -0.36624340097E+02 -0.24472945755E+02  0.97369202913E+02  0.79401376289E+02 0.  0.
          5    1    5    5  501    0 -0.28653377913E+02 -0.12634785921E+03  0.57089158777E+02  0.14165471981E+03  0.47000000000E+01 0. -1.
        -11    1    6    6    0    0  0.60177913789E+02 -0.27350473721E+02 -0.95312223819E+01  0.66785282217E+02  0.00000000000E+00 0.  1.
         12    1    6    6    0    0 -0.25022320239E+02 -0.92738663757E+01 -0.14941723374E+02  0.30583920695E+02  0.00000000000E+00 0. -1.
         -5    1    3    3    0  503 -0.46434338476E+02  0.43086816600E+01 -0.13658168015E+03  0.14439999266E+03  0.47000000000E+01 0.  1.
         13    1    4    4    0    0  0.36667819558E+02  0.17329977479E+02 -0.59255153936E+02  0.71805503818E+02  0.00000000000E+00 0. -1.
        -14    1    4    4    0    0  0.32643032806E+01  0.14133354017E+03 -0.21792780983E+03  0.25976596303E+03  0.00000000000E+00 0.  1.
</event>
<event>
12    1  0.1565987E-001  0.2209170E+03  0.7818608E-02  0.1133657E+00
         21   -1    0    0  503  502  0.00000000000E+00  0.00000000000E+00  0.12820097263E+03  0.12820097263E+03  0.00000000000E+00 0. -1.
         21   -1    0    0  501  503 -0.00000000000E+00 -0.00000000000E+00 -0.42454461464E+03  0.42454461464E+03  0.00000000000E+00 0. -1.
          6    2    1    2  501    0  0.81318966509E+02  0.10852671772E+03 -0.24188609642E+03  0.32758692855E+03  0.17439463679E+03 0.  0.
         24    2    3    3    0    0  0.99612069099E+02  0.23009459091E+02 -0.11551216862E+03  0.17383290826E+03  0.80142494205E+02 0.  0.
         -6    2    1    2    0  502 -0.81318966509E+02 -0.10852671772E+03 -0.54457545587E+02  0.22515865872E+03  0.17128915480E+03 0.  0.
        -24    2    5    5    0    0  0.23722070029E+01 -0.51574863845E+01 -0.31540271963E+02  0.90115325148E+02  0.84224438492E+02 0.  0.
          5    1    3    3  501    0 -0.18293102590E+02  0.85517258633E+02 -0.12637392781E+03  0.15375402029E+03  0.47000000000E+01 0. -1.
        -13    1    4    4    0    0 -0.31340697778E+01 -0.55693991453E+01  0.82659387510E+01  0.10448269888E+02  0.00000000000E+00 0.  1.
         14    1    4    4    0    0  0.10274613888E+03  0.28578858236E+02 -0.12377810737E+03  0.16338463837E+03  0.00000000000E+00 0. -1.
         -5    1    5    5    0  502 -0.83691173512E+02 -0.10336923134E+03 -0.22917273624E+02  0.13504333357E+03  0.47000000000E+01 0.  1.
         11    1    6    6    0    0 -0.28711834445E+02 -0.30601081935E+02 -0.56876542931E+01  0.42345543616E+02  0.00000000000E+00 0. -1.
        -12    1    6    6    0    0  0.31084041448E+02  0.25443595550E+02 -0.25852617670E+02  0.47769781532E+02  0.00000000000E+00 0.  1.
</event>
<event>
12    1  0.1565987E-001  0.1860765E+03  0.7818608E-02  0.1162255E+00
         21   -1    0    0  501  502  0.00000000000E+00  0.00000000000E+00  0.56230776736E+03  0.56230776736E+03  0.00000000000E+00 0. -1.
         21   -1    0    0  502  503 -0.00000000000E+00 -0.00000000000E+00 -0.10208380435E+03  0.10208380435E+03  0.00000000000E+00 0.  1.
         -6    2    1    2    0  503 -0.71350847895E+02 -0.85430401727E+01  0.20425564217E+02  0.18719420941E+03  0.17164073331E+03 0.  0.
        -24    2    3    3    0    0 -0.11528798015E+03 -0.17319910388E+02  0.17900103622E+02  0.14207245199E+03  0.79201453537E+02 0.  0.
          6    2    1    2  501    0  0.71350847895E+02  0.85430401727E+01  0.43979839880E+03  0.47719736230E+03  0.17067736807E+03 0.  0.
         24    2    5    5    0    0  0.88628822275E+01  0.45609575465E+02  0.34829579179E+03  0.36026365894E+03  0.79505731373E+02 0.  0.
          5    1    5    5  501    0  0.62487965667E+02 -0.37066535292E+02  0.91502607010E+02  0.11693370336E+03  0.47000000000E+01 0. -1.
        -11    1    6    6    0    0  0.31653970786E+02  0.48051126447E+02  0.31253329514E+03  0.31778600534E+03  0.00000000000E+00 0.  1.
         12    1    6    6    0    0 -0.22791088559E+02 -0.24415509825E+01  0.35762496646E+02  0.42477653599E+02  0.00000000000E+00 0. -1.
         -5    1    3    3    0  503  0.43937132254E+02  0.87768702154E+01  0.25254605955E+01  0.45121757420E+02  0.47000000000E+01 0.  1.
         13    1    4    4    0    0 -0.18108174615E+02 -0.29717020629E+02  0.26482050090E+02  0.43729924307E+02  0.00000000000E+00 0. -1.
        -14    1    4    4    0    0 -0.97179805534E+02  0.12397110241E+02 -0.85819464682E+01  0.98342527683E+02  0.00000000000E+00 0.  1.
</event>
<event>
12    1  0.1565987E-001  0.2060343E+03  0.7818608E-02  0.1145508E+00
         21   -1    0    0  503  502  0.00000000000E+00  0.00000000000E+00  0.53459088997E+03  0.53459088997E+03  0.00000000000E+00 0.  1.
         21   -1    0    0  501  503 -0.00000000000E+00 -0.00000000000E+00 -0.11456159600E+03  0.11456159600E+03  0.00000000000E+00 0. -1.
          6    2    1    2  501    0 -0.11725832447E+03 -0.25125289430E+02  0.27906874155E+02  0.20791564257E+03  0.16753902821E+03 0.  0.
         24    2    3    3    0    0 -0.64882070911E+02  0.36744866106E+02  0.67323748373E+01  0.12400117716E+03  0.98848868261E+02 0.  0.
         -6    2    1    2    0  502  0.11725832447E+03  0.25125289430E+02  0.39212241981E+03  0.44123684340E+03  0.16293914518E+03 0.  0.
        -24    2    5    5    0    0  0.55249564642E+02 -0.43952239986E+02  0.24692163674E+03  0.26883571588E+03  0.79486059476E+02 0.  0.
          5    1    3    3  501    0 -0.52376253559E+02 -0.61870155536E+02  0.21174499318E+02  0.83914465406E+02  0.47000000000E+01 0. -1.
        -13    1    4    4    0    0 -0.17073256452E+02  0.43314710988E+02  0.43200561409E+02  0.63513374811E+02  0.00000000000E+00 0.  1.
         14    1    4    4    0    0 -0.47808814459E+02 -0.65698448815E+01 -0.36468186572E+02  0.60487802353E+02  0.00000000000E+00 0. -1.
         -5    1    5    5    0  502  0.62008759829E+02  0.69077529416E+02  0.14520078308E+03  0.17240112752E+03  0.47000000000E+01 0.  1.
         11    1    6    6    0    0  0.22161539662E+02 -0.46391413366E+02  0.60098166988E+02  0.79089106391E+02  0.00000000000E+00 0. -1.
        -12    1    6    6    0    0  0.33088024979E+02  0.24391733802E+01  0.18682346975E+03  0.18974660949E+03  0.00000000000E+00 0.  1.
</event>
<event>
12    1  0.1565987E-001  0.2047179E+03  0.7818608E-02  0.1146863E+00
         21   -1    0    0  501  502  0.00000000000E+00  0.00000000000E+00  0.14689038828E+04  0.14689038828E+04  0.00000000000E+00 0. -1.
         21   -1    0    0  502  503 -0.00000000000E+00 -0.00000000000E+00 -0.90016980518E+02  0.90016980518E+02  0.00000000000E+00 0.  1.
         -6    2    1    2    0  503 -0.65680840010E+02  0.87488610186E+02  0.38964004416E+02  0.20344944237E+03  0.16704865251E+03 0.  0.
        -24    2    3    3    0    0 -0.27828806225E+02  0.65272360694E+02  0.87687204396E+02  0.13770464471E+03  0.78984807616E+02 0.  0.
          6    2    1    2  501    0  0.65680840010E+02 -0.87488610186E+02  0.13399228979E+04  0.13554714209E+04  0.17303517307E+03 0.  0.
         24    2    5    5    0    0  0.28683166603E+02  0.19573677549E+02  0.41786857566E+03  0.42647334539E+03  0.77842886013E+02 0.  0.
          5    1    5    5  501    0  0.36997673407E+02 -0.10706228773E+03  0.92205432220E+03  0.92899807555E+03  0.47000000000E+01 0. -1.
        -13    1    6    6    0    0  0.21774103338E+02 -0.28558546794E+02  0.15107690735E+03  0.15528661921E+03  0.00000000000E+00 0.  1.
         14    1    6    6    0    0  0.69090632645E+01  0.48132224343E+02  0.26679166831E+03  0.27118672618E+03  0.00000000000E+00 0. -1.
         -5    1    3    3    0  503 -0.37852033785E+02  0.22216249492E+02 -0.48723199980E+02  0.65744797660E+02  0.47000000000E+01 0.  1.
         13    1    4    4    0    0  0.23884508631E+02  0.14659898136E+02  0.61529959920E+01  0.28692189278E+02  0.00000000000E+00 0. -1.
        -14    1    4    4    0    0 -0.51713314857E+02  0.50612462558E+02  0.81534208404E+02  0.10901245543E+03  0.00000000000E+00 0.  1.
</event>
<event>
12    1  0.1565987E-001  0.2503037E+03  0.7818608E-02  0.1113322E+00
         21   -1    0    0  501  502  0.00000000000E+00  0.00000000000E+00  0.73374088097E+03  0.73374088097E+03  0.00000000000E+00 0. -1.
         21   -1    0    0  502  503 -0.00000000000E+00 -0.00000000000E+00 -0.85039293279E+02  0.85039293279E+02  0.00000000000E+00 0.  1.
         -6    2    1    2    0  503 -0.69081490520E+02 -0.16568174410E+03  0.33765917596E+03  0.41953172585E+03  0.17254117544E+03 0.  0.
        -24    2    3    3    0    0  0.23377037133E+02 -0.75953676104E+02  0.20972474177E+03  0.23790294241E+03  0.79359283752E+02 0.  0.
          6    2    1    2  501    0  0.69081490520E+02  0.16568174410E+03  0.31104241173E+03  0.39924844839E+03  0.17443981481E+03 0.  0.
         24    2    5    5    0    0  0.32794389175E+01  0.13736454397E+03  0.13149055888E+03  0.20587644504E+03  0.78838891993E+02 0.  0.
          5    1    5    5  501    0  0.65802051602E+02  0.28317200137E+02  0.17955185285E+03  0.19337200335E+03  0.47000000000E+01 0. -1.
        -13    1    6    6    0    0  0.97517509850E+01  0.10298128312E+03  0.45434912776E+02  0.11298040812E+03  0.00000000000E+00 0.  1.
         14    1    6    6    0    0 -0.64723120675E+01  0.34383260850E+02  0.86055646102E+02  0.92896036924E+02  0.00000000000E+00 0. -1.
         -5    1    3    3    0  503 -0.92458527653E+02 -0.89728068000E+02  0.12793443419E+03  0.18162878344E+03  0.47000000000E+01 0.  1.
         11    1    4    4    0    0  0.13335798064E+02 -0.70903334141E+02  0.21403316035E+03  0.22586571238E+03  0.00000000000E+00 0. -1.
        -12    1    4    4    0    0  0.10041239069E+02 -0.50503419632E+01 -0.43084185797E+01  0.12037230024E+02  0.00000000000E+00 0.  1.
</event>
<event>
12    1  0.1565987E-001  0.2872630E+03  0.7818608E-02  0.1091817E+00
         21   -1    0    0  503  502  0.00000000000E+00  0.00000000000E+00  0.13854633885E+04  0.13854633885E+04  0.00000000000E+00 0.  1.
         21   -1    0    0  501  503 -0.00000000000E+00 -0.00000000000E+00 -0.64851359717E+02  0.64851359717E+02  0.00000000000E+00 0. -1.
          6    2    1    2  501    0 -0.13248345869E+03  0.18833881530E+03  0.45202280220E+03  0.53545557718E+03  0.17136127114E+03 0.  0.
         24    2    3    3    0    0 -0.15215624125E+03  0.13241013535E+03  0.40540454385E+03  0.45988847040E+03  0.80377828682E+02 0.  0.
         -6    2    1    2    0  502  0.13248345869E+03 -0.18833881530E+03  0.86858922656E+03  0.91485917101E+03  0.17174598137E+03 0.  0.
        -24    2    5    5    0    0 -0.26988246841E+01 -0.73695732943E+02  0.27515250153E+03  0.29549940263E+03  0.78566234166E+02 0.  0.
          5    1    3    3  501    0  0.19672782556E+02  0.55928679951E+02  0.46618258350E+02  0.75567106774E+02  0.47000000000E+01 0. -1.
        -13    1    4    4    0    0 -0.71670904097E+02  0.35544088809E+02  0.90816741837E+02  0.12102801883E+03  0.00000000000E+00 0.  1.
         14    1    4    4    0    0 -0.80485337152E+02  0.96866046541E+02  0.31458780201E+03  0.33886045158E+03  0.00000000000E+00 0. -1.
         -5    1    5    5    0  502  0.13518228338E+03 -0.11464308236E+03  0.59343672503E+03  0.61935976838E+03  0.47000000000E+01 0.  1.
         11    1    6    6    0    0 -0.37642017181E+01 -0.89858726812E+02  0.21170541388E+03  0.23001726515E+03  0.00000000000E+00 0. -1.
        -12    1    6    6    0    0  0.10653770340E+01  0.16162993869E+02  0.63447087641E+02  0.65482137482E+02  0.00000000000E+00 0.  1.
</event>
<event>
12    1  0.1565987E-001  0.1918169E+03  0.7818608E-02  0.1156908E+00
         21   -1    0    0  501  502  0.00000000000E+00  0.00000000000E+00  0.71865284509E+03  0.71865284509E+03  0.00000000000E+00 0.  1.
         21   -1    0    0  502  503 -0.00000000000E+00 -0.00000000000E+00 -0.51290980951E+02  0.51290980951E+02  0.00000000000E+00 0.  1.
         -6    2    1    2    0  503 -0.70367529861E+01 -0.84764711782E+02  0.35639264579E+03  0.40457337082E+03  0.17154976579E+03 0.  0.
        -24    2    3    3    0    0  0.56800690589E+02 -0.35898572349E+02  0.15092303835E+03  0.18388588053E+03  0.80754118202E+02 0.  0.
          6    2    1    2  501    0  0.70367529861E+01  0.84764711782E+02  0.31096921835E+03  0.36537045523E+03  0.17192772475E+03 0.  0.
         24    2    5    5    0    0  0.54539670016E+02  0.85937475909E+02  0.15322142740E+03  0.20055432115E+03  0.79908726353E+02 0.  0.
          5    1    5    5  501    0 -0.47502917030E+02 -0.11727641270E+01  0.15774779095E+03  0.16481613408E+03  0.47000000000E+01 0. -1.
        -11    1    6    6    0    0  0.52003523355E+02  0.44187324593E+02  0.14153156414E+03  0.15712437667E+03  0.00000000000E+00 0.  1.
         12    1    6    6    0    0  0.25361466609E+01  0.41750151316E+02  0.11689863261E+02  0.43429944483E+02  0.00000000000E+00 0. -1.
         -5    1    3    3    0  503 -0.63837443575E+02 -0.48866139432E+02  0.20546960744E+03  0.22068749029E+03  0.47000000000E+01 0.  1.
         13    1    4    4    0    0  0.65850665857E+01  0.25116828750E+02  0.40182228023E+02  0.47841714406E+02  0.00000000000E+00 0. -1.
        -14    1    4    4    0    0  0.50215624003E+02 -0.61015401099E+02  0.11074081032E+03  0.13604416612E+03  0.00000000000E+00 0.  1.
</event>
<event>
12    1  0.1565987E-001  0.1958066E+03  0.7818608E-02  0.1154169E+00
         21   -1    0    0  503  502  0.00000000000E+00  0.00000000000E+00  0.13937209266E+03  0.13937209266E+03  0.00000000000E+00 0. -1.
         21   -1    0    0  501  503 -0.00000000000E+00 -0.00000000000E+00 -0.51759757538E+03  0.51759757538E+03  0.00000000000E+00 0. -1.
          6    2    1    2  501    0  0.82538829062E+02 -0.39626273692E+02 -0.41545219440E+03  0.45765576019E+03  0.16871683123E+03 0.  0.
         24    2    3    3    0    0  0.87887247266E+02 -0.19304533894E+02 -0.15926167765E+03  0.20056190660E+03  0.82243316744E+02 0.  0.
         -6    2    1    2    0  502 -0.82538829062E+02  0.39626273692E+02  0.37226711676E+02  0.19931390784E+03  0.17308178970E+03 0.  0.
        -24    2    5    5    0    0 -0.11957689996E+03  0.48195621987E+02  0.98119071883E+01  0.15220855856E+03  0.80310141292E+02 0.  0.
          5    1    3    3  501    0 -0.53484182038E+01 -0.20321739798E+02 -0.25619051675E+03  0.25709385360E+03  0.47000000000E+01 0. -1.
        -13    1    4    4    0    0  0.14546994382E+00  0.17353190933E+02 -0.29567540756E+01  0.17603885700E+02  0.00000000000E+00 0.  1.
         14    1    4    4    0    0  0.87741777322E+02 -0.36657724827E+02 -0.15630492358E+03  0.18295802090E+03  0.00000000000E+00 0. -1.
         -5    1    5    5    0  502  0.37038070894E+02 -0.85693482955E+01  0.27414804487E+02  0.47105349281E+02  0.47000000000E+01 0.  1.
         13    1    6    6    0    0 -0.67384755387E+02 -0.15519198737E+02 -0.88361904510E+00  0.69154403841E+02  0.00000000000E+00 0. -1.
        -14    1    6    6    0    0 -0.52192144569E+02  0.63714820724E+02  0.10695526233E+02  0.83054154718E+02  0.00000000000E+00 0.  1.
</event>
<event>
12    1  0.1565987E-001  0.1904384E+03  0.7818608E-02  0.1158448E+00
         21   -1    0    0  503  502  0.00000000000E+00  0.00000000000E+00  0.46016725940E+03  0.46016725940E+03  0.00000000000E+00 0.  1.
         21   -1    0    0  501  503 -0.00000000000E+00 -0.00000000000E+00 -0.82913464062E+02  0.82913464062E+02  0.00000000000E+00 0. -1.
          6    2    1    2  501    0  0.25432605991E+02  0.81025499110E+02  0.12250595817E+03  0.22501900073E+03  0.16856420720E+03 0.  0.
         24    2    3    3    0    0  0.35802611740E+02  0.43336703467E+02  0.14915329776E+03  0.17747793381E+03  0.78050072914E+02 0.  0.
         -6    2    1    2    0  502 -0.25432605991E+02 -0.81025499110E+02  0.25474783717E+03  0.31806172274E+03  0.17045483265E+03 0.  0.
        -24    2    5    5    0    0 -0.78328879265E+01  0.21285077640E+02  0.14162607229E+03  0.16445238747E+03  0.80450200305E+02 0.  0.
          5    1    3    3  501    0 -0.10370005748E+02  0.37688795643E+02 -0.26647339594E+02  0.47541066917E+02  0.47000000000E+01 0. -1.
        -13    1    4    4    0    0  0.29651596100E+00 -0.34736934560E+01  0.10222325381E+03  0.10228268713E+03  0.00000000000E+00 0.  1.
         14    1    4    4    0    0  0.35506095779E+02  0.46810396923E+02  0.46930043953E+02  0.75195246678E+02  0.00000000000E+00 0. -1.
         -5    1    5    5    0  502 -0.17599718065E+02 -0.10231057675E+03  0.11312176489E+03  0.15360933527E+03  0.47000000000E+01 0.  1.
         13    1    6    6    0    0 -0.27839242768E+02  0.25938408544E+02  0.13855366762E+03  0.14368348300E+03  0.00000000000E+00 0. -1.
        -14    1    6    6    0    0  0.20006354841E+02 -0.46533309037E+01  0.30724046698E+01  0.20768904472E+02  0.00000000000E+00 0.  1.
</event>
<event>
12    1  0.1565987E-001  0.2191628E+03  0.7818608E-02  0.1134699E+00
         21   -1    0    0  503  502  0.00000000000E+00  0.00000000000E+00  0.30494573776E+03  0.30494573776E+03  0.00000000000E+00 0.  1.
         21   -1    0    0  501  503 -0.00000000000E+00 -0.00000000000E+00 -0.26318895435E+03  0.26318895435E+03  0.00000000000E+00 0. -1.
          6    2    1    2  501    0  0.11056475737E+03 -0.75064140170E+02  0.20147044192E+03  0.29695066086E+03  0.17242437562E+03 0.  0.
         24    2    3    3    0    0  0.63160495339E+02 -0.29111344004E+01  0.18182044425E+03  0.20828594010E+03  0.79540153500E+02 0.  0.
         -6    2    1    2    0  502 -0.11056475737E+03  0.75064140170E+02 -0.15971365851E+03  0.27118403124E+03  0.17370416050E+03 0.  0.
        -24    2    5    5    0    0 -0.13646344854E+03  0.58321156054E+02 -0.17031775385E+03  0.23823548713E+03  0.75659632690E+02 0.  0.
          5    1    3    3  501    0  0.47404262031E+02 -0.72153005770E+02  0.19649997668E+02  0.88664720767E+02  0.47000000000E+01 0. -1.
        -11    1    4    4    0    0  0.44210350957E+02  0.36832434416E+02  0.10573411614E+03  0.12037809880E+03  0.00000000000E+00 0.  1.
         12    1    4    4    0    0  0.18950144382E+02 -0.39743568817E+02  0.76086328115E+02  0.87907841290E+02  0.00000000000E+00 0. -1.
         -5    1    5    5    0  502  0.25898691167E+02  0.16742984116E+02  0.10604095342E+02  0.32948544115E+02  0.47000000000E+01 0.  1.
         11    1    6    6    0    0 -0.51526214813E+01 -0.22387873846E+01 -0.49456781549E+02  0.49774842223E+02  0.00000000000E+00 0. -1.
        -12    1    6    6    0    0 -0.13131082706E+03  0.60559943439E+02 -0.12086097230E+03  0.18846064490E+03  0.00000000000E+00 0.  1.
</event>
<event>
12    1  0.1565987E-001  0.1807357E+03  0.7818608E-02  0.1167357E+00
         21   -1    0    0  503  502  0.00000000000E+00  0.00000000000E+00  0.54478648040E+02  0.54478648040E+02  0.00000000000E+00 0. -1.
         21   -1    0    0  501  503 -0.00000000000E+00 -0.00000000000E+00 -0.13017568547E+04  0.13017568547E+04  0.00000000000E+00 0. -1.
          6    2    1    2  501    0  0.13268563503E+02 -0.48428507301E+02 -0.11220869731E+04  0.11363759157E+04  0.17248093072E+03 0.  0.
         24    2    3    3    0    0 -0.13192055736E+02 -0.59893723509E+02 -0.35695673795E+03  0.37068800126E+03  0.78931572035E+02 0.  0.
         -6    2    1    2    0  502 -0.13268563503E+02  0.48428507301E+02 -0.12519123357E+03  0.21985958706E+03  0.17362032704E+03 0.  0.
        -24    2    5    5    0    0 -0.83687043165E+01 -0.35765726347E+02 -0.33824775698E+02  0.95430501942E+02  0.81324306679E+02 0.  0.
          5    1    3    3  501    0  0.26460619239E+02  0.11465216208E+02 -0.76513023518E+03  0.76568791445E+03  0.47000000000E+01 0. -1.
        -11    1    4    4    0    0  0.31872207735E+02 -0.16109554036E+02 -0.16063329085E+03  0.16455518675E+03  0.00000000000E+00 0.  1.
         12    1    4    4    0    0 -0.45064263471E+02 -0.43784169473E+02 -0.19632344710E+03  0.20613281452E+03  0.00000000000E+00 0. -1.
         -5    1    5    5    0  502 -0.48998591862E+01  0.84194233648E+02 -0.91366457871E+02  0.12442908512E+03  0.47000000000E+01 0.  1.
         11    1    6    6    0    0  0.24217025765E+02  0.14223525560E+02 -0.29372428211E+01  0.28238279190E+02  0.00000000000E+00 0. -1.
        -12    1    6    6    0    0 -0.32585730081E+02 -0.49989251907E+02 -0.30887532877E+02  0.67192222752E+02  0.00000000000E+00 0.  1.
</event>
<event>
12    1  0.1565987E-001  0.2561261E+03  0.7818608E-02  0.1109544E+00
         21   -1    0    0  503  502  0.00000000000E+00  0.00000000000E+00  0.37010313898E+03  0.37010313898E+03  0.00000000000E+00 0. -1.
         21   -1    0    0  501  503 -0.00000000000E+00 -0.00000000000E+00 -0.43887083059E+03  0.43887083059E+03  0.00000000000E+00 0.  1.
          6    2    1    2  501    0  0.53701612993E+01 -0.19103302678E+03 -0.34681262895E+03  0.43094016538E+03  0.17002344127E+03 0.  0.
         24    2    3    3    0    0  0.30302076369E+02 -0.87117290464E+02 -0.27842093478E+03  0.30397720040E+03  0.79851633105E+02 0.  0.
         -6    2    1    2    0  502 -0.53701612993E+01  0.19103302678E+03  0.27804493734E+03  0.37803380420E+03  0.17052305997E+03 0.  0.
        -24    2    5    5    0    0  0.61547415912E+02  0.12597583858E+03  0.15317142506E+03  0.22206623082E+03  0.78701519070E+02 0.  0.
          5    1    3    3  501    0 -0.24931915070E+02 -0.10391573632E+03 -0.68391694166E+02  0.12696296497E+03  0.47000000000E+01 0. -1.
        -11    1    4    4    0    0  0.51959860382E+02 -0.28406758200E+02 -0.14416207469E+03  0.15585080937E+03  0.00000000000E+00 0.  1.
         12    1    4    4    0    0 -0.21657784013E+02 -0.58710532264E+02 -0.13425886009E+03  0.14812639103E+03  0.00000000000E+00 0. -1.
         -5    1    5    5    0  502 -0.66917577211E+02  0.65057188207E+02  0.12487351228E+03  0.15596757338E+03  0.47000000000E+01 0.  1.
         11    1    6    6    0    0 -0.55814256963E+01  0.27308222251E+02  0.73419997831E+02  0.78532715456E+02  0.00000000000E+00 0. -1.
        -12    1    6    6    0    0  0.67128841608E+02  0.98667616325E+02  0.79751427230E+02  0.14353351536E+03  0.00000000000E+00 0.  1.
</event>
<event>
12    1  0.1565987E-001  0.1843148E+03  0.7818608E-02  0.1164311E+00
         21   -1    0    0  501  502  0.00000000000E+00  0.00000000000E+00  0.18632489148E+04  0.18632489148E+04  0.00000000000E+00 0. -1.
         21   -1    0    0  502  503 -0.00000000000E+00 -0.00000000000E+00 -0.26787077558E+02  0.26787077558E+02  0.00000000000E+00 0.  1.
         -6    2    1    2    0  503 -0.22474952949E+02 -0.54252637069E+02  0.38060922610E+03  0.42288927453E+03  0.17470971176E+03 0.  0.
        -24    2    3    3    0    0 -0.41098199377E+02 -0.10027553211E+03  0.27627282032E+03  0.30724712068E+03  0.79560527832E+02 0.  0.
          6    2    1    2  501    0  0.22474952949E+02  0.54252637069E+02  0.14558526111E+04  0.14671467178E+04  0.17194241512E+03 0.  0.
         24    2    5    5    0    0 -0.13007551727E+02 -0.10784084180E+02  0.36921773581E+03  0.37797904224E+03  0.79126020142E+02 0.  0.
          5    1    5    5  501    0  0.35482504676E+02  0.65036721250E+02  0.10866348753E+04  0.10891676755E+04  0.47000000000E+01 0. -1.
        -11    1    6    6    0    0 -0.21652657805E+02  0.19400168901E+02  0.55130615630E+02  0.62326470486E+02  0.00000000000E+00 0.  1.
         12    1    6    6    0    0  0.86451060781E+01 -0.30184253082E+02  0.31408712018E+03  0.31565257175E+03  0.00000000000E+00 0. -1.
         -5    1    3    3    0  503  0.18623246428E+02  0.46022895041E+02  0.10433640578E+03  0.11564215385E+03  0.47000000000E+01 0.  1.
         11    1    4    4    0    0 -0.28981666200E+02 -0.10784129031E+03  0.26891565571E+03  0.29117917294E+03  0.00000000000E+00 0. -1.
        -12    1    4    4    0    0 -0.12116533177E+02  0.75657581999E+01  0.73571646065E+01  0.16067947735E+02  0.00000000000E+00 0.  1.
</event>
<event>
12    1  0.1565987E-001  0.2323691E+03  0.7818608E-02  0.1125392E+00
         21   -1    0    0  503  502  0.00000000000E+00  0.00000000000E+00  0.19566173732E+03  0.19566173732E+03  0.00000000000E+00 0.  1.
         21   -1    0    0  501  503 -0.00000000000E+00 -0.00000000000E+00 -0.28237561863E+03  0.28237561863E+03  0.00000000000E+00 0.  1.
          6    2    1    2  501    0  0.63318975028E+01 -0.15507088701E+03 -0.86686096681E+02  0.24801187890E+03  0.17294027812E+03 0.  0.
         24    2    3    3    0    0 -0.32264784634E+02 -0.16959897334E+03 -0.79706923397E+02  0.20592187980E+03  0.79030366674E+02 0.  0.
         -6    2    1    2    0  502 -0.63318975028E+01  0.15507088701E+03 -0.27784630265E-01  0.23002547706E+03  0.16977822711E+03 0.  0.
        -24    2    5    5    0    0 -0.26014691312E+02  0.17974345339E+03  0.79955269610E+01  0.19712241591E+03  0.76215780543E+02 0.  0.
          5    1    3    3  501    0  0.38596682137E+02  0.14528086335E+02 -0.69791732838E+01  0.42089999100E+02  0.47000000000E+01 0. -1.
        -11    1    4    4    0    0 -0.52627359590E+02 -0.11738860777E+03 -0.76755287679E+02  0.14980353267E+03  0.00000000000E+00 0.  1.
         12    1    4    4    0    0  0.20362574956E+02 -0.52210365570E+02 -0.29516357182E+01  0.56118347135E+02  0.00000000000E+00 0. -1.
         -5    1    5    5    0  502  0.19682793809E+02 -0.24672566378E+02 -0.80233115913E+01  0.32903061145E+02  0.47000000000E+01 0.  1.
         13    1    6    6    0    0 -0.37931755698E+02  0.36296159657E+02  0.84793172864E+01  0.53180147779E+02  0.00000000000E+00 0. -1.
        -14    1    6    6    0    0  0.11917064386E+02  0.14344729373E+03 -0.48379032539E+00  0.14394226813E+03  0.00000000000E+00 0.  1.
</event>
<event>
12    1  0.1565987E-001  0.2562235E+03  0.7818608E-02  0.1109591E+00
         21   -1    0    0  501  502  0.00000000000E+00  0.00000000000E+00  0.45877701150E+03  0.45877701150E+03  0.00000000000E+00 0. -1.
         21   -1    0    0  502  503 -0.00000000000E+00 -0.00000000000E+00 -0.19062980569E+03  0.19062980569E+03  0.00000000000E+00 0. -1.
         -6    2    1    2    0  503  0.82582596130E+02  0.17068919684E+03 -0.29237833192E+02  0.25686593183E+03  0.17079393708E+03 0.  0.
        -24    2    3    3    0    0  0.10664308109E+03  0.89168942062E+02 -0.51966944714E+02  0.16875712758E+03  0.80340262589E+02 0.  0.
          6    2    1    2  501    0 -0.82582596130E+02 -0.17068919684E+03  0.29738503900E+03  0.39254088536E+03  0.17232468818E+03 0.  0.
         24    2    5    5    0    0 -0.97788567838E+02 -0.18066871042E+03  0.30178760048E+03  0.37324620178E+03  0.77673576049E+02 0.  0.
          5    1    5    5  501    0  0.15205971708E+02  0.99795135779E+01 -0.44025614775E+01  0.19294683579E+02  0.47000000000E+01 0. -1.
        -13    1    6    6    0    0  0.12821000419E+02 -0.18551739717E+02  0.22125408317E+02  0.31592385024E+02  0.00000000000E+00 0.  1.
         14    1    6    6    0    0 -0.11060956826E+03 -0.16211697070E+03  0.27966219216E+03  0.34165381676E+03  0.00000000000E+00 0. -1.
         -5    1    3    3    0  503 -0.24060484961E+02  0.81520254780E+02  0.22729111522E+02  0.88108804251E+02  0.47000000000E+01 0.  1.
         13    1    4    4    0    0  0.10937507184E+03  0.91132090017E+02 -0.28676563082E+02  0.14522503035E+03  0.00000000000E+00 0. -1.
        -14    1    4    4    0    0 -0.27319907477E+01 -0.19631479548E+01 -0.23290381632E+02  0.23532097227E+02  0.00000000000E+00 0.  1.
</event>
<event>
12    1  0.1565987E-001  0.2246726E+03  0.7818608E-02  0.1131367E+00
         21   -1    0    0  501  502  0.00000000000E+00  0.00000000000E+00  0.53628113053E+03  0.53628113053E+03  0.00000000000E+00 0.  1.
         21   -1    0    0  502  503 -0.00000000000E+00 -0.00000000000E+00 -0.98991550183E+02  0.98991550183E+02  0.00000000000E+00 0. -1.
         -6    2    1    2    0  503 -0.13257394094E+03  0.54098179957E+02  0.30053645807E+03  0.37225330781E+03  0.16657700820E+03 0.  0.
        -24    2    3    3    0    0 -0.27441130109E+02 -0.16420666769E+02  0.16977009215E+03  0.19018807744E+03  0.79542232130E+02 0.  0.
          6    2    1    2  501    0  0.13257394094E+03 -0.54098179957E+02  0.13675312228E+03  0.26301937290E+03  0.17313379559E+03 0.  0.
         24    2    5    5    0    0  0.48486208738E+02  0.12095536918E+02  0.12266649002E+03  0.15497827855E+03  0.80461075040E+02 0.  0.
          5    1    5    5  501    0  0.84087732201E+02 -0.66193716875E+02  0.14086632260E+02  0.10804109435E+03  0.47000000000E+01 0. -1.
        -11    1    6    6    0    0  0.43986854997E+02 -0.29444773909E+02  0.68859464965E+02  0.86853117609E+02  0.00000000000E+00 0.  1.
         12    1    6    6    0    0  0.44993537405E+01  0.41540310827E+02  0.53807025053E+02  0.68125160937E+02  0.00000000000E+00 0. -1.
         -5    1    3    3    0  503 -0.10513281083E+03  0.70518846726E+02  0.13076636592E+03  0.18206523038E+03  0.47000000000E+01 0.  1.
         13    1    4    4    0    0 -0.10238311492E+02 -0.33566087652E+02  0.24253255642E+02  0.42658242717E+02  0.00000000000E+00 0. -1.
        -14    1    4    4    0    0 -0.17202818617E+02  0.17145420883E+02  0.14551683650E+03  0.14752983472E+03  0.00000000000E+00 0.  1.
</event>
<event>
12    1  0.1565987E-001  0.3309224E+03  0.7818608E-02  0.1070743E+00
         21   -1    0    0  501  502  0.00000000000E+00  0.00000000000E+00  0.32376840608E+03  0.32376840608E+03  0.00000000000E+00 0.  1.
         21   -1    0    0  502  503 -0.00000000000E+00 -0.00000000000E+00 -0.54536747009E+03  0.54536747009E+03  0.00000000000E+00 0. -1.
         -6    2    1    2    0  503  0.24320826490E+03 -0.14444713555E+03 -0.37868294479E+03  0.50282317211E+03  0.17150840985E+03 0.  0.
        -24    2    3    3    0    0  0.53606547196E+02 -0.29069906979E+02 -0.17194686635E+03  0.19947088127E+03  0.80648535214E+02 0.  0.
          6    2    1    2  501    0 -0.24320826490E+03  0.14444713555E+03  0.15708388079E+03  0.36631270406E+03  0.17173938531E+03 0.  0.
         24    2    5    5    0    0 -0.24075918571E+03  0.10055620001E+03  0.95194702720E+02  0.29025501166E+03  0.84317290634E+02 0.  0.
          5    1    5    5  501    0 -0.24490791870E+01  0.43890935542E+02  0.61889178068E+02  0.76057692402E+02  0.47000000000E+01 0. -1.
        -11    1    6    6    0    0 -0.93038924484E+02  0.16552811320E+02  0.71874910436E+02  0.11872758644E+03  0.00000000000E+00 0.  1.
         12    1    6    6    0    0 -0.14772026123E+03  0.84003388691E+02  0.23319792283E+02  0.17152742522E+03  0.00000000000E+00 0. -1.
         -5    1    3    3    0  503  0.18960171770E+03 -0.11537722857E+03 -0.20673607844E+03  0.30335229084E+03  0.47000000000E+01 0.  1.
         11    1    4    4    0    0  0.10275722884E+02 -0.47277926232E+02 -0.12016414424E+03  0.12953846668E+03  0.00000000000E+00 0. -1.
        -12    1    4    4    0    0  0.43330824312E+02  0.18208019253E+02 -0.51782722114E+02  0.69932414589E+02  0.00000000000E+00 0.  1.
</event>
<event>
12    1  0.1565987E-001  0.1862475E+03  0.7818608E-02  0.1162611E+00
         21   -1    0    0  503  502  0.00000000000E+00  0.00000000000E+00  0.16923242708E+03  0.16923242708E+03  0.00000000000E+00 0.  1.
         21   -1    0    0  501  503 -0.00000000000E+00 -0.00000000000E+00 -0.49015083934E+03  0.49015083934E+03  0.00000000000E+00 0.  1.
          6    2    1    2  501    0  0.54123448076E+02 -0.50197738241E+02 -0.41287059403E+03  0.45167348663E+03  0.16762353820E+03 0.  0.
         24    2    3    3    0    0  0.60503596348E+02 -0.13405236037E+02 -0.12352215895E+03  0.15988760385E+03  0.80411047678E+02 0.  0.
         -6    2    1    2    0  502 -0.54123448076E+02  0.50197738241E+02  0.91952181765E+02  0.20770977979E+03  0.17099411783E+03 0.  0.
        -24    2    5    5    0    0 -0.51690594964E+02  0.97634672587E+02  0.56969633761E+02  0.14853165731E+03  0.81312158712E+02 0.  0.
          5    1    3    3  501    0 -0.63801482721E+01 -0.36792502204E+02 -0.28934843508E+03  0.29178588278E+03  0.47000000000E+01 0. -1.
        -11    1    4    4    0    0  0.22230091063E+01 -0.37418420158E+02 -0.57214050792E+02  0.68399762753E+02  0.00000000000E+00 0.  1.
         12    1    4    4    0    0  0.58280587242E+02  0.24013184121E+02 -0.66308108157E+02  0.91487841095E+02  0.00000000000E+00 0. -1.
         -5    1    5    5    0  502 -0.24328531120E+01 -0.47436934346E+02  0.34982548004E+02  0.59178122471E+02  0.47000000000E+01 0.  1.
         11    1    6    6    0    0  0.19447560657E+02  0.42835996220E+02  0.14730720436E+02  0.49296291060E+02  0.00000000000E+00 0. -1.
        -12    1    6    6    0    0 -0.71138155621E+02  0.54798676367E+02  0.42238913325E+02  0.99235366254E+02  0.00000000000E+00 0.  1.
</event>
<event>
12    1  0.1565987E-001  0.3567583E+03  0.7818608E-02  0.1059999E+00
         21   -1    0    0  501  502  0.00000000000E+00  0.00000000000E+00  0.67352862776E+03  0.67352862776E+03  0.00000000000E+00 0.  1.
         21   -1    0    0  502  503 -0.00000000000E+00 -0.00000000000E+00 -0.35572850737E+03  0.35572850737E+03  0.00000000000E+00 0. -1.
         -6    2    1    2    0  503 -0.28114617463E+03 -0.13616037193E+03  0.51179680698E+03  0.62316449450E+03  0.16975039671E+03 0.  0.
        -24    2    3    3    0    0 -0.28326101785E+03 -0.15242309291E+03  0.44782430664E+03  0.55695634202E+03  0.78639390987E+02 0.  0.
          6    2    1    2  501    0  0.28114617463E+03  0.13616037193E+03 -0.19399668659E+03  0.40609264063E+03  0.17231860018E+03 0.  0.
         24    2    5    5    0    0  0.64332994726E+02  0.37276769810E+01 -0.40458107644E+02  0.10920451541E+03  0.78333504484E+02 0.  0.
          5    1    5    5  501    0  0.21681317990E+03  0.13243269495E+03 -0.15353857895E+03  0.29688812522E+03  0.47000000000E+01 0. -1.
        -11    1    6    6    0    0  0.20911938173E+02  0.38844108477E+02 -0.87111855047E+01  0.44967306729E+02  0.00000000000E+00 0.  1.
         12    1    6    6    0    0  0.43421056553E+02 -0.35116431496E+02 -0.31746922140E+02  0.64237208677E+02  0.00000000000E+00 0. -1.
         -5    1    3    3    0  503  0.21148432216E+01  0.16262720974E+02  0.63972500345E+02  0.66208152487E+02  0.47000000000E+01 0.  1.
         13    1    4    4    0    0 -0.11279672974E+03 -0.23355173554E+02  0.12750465431E+03  0.17183132206E+03  0.00000000000E+00 0. -1.
        -14    1    4    4    0    0 -0.17046428811E+03 -0.12906791935E+03  0.32031965233E+03  0.38512501995E+03  0.00000000000E+00 0.  1.
</event>
<event>
12    1  0.1565987E-001  0.1972006E+03  0.7818608E-02  0.1154512E+00
         21   -1    0    0  503  502  0.00000000000E+00  0.00000000000E+00  0.59748228406E+02  0.59748228406E+02  0.00000000000E+00 0. -1.
         21   -1    0    0  501  503 -0.00000000000E+00 -0.00000000000E+00 -0.13619827943E+04  0.13619827943E+04  0.00000000000E+00 0. -1.
          6    2    1    2  501    0  0.59209825343E+02  0.53167211485E+02 -0.11854933653E+04  0.12017830953E+04  0.18043151934E+03 0.  0.
         24    2    3    3    0    0 -0.36486980861E+02  0.44049706354E+01 -0.63434929007E+03  0.64025169233E+03  0.78565286136E+02 0.  0.
         -6    2    1    2    0  502 -0.59209825343E+02 -0.53167211485E+02 -0.11674120052E+03  0.21994792734E+03  0.16857054027E+03 0.  0.
        -24    2    5    5    0    0  0.80248465567E+01 -0.78263707781E+02 -0.52161461759E+02  0.12328889832E+03  0.79307806922E+02 0.  0.
          5    1    3    3  501    0  0.95696806204E+02  0.48762240850E+02 -0.55114407527E+03  0.56153140300E+03  0.47000000000E+01 0. -1.
        -13    1    4    4    0    0 -0.10422276704E+02 -0.36382863949E+02 -0.24520904559E+03  0.24811250005E+03  0.00000000000E+00 0.  1.
         14    1    4    4    0    0 -0.26064704158E+02  0.40787834585E+02 -0.38914024448E+03  0.39213919229E+03  0.00000000000E+00 0. -1.
         -5    1    5    5    0  502 -0.67234671900E+02  0.25096496296E+02 -0.64579738763E+02  0.96659029017E+02  0.47000000000E+01 0.  1.
         11    1    6    6    0    0 -0.27636256019E+02 -0.66879368387E+02 -0.44883981503E+02  0.85153886336E+02  0.00000000000E+00 0. -1.
        -12    1    6    6    0    0  0.35661102575E+02 -0.11384339394E+02 -0.72774802559E+01  0.38135011986E+02  0.00000000000E+00 0.  1.
</event>
<event>
12    1  0.1565987E-001  0.1797560E+03  0.7818608E-02  0.1168208E+00
         21   -1    0    0  503  502  0.00000000000E+00  0.00000000000E+00  0.91177825492E+03  0.91177825492E+03  0.00000000000E+00 0. -1.
         21   -1    0    0  501  503 -0.00000000000E+00 -0.00000000000E+00 -0.36686431305E+02  0.36686431305E+02  0.00000000000E+00 0. -1.
          6    2    1    2  501    0  0.44762990778E+02 -0.26533634979E+02  0.34623755676E+03  0.39011880487E+03  0.17205951609E+03 0.  0.
         24    2    3    3    0    0  0.11731185690E+02  0.51354241733E+02  0.16443459989E+03  0.18953957711E+03  0.78176945365E+02 0.  0.
         -6    2    1    2    0  502 -0.44762990778E+02  0.26533634979E+02  0.52885426686E+03  0.55834588135E+03  0.17133455145E+03 0.  0.
        -24    2    5    5    0    0  0.28908739823E+02 -0.35463796188E+02  0.30493800386E+03  0.31455952367E+03  0.62186104956E+02 0.  0.
          5    1    3    3  501    0  0.33031805088E+02 -0.77887876712E+02  0.18180295686E+03  0.20057922776E+03  0.47000000000E+01 0. -1.
        -13    1    4    4    0    0  0.28293147446E+02  0.43015748498E+02  0.44119621276E+02  0.67804113392E+02  0.00000000000E+00 0.  1.
         14    1    4    4    0    0 -0.16561961756E+02  0.83384932345E+01  0.12031497862E+03  0.12173546372E+03  0.00000000000E+00 0. -1.
         -5    1    5    5    0  502 -0.73671730601E+02  0.61997431167E+02  0.22391626299E+03  0.24378635769E+03  0.47000000000E+01 0.  1.
         11    1    6    6    0    0  0.30304188114E+01  0.17011002474E+02  0.47182624568E+02  0.50246967117E+02  0.00000000000E+00 0. -1.
        -12    1    6    6    0    0  0.25878321012E+02 -0.52474798662E+02  0.25775537930E+03  0.26431255655E+03  0.00000000000E+00 0.  1.
</event>
<event>
12    1  0.1565987E-001  0.1778770E+03  0.7818608E-02  0.1171030E+00
         21   -1    0    0  503  502  0.00000000000E+00  0.00000000000E+00  0.84373716241E+02  0.84373716241E+02  0.00000000000E+00 0.  1.
         21   -1    0    0  501  503 -0.00000000000E+00 -0.00000000000E+00 -0.46957273090E+03  0.46957273090E+03  0.00000000000E+00 0.  1.
          6    2    1    2  501    0 -0.14746473825E+02  0.10931760043E+02 -0.32510179971E+03  0.37058251498E+03  0.17692726859E+03 0.  0.
         24    2    3    3    0    0 -0.68177610820E+02 -0.29519379966E+02 -0.17050505473E+03  0.20201969380E+03  0.78869528864E+02 0.  0.
         -6    2    1    2    0  502  0.14746473825E+02 -0.10931760043E+02 -0.60097214954E+02  0.18336393216E+03  0.17226054250E+03 0.  0.
        -24    2    5    5    0    0  0.98694047977E-01 -0.71056262181E+02 -0.57898678636E+02  0.12126371661E+03  0.79395401891E+02 0.  0.
          5    1    3    3  501    0  0.53431136996E+02  0.40451140008E+02 -0.15459674497E+03  0.16856282118E+03  0.47000000000E+01 0. -1.
        -13    1    4    4    0    0 -0.24677395042E+02  0.26622283898E+02 -0.45039402236E+02  0.57846932328E+02  0.00000000000E+00 0.  1.
         14    1    4    4    0    0 -0.43500215778E+02 -0.56141663864E+02 -0.12546565250E+03  0.14417276147E+03  0.00000000000E+00 0. -1.
         -5    1    5    5    0  502  0.14647779777E+02  0.60124502138E+02 -0.21985363178E+01  0.62100215553E+02  0.47000000000E+01 0.  1.
         13    1    6    6    0    0 -0.21514470332E+02 -0.11941597587E+02  0.11852451268E+02  0.27312172884E+02  0.00000000000E+00 0. -1.
        -14    1    6    6    0    0  0.21613164380E+02 -0.59114664594E+02 -0.69751129905E+02  0.93951543721E+02  0.00000000000E+00 0.  1.
</event>
<event>
12    1  0.1565987E-001  0.2240271E+03  0.7818608E-02  0.1131180E+00
         21   -1    0    0  501  502  0.00000000000E+00  0.00000000000E+00  0.38453860303E+03  0.38453860303E+03  0.00000000000E+00 0. -1.
         21   -1    0    0  502  503 -0.00000000000E+00 -0.00000000000E+00 -0.27761690082E+03  0.27761690082E+03  0.00000000000E+00 0. -1.
         -6    2    1    2    0  503 -0.28507280541E+02 -0.14019266701E+03 -0.18830710490E+03  0.29155031440E+03  0.17051501736E+03 0.  0.
        -24    2    3    3    0    0 -0.59558743398E+01 -0.98374974013E+02 -0.33897276494E+02  0.12992800629E+03  0.77583203819E+02 0.  0.
          6    2    1    2  501    0  0.28507280541E+02  0.14019266701E+03  0.29522880711E+03  0.37060518944E+03  0.17239927193E+03 0.  0.
         24    2    5    5    0    0 -0.15056495942E+02  0.52562734974E+01  0.10579991563E+03  0.13393869869E+03  0.80570629749E+02 0.  0.
          5    1    5    5  501    0  0.43563776484E+02  0.13493639352E+03  0.18942889148E+03  0.23666649075E+03  0.47000000000E+01 0. -1.
        -13    1    6    6    0    0  0.20625167756E+02 -0.10358168497E+02  0.88251123592E+02  0.91219241473E+02  0.00000000000E+00 0.  1.
         14    1    6    6    0    0 -0.35681663698E+02  0.15614441994E+02  0.17548792043E+02  0.42719457221E+02  0.00000000000E+00 0. -1.
         -5    1    3    3    0  503 -0.22551406202E+02 -0.41817693000E+02 -0.15440982841E+03  0.16162230811E+03  0.47000000000E+01 0.  1.
         13    1    4    4    0    0  0.16721022792E+02 -0.79079736355E+02 -0.51017151345E+02  0.95582148106E+02  0.00000000000E+00 0. -1.
        -14    1    4    4    0    0 -0.22676897132E+02 -0.19295237658E+02  0.17119874851E+02  0.34345858189E+02  0.00000000000E+00 0.  1.
</event>
<event>
12    1  0.1565987E-001  0.2026958E+03  0.7818608E-02  0.1147667E+00
         21   -1    0    0  501  502  0.00000000000E+00  0.00000000000E+00  0.64412533117E+03  0.64412533117E+03  0.00000000000E+00 0.  1.
         21   -1    0    0  502  503 -0.00000000000E+00 -0.00000000000E+00 -0.75803986524E+02  0.75803986524E+02  0.00000000000E+00 0.  1.
         -6    2    1    2    0  503  0.23088229414E+02 -0.10437713249E+03  0.13970561884E+03  0.24617724919E+03  0.17221476696E+03 0.  0.
        -24    2    3    3    0    0 -0.51181347810E+02 -0.37191289399E+02  0.85137529596E+02  0.13202965186E+03  0.78617476768E+02 0.  0.
          6    2    1    2  501    0 -0.23088229414E+02  0.10437713249E+03  0.42861572581E+03  0.47375206850E+03  0.17117806483E+03 0.  0.
         24    2    5    5    0    0  0.10377625781E+01  0.11136939288E+03  0.42628965159E+03  0.44809167458E+03  0.81603083000E+02 0.  0.
          5    1    5    5  501    0 -0.24125991992E+02 -0.69922603861E+01  0.23260742138E+01  0.25660393920E+02  0.47000000000E+01 0. -1.
        -11    1    6    6    0    0 -0.14312229647E+02  0.70272164723E+02  0.12910034298E+03  0.14768180528E+03  0.00000000000E+00 0.  1.
         12    1    6    6    0    0  0.15349992225E+02  0.41097228157E+02  0.29718930861E+03  0.30040986931E+03  0.00000000000E+00 0. -1.
         -5    1    3    3    0  503  0.74269577223E+02 -0.67185843095E+02  0.54568089248E+02  0.11414759734E+03  0.47000000000E+01 0.  1.
         13    1    4    4    0    0 -0.57040034830E+02 -0.56400812330E+02  0.61942257478E+02  0.10134821393E+03  0.00000000000E+00 0. -1.
        -14    1    4    4    0    0  0.58586870206E+01  0.19209522931E+02  0.23195272119E+02  0.30681437931E+02  0.00000000000E+00 0.  1.
</event>
<event>
12    1  0.1565987E-001  0.2046827E+03  0.7818608E-02  0.1145969E+00
         21   -1    0    0  501  502  0.00000000000E+00  0.00000000000E+00  0.12403917086E+03  0.12403917086E+03  0.00000000000E+00 0.  1.
         21   -1    0    0  502  503 -0.00000000000E+00 -0.00000000000E+00 -0.50398647287E+03  0.50398647287E+03  0.00000000000E+00 0.  1.
         -6    2    1    2    0  503  0.63252156225E+02 -0.89677822757E+02 -0.37103073304E+03  0.42374380465E+03  0.17277748686E+03 0.  0.
        -24    2    3    3    0    0  0.39519248847E+02 -0.34193620622E+01 -0.84447595127E+02  0.12348432043E+03  0.80892014455E+02 0.  0.
          6    2    1    2  501    0 -0.63252156225E+02  0.89677822757E+02 -0.89165689677E+01  0.20428183908E+03  0.17207154737E+03 0.  0.
         24    2    5    5    0    0 -0.10106863477E+03  0.86856734986E+02  0.24751693880E+02  0.15335359044E+03  0.71733646242E+02 0.  0.
          5    1    5    5  501    0  0.37816478550E+02  0.28210877702E+01 -0.33668262848E+02  0.50928248637E+02  0.47000000000E+01 0. -1.
        -13    1    6    6    0    0 -0.31886052060E+02  0.74446236323E+02  0.15552723018E+02  0.82467263881E+02  0.00000000000E+00 0.  1.
         14    1    6    6    0    0 -0.69182582715E+02  0.12410498663E+02  0.91989708616E+01  0.70886326559E+02  0.00000000000E+00 0. -1.
         -5    1    3    3    0  503  0.23732907378E+02 -0.86258460694E+02 -0.28658313791E+03  0.30025948423E+03  0.47000000000E+01 0.  1.
         11    1    4    4    0    0 -0.24101078211E+01  0.33639971190E+02 -0.37543077195E+02  0.50467206448E+02  0.00000000000E+00 0. -1.
        -12    1    4    4    0    0  0.41929356668E+02 -0.37059333252E+02 -0.46904517932E+02  0.73017113980E+02  0.00000000000E+00 0.  1.
</event>
<event>
12    1  0.1565987E-001  0.2715484E+03  0.7818608E-02  0.1100416E+00
         21   -1    0    0  503  502  0.00000000000E+00  0.00000000000E+00  0.31795978975E+03  0.31795978975E+03  0.00000000000E+00 0.  1.
         21   -1    0    0  501  503 -0.00000000000E+00 -0.00000000000E+00 -0.23186103210E+03  0.23186103210E+03  0.00000000000E+00 0.  1.
          6    2    1    2  501    0  0.17151654417E+03  0.12156032956E+03  0.47699331258E+02  0.27557082777E+03  0.17166600208E+03 0.  0.
         24    2    3    3    0    0  0.13435422702E+03  0.14746573955E+03  0.16442813284E+02  0.22033326810E+03  0.92082464487E+02 0.  0.
         -6    2    1    2    0  502 -0.17151654417E+03 -0.12156032956E+03  0.38399426388E+02  0.27424999408E+03  0.17188282247E+03 0.  0.
        -24    2    5    5    0    0 -0.10862255002E+03  0.37321936153E+01  0.21855005695E+02  0.13300666249E+03  0.73487028443E+02 0.  0.
          5    1    3    3  501    0  0.37162317147E+02 -0.25905409985E+02  0.31256517974E+02  0.55237559668E+02  0.47000000000E+01 0. -1.
        -11    1    4    4    0    0  0.13179979300E+03  0.84379048546E+02  0.89485481783E+01  0.15675166916E+03  0.00000000000E+00 0.  1.
         12    1    4    4    0    0  0.25544340134E+01  0.63086691002E+02  0.74942651059E+01  0.63581598944E+02  0.00000000000E+00 0. -1.
         -5    1    5    5    0  502 -0.62893994145E+02 -0.12529252318E+03  0.16544420693E+02  0.14124333159E+03  0.47000000000E+01 0.  1.
         11    1    6    6    0    0 -0.16227624302E+02  0.16642638693E+00  0.35979763038E+02  0.39470328559E+02  0.00000000000E+00 0. -1.
        -12    1    6    6    0    0 -0.92394925718E+02  0.35657672284E+01 -0.14124757343E+02  0.93536333926E+02  0.00000000000E+00 0.  1.
</event>
<event>
12    1  0.1565987E-001  0.2541412E+03  0.7818608E-02  0.1110796E+00
         21   -1    0    0  503  502  0.00000000000E+00  0.00000000000E+00  0.18801854514E+03  0.18801854514E+03  0.00000000000E+00 0.  1.
         21   -1    0    0  501  503 -0.00000000000E+00 -0.00000000000E+00 -0.42070904099E+03  0.42070904099E+03  0.00000000000E+00 0. -1.
          6    2    1    2  501    0 -0.51407863674E+02  0.17948859067E+03 -0.24721146022E+03  0.35417186544E+03  0.17165454139E+03 0.  0.
         24    2    3    3    0    0 -0.15845456765E+02  0.41137864090E+02 -0.16917091057E+03  0.19132830334E+03  0.77745226952E+02 0.  0.
         -6    2    1    2    0  502  0.51407863674E+02 -0.17948859067E+03  0.14520964369E+02  0.25455572069E+03  0.17242051474E+03 0.  0.
        -24    2    5    5    0    0  0.59985826217E+02 -0.12946034605E+03 -0.51690664520E+02  0.17099450660E+03  0.78796674688E+02 0.  0.
          5    1    3    3  501    0 -0.35562406909E+02  0.13835072658E+03 -0.78040549652E+02  0.16284356210E+03  0.47000000000E+01 0. -1.
        -13    1    4    4    0    0 -0.48261946028E+01 -0.21571447741E+01  0.74555003471E+01  0.91394700802E+01  0.00000000000E+00 0.  1.
         14    1    4    4    0    0 -0.11019262162E+02  0.43295008864E+02 -0.17662641092E+03  0.18218883326E+03  0.00000000000E+00 0. -1.
         -5    1    5    5    0  502 -0.85779625428E+01 -0.50028244617E+02  0.66211628888E+02  0.83561214094E+02  0.47000000000E+01 0.  1.
         13    1    6    6    0    0  0.13512736274E+01 -0.93717224064E+02 -0.37030388569E+02  0.10077695026E+03  0.00000000000E+00 0. -1.
        -14    1    6    6    0    0  0.58634552589E+02 -0.35743121984E+02 -0.14660275950E+02  0.70217556334E+02  0.00000000000E+00 0.  1.
</event>
<event>
12    1  0.1565987E-001  0.2230375E+03  0.7818608E-02  0.1132766E+00
         21   -1    0    0  501  502  0.00000000000E+00  0.00000000000E+00  0.43153404146E+03  0.43153404146E+03  0.00000000000E+00 0. -1.
         21   -1    0    0  502  503 -0.00000000000E+00 -0.00000000000E+00 -0.14810122532E+03  0.14810122532E+03  0.00000000000E+00 0.  1.
         -6    2    1    2    0  503  0.75468747732E+02 -0.12071801998E+03  0.43789408191E+00  0.22303790237E+03  0.17168966745E+03 0.  0.
        -24    2    3    3    0    0  0.21542180807E+02 -0.28654870920E+02  0.28420944094E+02  0.11263482667E+03  0.10292563789E+03 0.  0.
          6    2    1    2  501    0 -0.75468747732E+02  0.12071801998E+03  0.28299492206E+03  0.35659736441E+03  0.16372899000E+03 0.  0.
         24    2    5    5    0    0 -0.16416775792E+02  0.53133717660E+02  0.52001218592E+02  0.10873660844E+03  0.77632601407E+02 0.  0.
          5    1    5    5  501    0 -0.59051971941E+02  0.67584302317E+02  0.23099370346E+03  0.24786075597E+03  0.47000000000E+01 0. -1.
        -11    1    6    6    0    0 -0.14203619748E+02 -0.18625958037E+02  0.16448312548E+02  0.28621951583E+02  0.00000000000E+00 0.  1.
         12    1    6    6    0    0 -0.22131560436E+01  0.71759675697E+02  0.35552906044E+02  0.80114656862E+02  0.00000000000E+00 0. -1.
         -5    1    3    3    0  503  0.53926566925E+02 -0.92063149057E+02 -0.27983050012E+02  0.11040307569E+03  0.47000000000E+01 0.  1.
         13    1    4    4    0    0  0.23471770093E+02 -0.43658030972E+02  0.59876426967E+02  0.77731165989E+02  0.00000000000E+00 0. -1.
        -14    1    4    4    0    0 -0.19295892858E+01  0.15003160052E+02 -0.31455482873E+02  0.34903660683E+02  0.00000000000E+00 0.  1.
</event>
<event>
12    1  0.1565987E-001  0.1885092E+03  0.7818608E-02  0.1159942E+00
         21   -1    0    0  503  502  0.00000000000E+00  0.00000000000E+00  0.17845776335E+03  0.17845776335E+03  0.00000000000E+00 0. -1.
         21   -1    0    0  501  503 -0.00000000000E+00 -0.00000000000E+00 -0.55276906364E+03  0.55276906364E+03  0.00000000000E+00 0. -1.
          6    2    1    2  501    0 -0.16849353904E+02 -0.65855356107E+02 -0.47973820408E+03  0.51523943230E+03  0.17522014576E+03 0.  0.
         24    2    3    3    0    0  0.37249894290E+02 -0.63116022841E+02 -0.18030795362E+03  0.21091263838E+03  0.81252667195E+02 0.  0.
         -6    2    1    2    0  502  0.16849353904E+02  0.65855356107E+02  0.10542690379E+03  0.21598739469E+03  0.17582631761E+03 0.  0.
        -24    2    5    5    0    0 -0.20872110964E+02  0.10700513274E+03  0.77401490817E+02  0.15334773631E+03  0.75091903708E+02 0.  0.
          5    1    3    3  501    0 -0.54099248193E+02 -0.27393332662E+01 -0.29943025047E+03  0.30432679392E+03  0.47000000000E+01 0. -1.
        -11    1    4    4    0    0 -0.15562031908E+02  0.77907075462E+01 -0.54003649481E+02  0.56738576986E+02  0.00000000000E+00 0.  1.
         12    1    4    4    0    0  0.52811926198E+02 -0.70906730387E+02 -0.12630430414E+03  0.15417406139E+03  0.00000000000E+00 0. -1.
         -5    1    5    5    0  502  0.37721464867E+02 -0.41149776634E+02  0.28025412975E+02  0.62639658374E+02  0.47000000000E+01 0.  1.
         11    1    6    6    0    0 -0.14989966164E+02  0.43466732483E+02  0.76827543779E+02  0.89535062414E+02  0.00000000000E+00 0. -1.
        -12    1    6    6    0    0 -0.58821447998E+01  0.63538400259E+02  0.57394703730E+00  0.63812673899E+02  0.00000000000E+00 0.  1.
</event>
<event>
12    1  0.1565987E-001  0.1940661E+03  0.7818608E-02  0.1155665E+00
         21   -1    0    0  503  502  0.00000000000E+00  0.00000000000E+00  0.12742801133E+03  0.12742801133E+03  0.00000000000E+00 0.  1.
         21   -1    0    0  501  503 -0.00000000000E+00 -0.00000000000E+00 -0.33272885957E+03  0.33272885957E+03  0.00000000000E+00 0. -1.
          6    2    1    2  501    0 -0.17023322517E+02 -0.81575020616E+02 -0.18429644595E+03  0.26495744117E+03  0.17115194461E+03 0.  0.
         24    2    3    3    0    0 -0.44252444692E+02 -0.75505329197E+02 -0.51598661183E+02  0.12927745617E+03  0.79943137535E+02 0.  0.
         -6    2    1    2    0  502  0.17023322517E+02  0.81575020616E+02 -0.21004402295E+02  0.19519942973E+03  0.17526367266E+03 0.  0.
        -24    2    5    5    0    0 -0.61328499238E+01  0.21756676197E+02 -0.74759900171E+02  0.11137708067E+03  0.79403064277E+02 0.  0.
          5    1    3    3  501    0  0.27229122175E+02 -0.60696914186E+01 -0.13269778476E+03  0.13567998500E+03  0.47000000000E+01 0. -1.
        -11    1    4    4    0    0 -0.16116682329E+02  0.15826429034E+02 -0.14031767502E+02  0.26591611543E+02  0.00000000000E+00 0.  1.
         12    1    4    4    0    0 -0.28135762363E+02 -0.91331758231E+02 -0.37566893681E+02  0.10268584462E+03  0.00000000000E+00 0. -1.
         -5    1    5    5    0  502  0.23156172440E+02  0.59818344419E+02  0.53755497876E+02  0.83822349067E+02  0.47000000000E+01 0.  1.
         11    1    6    6    0    0 -0.37040377842E+02  0.25115625915E+02 -0.21365536988E+02  0.49591031715E+02  0.00000000000E+00 0. -1.
        -12    1    6    6    0    0  0.30907527918E+02 -0.33589497187E+01 -0.53394363183E+02  0.61786048950E+02  0.00000000000E+00 0.  1.
</event>
<event>
12    1  0.1565987E-001  0.2426120E+03  0.7818608E-02  0.1118079E+00
         21   -1    0    0  501  502  0.00000000000E+00  0.00000000000E+00  0.72372626740E+02  0.72372626740E+02  0.00000000000E+00 0.  1.
         21   -1    0    0  502  503 -0.00000000000E+00 -0.00000000000E+00 -0.12018836103E+04  0.12018836103E+04  0.00000000000E+00 0.  1.
         -6    2    1    2    0  503 -0.11276874061E+03 -0.12822716143E+03 -0.92709563384E+03  0.95829331377E+03  0.17222301572E+03 0.  0.
        -24    2    3    3    0    0 -0.27773978926E+02 -0.53552033839E+02 -0.66945606359E+03  0.67686708479E+03  0.79614164395E+02 0.  0.
          6    2    1    2  501    0  0.11276874061E+03  0.12822716143E+03 -0.20241534971E+03  0.31596292326E+03  0.17234152515E+03 0.  0.
         24    2    5    5    0    0  0.11191889822E+03  0.15976225260E+03 -0.17341397667E+03  0.27285429483E+03  0.79543961206E+02 0.  0.
          5    1    5    5  501    0  0.84984238740E+00 -0.31535091173E+02 -0.29001373039E+02  0.43108628435E+02  0.47000000000E+01 0. -1.
        -11    1    6    6    0    0  0.67718681465E+02  0.15033029855E+03 -0.14418931836E+03  0.21903328060E+03  0.00000000000E+00 0.  1.
         12    1    6    6    0    0  0.44200216759E+02  0.94319540493E+01 -0.29224658310E+02  0.53821014223E+02  0.00000000000E+00 0. -1.
         -5    1    3    3    0  503 -0.84994761685E+02 -0.74675127590E+02 -0.25763957026E+03  0.28142622898E+03  0.47000000000E+01 0.  1.
         11    1    4    4    0    0 -0.40167870089E+01  0.20404407126E+02 -0.10017453085E+03  0.10231036624E+03  0.00000000000E+00 0. -1.
        -12    1    4    4    0    0 -0.23757191917E+02 -0.73956440965E+02 -0.56928153273E+03  0.57455671856E+03  0.00000000000E+00 0.  1.
</event>
<event>
12    1  0.1565987E-001  0.1782233E+03  0.7818608E-02  0.1169789E+00
         21   -1    0    0  501  502  0.00000000000E+00  0.00000000000E+00  0.53961056369E+03  0.53961056369E+03  0.00000000000E+00 0.  1.
         21   -1    0    0  502  503 -0.00000000000E+00 -0.00000000000E+00 -0.99212630879E+02  0.99212630879E+02  0.00000000000E+00 0. -1.
         -6    2    1    2    0  503  0.43650027002E+02 -0.27007424671E+01  0.42437711349E+03  0.45988122630E+03  0.17170378265E+03 0.  0.
        -24    2    3    3    0    0  0.44783993265E+02 -0.66057217795E+02  0.19195546010E+03  0.21893051804E+03  0.68662296712E+02 0.  0.
          6    2    1    2  501    0 -0.43650027002E+02  0.27007424671E+01  0.16020819321E+02  0.17894196828E+03  0.17277425298E+03 0.  0.
         24    2    5    5    0    0  0.23778611926E+02  0.41817727486E+02 -0.14886012374E+02  0.94953385062E+02  0.80500976722E+02 0.  0.
          5    1    5    5  501    0 -0.67428638928E+02 -0.39116985019E+02  0.30906831696E+02  0.83988583213E+02  0.47000000000E+01 0. -1.
        -11    1    6    6    0    0  0.15019194079E+02 -0.18711443219E+02 -0.23025320971E+02  0.33254468932E+02  0.00000000000E+00 0.  1.
         12    1    6    6    0    0  0.87594178473E+01  0.60529170705E+02  0.81393085965E+01  0.61698916131E+02  0.00000000000E+00 0. -1.
         -5    1    3    3    0  503 -0.11339662627E+01  0.63356475328E+02  0.23242165339E+03  0.24095070826E+03  0.47000000000E+01 0.  1.
         13    1    4    4    0    0 -0.95514170826E+01 -0.49782404658E+01  0.53465589370E+00  0.10784169108E+02  0.00000000000E+00 0. -1.
        -14    1    4    4    0    0  0.54335410347E+02 -0.61078977330E+02  0.19142080421E+03  0.20814634893E+03  0.00000000000E+00 0.  1.
</event>
<event>
12    1  0.1565987E-001  0.1998347E+03  0.7818608E-02  0.1151874E+00
         21   -1    0    0  501  502  0.00000000000E+00  0.00000000000E+00  0.17430086883E+03  0.17430086883E+03  0.00000000000E+00 0. -1.
         21   -1    0    0  502  503 -0.00000000000E+00 -0.00000000000E+00 -0.39300607339E+03  0.39300607339E+03  0.00000000000E+00 0. -1.
         -6    2    1    2    0  503  0.81472244070E+02 -0.90860391167E+01 -0.29968432840E+03  0.36020079681E+03  0.18224608273E+03 0.  0.
        -24    2    3    3    0    0  0.88344766063E+02  0.48451141741E+02 -0.14027080380E+03  0.19051720725E+03  0.80427588755E+02 0.  0.
          6    2    1    2  501    0 -0.81472244070E+02  0.90860391167E+01  0.80979123844E+02  0.20710614541E+03  0.17209025048E+03 0.  0.
         24    2    5    5    0    0 -0.24479929773E+02  0.48126867891E+02 -0.10254835328E+02  0.92572152614E+02  0.74491472112E+02 0.  0.
          5    1    5    5  501    0 -0.56992314298E+02 -0.39040828774E+02  0.91233959172E+02  0.11453399280E+03  0.47000000000E+01 0. -1.
        -11    1    6    6    0    0  0.25316002887E+02  0.27174120429E+02  0.19338911347E+01  0.37189686180E+02  0.00000000000E+00 0.  1.
         12    1    6    6    0    0 -0.49795932659E+02  0.20952747462E+02 -0.12188726462E+02  0.55382466435E+02  0.00000000000E+00 0. -1.
         -5    1    3    3    0  503 -0.68725219925E+01 -0.57537180857E+02 -0.15941352461E+03  0.16968358956E+03  0.47000000000E+01 0.  1.
         11    1    4    4    0    0  0.26900406690E+02 -0.21307534649E+02 -0.25132205482E+02  0.42535522394E+02  0.00000000000E+00 0. -1.
        -12    1    4    4    0    0  0.61444359372E+02  0.69758676389E+02 -0.11513859832E+03  0.14798168485E+03  0.00000000000E+00 0.  1.
</event>
<event>
12    1  0.1565987E-001  0.1963266E+03  0.7818608E-02  0.1153604E+00
         21   -1    0    0  501  502  0.00000000000E+00  0.00000000000E+00  0.10186640206E+03  0.10186640206E+03  0.00000000000E+00 0.  1.
         21   -1    0    0  502  503 -0.00000000000E+00 -0.00000000000E+00 -0.37475137363E+03  0.37475137363E+03  0.00000000000E+00 0. -1.
         -6    2    1    2    0  503  0.11327976828E+02 -0.83311057187E+02 -0.11708316548E+03  0.22858825957E+03  0.17741214577E+03 0.  0.
        -24    2    3    3    0    0  0.20441464806E+02 -0.10899813337E+03 -0.13771407415E+03  0.19408310142E+03  0.80028978987E+02 0.  0.
          6    2    1    2  501    0 -0.11327976828E+02  0.83311057187E+02 -0.15580180609E+03  0.24802951612E+03  0.17371062942E+03 0.  0.
         24    2    5    5    0    0 -0.60281539510E+02  0.53504058802E+02 -0.40828698391E+02  0.11947674895E+03  0.78173925405E+02 0.  0.
          5    1    5    5  501    0  0.48953562683E+02  0.29806998385E+02 -0.11497310770E+03  0.12855276717E+03  0.47000000000E+01 0. -1.
        -13    1    6    6    0    0 -0.69455351936E+02  0.31264597938E+02 -0.52727688333E+02  0.92637627958E+02  0.00000000000E+00 0.  1.
         14    1    6    6    0    0  0.91738124256E+01  0.22239460864E+02  0.11898989942E+02  0.26839120991E+02  0.00000000000E+00 0. -1.
         -5    1    3    3    0  503 -0.91134879781E+01  0.25687076183E+02  0.20630908673E+02  0.34505158145E+02  0.47000000000E+01 0.  1.
         11    1    4    4    0    0  0.42523981247E+02 -0.25765752859E+02 -0.61528227440E+02  0.79106799793E+02  0.00000000000E+00 0. -1.
        -12    1    4    4    0    0 -0.22082516441E+02 -0.83232380511E+02 -0.76185846710E+02  0.11497630163E+03  0.00000000000E+00 0.  1.
</event>
<event>
12    1  0.1565987E-001  0.2279645E+03  0.7818608E-02  0.1128099E+00
         21   -1    0    0  503  502  0.00000000000E+00  0.00000000000E+00  0.22863878005E+04  0.22863878005E+04  0.00000000000E+00 0.  1.
         21   -1    0    0  501  503 -0.00000000000E+00 -0.00000000000E+00 -0.44059257001E+02  0.44059257001E+02  0.00000000000E+00 0. -1.
          6    2    1    2  501    0  0.10138740714E+03 -0.11058247120E+03  0.19319794025E+04  0.19453699222E+04  0.17149878467E+03 0.  0.
         24    2    3    3    0    0  0.81185024497E+02 -0.88470001545E+02  0.18773127143E+04  0.18828588481E+04  0.80227584743E+02 0.  0.
         -6    2    1    2    0  502 -0.10138740714E+03  0.11058247120E+03  0.31034914102E+03  0.38507713535E+03  0.17163892791E+03 0.  0.
        -24    2    5    5    0    0  0.96379450651E+01  0.69727052514E+02  0.17780096970E+03  0.20735009242E+03  0.80163109741E+02 0.  0.
          5    1    3    3  501    0  0.20202382644E+02 -0.22112469653E+02  0.54666688217E+02  0.62511074053E+02  0.47000000000E+01 0. -1.
        -11    1    4    4    0    0  0.31266626673E+02 -0.33113884766E+02  0.12942209551E+04  0.12950220121E+04  0.00000000000E+00 0.  1.
         12    1    4    4    0    0  0.49918397824E+02 -0.55356116779E+02  0.58309175923E+03  0.58783683602E+03  0.00000000000E+00 0. -1.
         -5    1    5    5    0  502 -0.11102535221E+03  0.40855418683E+02  0.13254817132E+03  0.17772704293E+03  0.47000000000E+01 0.  1.
         13    1    6    6    0    0 -0.15310213661E+02  0.34289831373E+02  0.17751571400E+02  0.41536892820E+02  0.00000000000E+00 0. -1.
        -14    1    6    6    0    0  0.24948158726E+02  0.35437221141E+02  0.16004939830E+03  0.16581319960E+03  0.00000000000E+00 0.  1.
</event>
<event>
12    1  0.1565987E-001  0.1778707E+03  0.7818608E-02  0.1170288E+00
         21   -1    0    0  501  502  0.00000000000E+00  0.00000000000E+00  0.53037804884E+02  0.53037804884E+02  0.00000000000E+00 0.  1.
         21   -1    0    0  502  503 -0.00000000000E+00 -0.00000000000E+00 -0.68392938976E+03  0.68392938976E+03  0.00000000000E+00 0.  1.
         -6    2    1    2    0  503  0.30024367712E+02  0.19803477265E+02 -0.18088487574E+03  0.25368744933E+03  0.17419627811E+03 0.  0.
        -24    2    3    3    0    0 -0.37014046288E+02  0.37065574288E+02 -0.55044174105E+02  0.10998601881E+03  0.79518342607E+02 0.  0.
          6    2    1    2  501    0 -0.30024367712E+02 -0.19803477265E+02 -0.45000670914E+03  0.48327974532E+03  0.17250980724E+03 0.  0.
         24    2    5    5    0    0 -0.53679290828E+02 -0.47665330367E+02 -0.42615505232E+03  0.43938407606E+03  0.79352301174E+02 0.  0.
          5    1    5    5  501    0  0.23654923116E+02  0.27861853103E+02 -0.23851656823E+02  0.43895669253E+02  0.47000000000E+01 0. -1.
        -11    1    6    6    0    0 -0.33769257856E+02  0.11002664830E+02 -0.77279934465E+02  0.85050630100E+02  0.00000000000E+00 0.  1.
         12    1    6    6    0    0 -0.19910032972E+02 -0.58667995197E+02 -0.34887511785E+03  0.35433344596E+03  0.00000000000E+00 0. -1.
         -5    1    3    3    0  503  0.67038414000E+02 -0.17262097023E+02 -0.12584070164E+03  0.14370143052E+03  0.47000000000E+01 0.  1.
         11    1    4    4    0    0 -0.46660551785E+02  0.15135124509E+02 -0.67137323323E+02  0.83148657654E+02  0.00000000000E+00 0. -1.
        -12    1    4    4    0    0  0.96465054975E+01  0.21930449779E+02  0.12093149217E+02  0.26837361156E+02  0.00000000000E+00 0.  1.
</event>
<event>
12    1  0.1565987E-001  0.2719915E+03  0.7818608E-02  0.1100172E+00
         21   -1    0    0  501  502  0.00000000000E+00  0.00000000000E+00  0.15471377130E+03  0.15471377130E+03  0.00000000000E+00 0.  1.
         21   -1    0    0  502  503 -0.00000000000E+00 -0.00000000000E+00 -0.51573140718E+03  0.51573140718E+03  0.00000000000E+00 0. -1.
         -6    2    1    2    0  503 -0.20111082362E+03  0.64743690139E+02 -0.27144000548E+03  0.38426426842E+03  0.17129519147E+03 0.  0.
        -24    2    3    3    0    0 -0.10038877135E+03  0.86432245922E+02 -0.22059939537E+03  0.26927651733E+03  0.79355598398E+02 0.  0.
          6    2    1    2  501    0  0.20111082362E+03 -0.64743690139E+02 -0.89577630403E+02  0.28618091006E+03  0.17099138172E+03 0.  0.
         24    2    5    5    0    0  0.18377605044E+03 -0.74452224587E+02 -0.22796892791E+02  0.21634891941E+03  0.83488838462E+02 0.  0.
          5    1    5    5  501    0  0.17334773186E+02  0.97085344482E+01 -0.66780737612E+02  0.69831990652E+02  0.47000000000E+01 0. -1.
        -11    1    6    6    0    0  0.17669187284E+03 -0.79728824500E+02 -0.39151431443E+02  0.19776131565E+03  0.00000000000E+00 0.  1.
         12    1    6    6    0    0  0.70841775962E+01  0.52765999137E+01  0.16354538652E+02  0.18587603756E+02  0.00000000000E+00 0. -1.
         -5    1    3    3    0  503 -0.10072205227E+03 -0.21688555784E+02 -0.50840610111E+02  0.11498775110E+03  0.47000000000E+01 0.  1.
         11    1    4    4    0    0 -0.15266339567E+02  0.27537065283E+02 -0.12315128742E+03  0.12711251190E+03  0.00000000000E+00 0. -1.
        -12    1    4    4    0    0 -0.85122431787E+02  0.58895180639E+02 -0.97448107945E+02  0.14216400542E+03  0.00000000000E+00 0.  1.
</event>
<event>
12    1  0.1565987E-001  0.1849060E+03  0.7818608E-02  0.1163200E+00
         21   -1    0    0  503  502  0.00000000000E+00  0.00000000000E+00  0.63480919306E+03  0.63480919306E+03  0.00000000000E+00 0. -1.
         21   -1    0    0  501  503 -0.00000000000E+00 -0.00000000000E+00 -0.17716118104E+03  0.17716118104E+03  0.00000000000E+00 0. -1.
          6    2    1    2  501    0 -0.54632499539E+02  0.38940399713E+02 -0.11002852295E+03  0.21493864254E+03  0.17202115991E+03 0.  0.
         24    2    3    3    0    0 -0.16346962491E+02  0.16466349785E+02  0.13078124717E+02  0.83987499101E+02  0.79652362182E+02 0.  0.
         -6    2    1    2    0  502  0.54632499539E+02 -0.38940399713E+02  0.56767653498E+03  0.59703173156E+03  0.17230547115E+03 0.  0.
        -24    2    5    5    0    0 -0.74039493953E+01  0.36726248632E+01  0.12352025686E+03  0.14651948949E+03  0.78373466854E+02 0.  0.
          5    1    3    3  501    0 -0.38285537048E+02  0.22474049928E+02 -0.12310664767E+03  0.13095114344E+03  0.47000000000E+01 0. -1.
        -11    1    4    4    0    0  0.30772704612E+02  0.13847312517E+02  0.14606564851E+02  0.36770356945E+02  0.00000000000E+00 0.  1.
         12    1    4    4    0    0 -0.47119667103E+02  0.26190372678E+01 -0.15284401341E+01  0.47217142156E+02  0.00000000000E+00 0. -1.
         -5    1    5    5    0  502  0.62036448935E+02 -0.42613024576E+02  0.44415627812E+03  0.45051224207E+03  0.47000000000E+01 0.  1.
         11    1    6    6    0    0 -0.15334808865E+01 -0.16651472186E+02  0.12423222318E+03  0.12535257622E+03  0.00000000000E+00 0. -1.
        -12    1    6    6    0    0 -0.58704685088E+01  0.20324097049E+02 -0.71196631955E+00  0.21166913271E+02  0.00000000000E+00 0.  1.
</event>
<event>
12    1  0.1565987E-001  0.2085436E+03  0.7818608E-02  0.1142785E+00
         21   -1    0    0  503  502  0.00000000000E+00  0.00000000000E+00  0.62520799155E+03  0.62520799155E+03  0.00000000000E+00 0. -1.
         21   -1    0    0  501  503 -0.00000000000E+00 -0.00000000000E+00 -0.13121071514E+03  0.13121071514E+03  0.00000000000E+00 0. -1.
          6    2    1    2  501    0  0.51167627374E+02  0.10643782444E+03 -0.12363674642E+02  0.20890977246E+03  0.17188163373E+03 0.  0.
         24    2    3    3    0    0  0.36081712198E+02  0.49391556161E+02  0.57554686515E+02  0.11729902643E+03  0.81884698725E+02 0.  0.
         -6    2    1    2    0  502 -0.51167627374E+02 -0.10643782444E+03  0.50636095105E+03  0.54750893423E+03  0.17151525805E+03 0.  0.
        -24    2    5    5    0    0 -0.30090011649E+02 -0.51068065972E+02  0.11588101621E+03  0.15253204179E+03  0.79525201625E+02 0.  0.
          5    1    3    3  501    0  0.15085915176E+02  0.57046268283E+02 -0.69918361157E+02  0.91610746033E+02  0.47000000000E+01 0. -1.
        -13    1    4    4    0    0 -0.11907828321E+02  0.44094722877E+02  0.51183487469E+02  0.68599492348E+02  0.00000000000E+00 0.  1.
         14    1    4    4    0    0  0.47989540519E+02  0.52968332844E+01  0.63711990465E+01  0.48699534078E+02  0.00000000000E+00 0. -1.
         -5    1    5    5    0  502 -0.21077615725E+02 -0.55369758473E+02  0.39047993485E+03  0.39497689243E+03  0.47000000000E+01 0.  1.
         11    1    6    6    0    0  0.14844127202E+02 -0.19242817686E+02  0.87047879840E+02  0.90376808583E+02  0.00000000000E+00 0. -1.
        -12    1    6    6    0    0 -0.44934138852E+02 -0.31825248286E+02  0.28833136365E+02  0.62155233210E+02  0.00000000000E+00 0.  1.
</event>
<event>
12    1  0.1565987E-001  0.1921719E+03  0.7818608E-02  0.1156986E+00
         21   -1    0    0  503  502  0.00000000000E+00  0.00000000000E+00  0.56941683617E+03  0.56941683617E+03  0.00000000000E+00 0.  1.
         21   -1    0    0  501  503 -0.00000000000E+00 -0.00000000000E+00 -0.85880279127E+02  0.85880279127E+02  0.00000000000E+00 0.  1.
          6    2    1    2  501    0 -0.72288365322E+02 -0.44359915124E+02  0.77944267725E+02  0.20737728832E+03  0.17244309499E+03 0.  0.
         24    2    3    3    0    0 -0.58517158834E+02  0.26601590351E+02  0.83718847406E+00  0.10158138548E+03  0.78652237754E+02 0.  0.
         -6    2    1    2    0  502  0.72288365322E+02  0.44359915124E+02  0.40559228932E+03  0.44791982698E+03  0.17009896065E+03 0.  0.
        -24    2    5    5    0    0  0.63162808546E+02  0.86503410993E+02  0.21251169300E+03  0.25002703604E+03  0.76680627232E+02 0.  0.
          5    1    3    3  501    0 -0.13771206488E+02 -0.70961505475E+02  0.77107079251E+02  0.10579590284E+03  0.47000000000E+01 0. -1.
        -11    1    4    4    0    0 -0.74757458015E+02  0.35461343078E+02  0.38820280798E+01  0.82832689947E+02  0.00000000000E+00 0.  1.
         12    1    4    4    0    0  0.16240299181E+02 -0.88597527270E+01 -0.30448396057E+01  0.18748695530E+02  0.00000000000E+00 0. -1.
         -5    1    5    5    0  502  0.91255567761E+01 -0.42143495870E+02  0.19308059632E+03  0.19789279094E+03  0.47000000000E+01 0.  1.
         11    1    6    6    0    0 -0.27515288447E+01  0.33002688024E+02  0.17765271555E+02  0.37581287914E+02  0.00000000000E+00 0. -1.
        -12    1    6    6    0    0  0.65914337391E+02  0.53500722969E+02  0.19474642144E+03  0.21244574812E+03  0.00000000000E+00 0.  1.
</event>
<event>
12    1  0.1565987E-001  0.1838387E+03  0.7818608E-02  0.1164626E+00
         21   -1    0    0  503  502  0.00000000000E+00  0.00000000000E+00  0.11593897318E+03  0.11593897318E+03  0.00000000000E+00 0.  1.
         21   -1    0    0  501  503 -0.00000000000E+00 -0.00000000000E+00 -0.29650533980E+03  0.29650533980E+03  0.00000000000E+00 0.  1.
          6    2    1    2  501    0 -0.57762831509E+02  0.24771071647E+02 -0.12420277444E+03  0.22015927310E+03  0.17056853655E+03 0.  0.
         24    2    3    3    0    0 -0.31002773473E+02  0.59089177698E+02 -0.18813590568E+02  0.10604177582E+03  0.80238420626E+02 0.  0.
         -6    2    1    2    0  502  0.57762831509E+02 -0.24771071647E+02 -0.56363592178E+02  0.19228503987E+03  0.17276148686E+03 0.  0.
        -24    2    5    5    0    0  0.16199171910E+02  0.30546666493E+02 -0.80691649395E+02  0.11878990860E+03  0.80027420922E+02 0.  0.
          5    1    3    3  501    0 -0.26760058036E+02 -0.34318106051E+02 -0.10538918387E+03  0.11411749728E+03  0.47000000000E+01 0. -1.
        -13    1    4    4    0    0 -0.20236305545E+01  0.17236129284E+02 -0.45405009193E+02  0.48608580448E+02  0.00000000000E+00 0.  1.
         14    1    4    4    0    0 -0.28979142919E+02  0.41853048414E+02  0.26591418626E+02  0.57433195370E+02  0.00000000000E+00 0. -1.
         -5    1    5    5    0  502  0.41563659600E+02 -0.55317738141E+02  0.24328057217E+02  0.73495131269E+02  0.47000000000E+01 0.  1.
         13    1    6    6    0    0 -0.81454548273E+01  0.10636267043E+02 -0.85876902992E+02  0.86915597440E+02  0.00000000000E+00 0. -1.
        -14    1    6    6    0    0  0.24344626737E+02  0.19910399451E+02  0.51852535965E+01  0.31874311163E+02  0.00000000000E+00 0.  1.
</event>
<event>
12    1  0.1565987E-001  0.1919931E+03  0.7818608E-02  0.1156690E+00
         21   -1    0    0  501  502  0.00000000000E+00  0.00000000000E+00  0.15458006459E+04  0.15458006459E+04  0.00000000000E+00 0. -1.
         21   -1    0    0  502  503 -0.00000000000E+00 -0.00000000000E+00 -0.34365956084E+02  0.34365956084E+02  0.00000000000E+00 0.  1.
         -6    2    1    2    0  503 -0.67355453815E+02 -0.51702194350E+02  0.31850998094E+03  0.37190048231E+03  0.17219607059E+03 0.  0.
        -24    2    3    3    0    0 -0.95326519875E+02 -0.82782752425E+02  0.21743079640E+03  0.26241316262E+03  0.75129136832E+02 0.  0.
          6    2    1    2  501    0  0.67355453815E+02  0.51702194350E+02  0.11929247089E+04  0.12082661197E+04  0.17212722284E+03 0.  0.
         24    2    5    5    0    0  0.69503597444E+02  0.10943471279E+02  0.11161035008E+04  0.11211485208E+04  0.79601956668E+02 0.  0.
          5    1    5    5  501    0 -0.21481436294E+01  0.40758723072E+02  0.76821208040E+02  0.87117598866E+02  0.47000000000E+01 0. -1.
        -13    1    6    6    0    0  0.18176157399E+02 -0.11467683763E+01  0.42338076293E+02  0.46089049455E+02  0.00000000000E+00 0.  1.
         14    1    6    6    0    0  0.51327440045E+02  0.12090239655E+02  0.10737654246E+04  0.10750594714E+04  0.00000000000E+00 0. -1.
         -5    1    3    3    0  503  0.27971066060E+02  0.31080558075E+02  0.10107918454E+03  0.10948731970E+03  0.47000000000E+01 0.  1.
         11    1    4    4    0    0 -0.49892597613E+02 -0.75170818199E+02  0.18575609420E+03  0.20650726316E+03  0.00000000000E+00 0. -1.
        -12    1    4    4    0    0 -0.45433922262E+02 -0.76119342263E+01  0.31674702201E+02  0.55905899458E+02  0.00000000000E+00 0.  1.
</event>
<event>
12    1  0.1565987E-001  0.1769403E+03  0.7818608E-02  0.1171135E+00
         21   -1    0    0  501  502  0.00000000000E+00  0.00000000000E+00  0.26687036058E+03  0.26687036058E+03  0.00000000000E+00 0.  1.
         21   -1    0    0  502  503 -0.00000000000E+00 -0.00000000000E+00 -0.12522272541E+03  0.12522272541E+03  0.00000000000E+00 0.  1.
         -6    2    1    2    0  503  0.35660408814E+02  0.26349467298E+01  0.12255857651E+03  0.21412606487E+03  0.17190334284E+03 0.  0.
        -24    2    3    3    0    0 -0.39872416734E+02  0.18020934609E+02  0.34076138827E+02  0.96681745564E+02  0.79193516070E+02 0.  0.
          6    2    1    2  501    0 -0.35660408814E+02 -0.26349467298E+01  0.19089058661E+02  0.17796702113E+03  0.17328952868E+03 0.  0.
         24    2    5    5    0    0 -0.70880212491E+02 -0.40499032701E+02  0.41544825625E+02  0.12139427993E+03  0.79664436798E+02 0.  0.
          5    1    5    5  501    0  0.35219803677E+02  0.37864085972E+02 -0.22455766964E+02  0.56572741205E+02  0.47000000000E+01 0. -1.
        -11    1    6    6    0    0 -0.24484589642E+02 -0.41075070927E+02 -0.13223493058E+02  0.49613681079E+02  0.00000000000E+00 0.  1.
         12    1    6    6    0    0 -0.46395622850E+02  0.57603822614E+00  0.54768318682E+02  0.71780598848E+02  0.00000000000E+00 0. -1.
         -5    1    3    3    0  503  0.75532825549E+02 -0.15385987879E+02  0.88482437680E+02  0.11744431930E+03  0.47000000000E+01 0.  1.
         11    1    4    4    0    0 -0.38327589154E+01  0.13019107133E+02 -0.24335855394E+02  0.27864332922E+02  0.00000000000E+00 0. -1.
        -12    1    4    4    0    0 -0.36039657819E+02  0.50018274757E+01  0.58411994221E+02  0.68817412642E+02  0.00000000000E+00 0.  1.
</event>
<event>
12    1  0.1565987E-001  0.3780082E+03  0.7818608E-02  0.1051702E+00
         21   -1    0    0  501  502  0.00000000000E+00  0.00000000000E+00  0.80654595897E+03  0.80654595897E+03  0.00000000000E+00 0.  1.
         21   -1    0    0  502  503 -0.00000000000E+00 -0.00000000000E+00 -0.76097202018E+03  0.76097202018E+03  0.00000000000E+00 0. -1.
         -6    2    1    2    0  503 -0.25474347572E+03 -0.21968894751E+03 -0.66379042517E+03  0.76372199707E+03  0.17174425227E+03 0.  0.
        -24    2    3    3    0    0 -0.22324572958E+03 -0.24036049795E+03 -0.56581634330E+03  0.65864853835E+03  0.77832756450E+02 0.  0.
          6    2    1    2  501    0  0.25474347572E+03  0.21968894751E+03  0.70936436395E+03  0.80379598208E+03  0.17243174849E+03 0.  0.
         24    2    5    5    0    0  0.10755121170E+03  0.18007977487E+03  0.38336889602E+03  0.44389379501E+03  0.77935886207E+02 0.  0.
          5    1    5    5  501    0  0.14719226403E+03  0.39609172632E+02  0.32599546793E+03  0.35990218707E+03  0.47000000000E+01 0. -1.
        -13    1    6    6    0    0  0.11550540265E+03  0.13494269033E+03  0.31378560698E+03  0.36057237118E+03  0.00000000000E+00 0.  1.
         14    1    6    6    0    0 -0.79541909523E+01  0.45137084547E+02  0.69583289039E+02  0.83321423828E+02  0.00000000000E+00 0. -1.
         -5    1    3    3    0  503 -0.31497746141E+02  0.20671550443E+02 -0.97974081864E+02  0.10507345872E+03  0.47000000000E+01 0.  1.
         13    1    4    4    0    0 -0.51597841021E+02 -0.58832022084E+02 -0.20810191282E+03  0.22232847352E+03  0.00000000000E+00 0. -1.
        -14    1    4    4    0    0 -0.17164788856E+03 -0.18152847587E+03 -0.35771443049E+03  0.43632006483E+03  0.00000000000E+00 0.  1.
</event>
<event>
12    1  0.1565987E-001  0.1847062E+03  0.7818608E-02  0.1163600E+00
         21   -1    0    0  503  502  0.00000000000E+00  0.00000000000E+00  0.31029321219E+04  0.31029321219E+04  0.00000000000E+00 0. -1.
         21   -1    0    0  501  503 -0.00000000000E+00 -0.00000000000E+00 -0.11675651131E+02  0.11675651131E+02  0.00000000000E+00 0. -1.
          6    2    1    2  501    0  0.30642022645E+01  0.65601732930E+02  0.19358262634E+04  0.19445071950E+04  0.17138241655E+03 0.  0.
         24    2    3    3    0    0 -0.35723395562E+02  0.28368108521E+02  0.54816209192E+03  0.55579384686E+03  0.79650553173E+02 0.  0.
         -6    2    1    2    0  502 -0.30642022645E+01 -0.65601732930E+02  0.11554302074E+04  0.11701005780E+04  0.17263667592E+03 0.  0.
        -24    2    5    5    0    0 -0.12906143821E+02 -0.10926539701E+03  0.98525898854E+03  0.99407866719E+03  0.73154812024E+02 0.  0.
          5    1    3    3  501    0  0.38787597826E+02  0.37233624409E+02  0.13876641715E+04  0.13887133481E+04  0.47000000000E+01 0. -1.
        -11    1    4    4    0    0  0.11857874959E+02 -0.16038775698E+02  0.24035105606E+03  0.24117728266E+03  0.00000000000E+00 0.  1.
         12    1    4    4    0    0 -0.47581270521E+02  0.44406884219E+02  0.30781103586E+03  0.31461656420E+03  0.00000000000E+00 0. -1.
         -5    1    5    5    0  502  0.98419415569E+01  0.43663664078E+02  0.17017121881E+03  0.17602191081E+03  0.47000000000E+01 0.  1.
         13    1    6    6    0    0  0.12202930751E+02 -0.10396868248E+03  0.84847764359E+03  0.85491093696E+03  0.00000000000E+00 0. -1.
        -14    1    6    6    0    0 -0.25109074572E+02 -0.52967145253E+01  0.13678134495E+03  0.13916773023E+03  0.00000000000E+00 0.  1.
</event>
<event>
12    1  0.1565987E-001  0.1869331E+03  0.7818608E-02  0.1161729E+00
         21   -1    0    0  501  502  0.00000000000E+00  0.00000000000E+00  0.19659672005E+03  0.19659672005E+03  0.00000000000E+00 0.  1.
         21   -1    0    0  502  503 -0.00000000000E+00 -0.00000000000E+00 -0.25834764284E+03  0.25834764284E+03  0.00000000000E+00 0. -1.
         -6    2    1    2    0  503  0.19976306766E+02  0.69752806263E+02 -0.15956248505E+03  0.24577263155E+03  0.17227737220E+03 0.  0.
        -24    2    3    3    0    0 -0.26316900570E+02  0.58827202967E+02 -0.29138668475E+02  0.10686657776E+03  0.80113571735E+02 0.  0.
          6    2    1    2  501    0 -0.19976306766E+02 -0.69752806263E+02  0.97811562258E+02  0.20917173133E+03  0.17006235522E+03 0.  0.
         24    2    5    5    0    0 -0.37056009233E+02 -0.55324774380E+02 -0.63078487326E+01  0.10257517377E+03  0.77768237970E+02 0.  0.
          5    1    5    5  501    0  0.17079702467E+02 -0.14428031882E+02  0.10411941099E+03  0.10659655757E+03  0.47000000000E+01 0. -1.
        -11    1    6    6    0    0 -0.30872928793E+02  0.95175988557E+01  0.12713377400E+02  0.34718185223E+02  0.00000000000E+00 0.  1.
         12    1    6    6    0    0 -0.61830804400E+01 -0.64842373236E+02 -0.19021226133E+02  0.67856988543E+02  0.00000000000E+00 0. -1.
         -5    1    3    3    0  503  0.46293207336E+02  0.10925603296E+02 -0.13042381657E+03  0.13890605380E+03  0.47000000000E+01 0.  1.
         11    1    4    4    0    0 -0.52083496204E+00  0.39587357628E+02 -0.53463634995E+02  0.66526614373E+02  0.00000000000E+00 0. -1.
        -12    1    4    4    0    0 -0.25796065608E+02  0.19239845339E+02  0.24324966520E+02  0.40339963383E+02  0.00000000000E+00 0.  1.
</event>
<event>
12    1  0.1565987E-001  0.1778016E+03  0.7818608E-02  0.1170318E+00
         21   -1    0    0  501  502  0.00000000000E+00  0.00000000000E+00  0.15354335825E+03  0.15354335825E+03  0.00000000000E+00 0. -1.
         21   -1    0    0  502  503 -0.00000000000E+00 -0.00000000000E+00 -0.20555718429E+03  0.20555718429E+03  0.00000000000E+00 0. -1.
         -6    2    1    2    0  503  0.37406486224E+02  0.17485121862E+02 -0.40910564293E+02  0.18244747004E+03  0.17294053994E+03 0.  0.
        -24    2    3    3    0    0  0.75238620529E+02  0.54821887509E+02 -0.20505375105E+02  0.12531808880E+03  0.81350252632E+02 0.  0.
          6    2    1    2  501    0 -0.37406486224E+02 -0.17485121862E+02 -0.11103261744E+02  0.17665307250E+03  0.17140026518E+03 0.  0.
         24    2    5    5    0    0 -0.35473881065E+01  0.23933416679E+02  0.45365160250E+02  0.98725500085E+02  0.84281280284E+02 0.  0.
          5    1    5    5  501    0 -0.33859098118E+02 -0.41418538541E+02 -0.56468421994E+02  0.77927572416E+02  0.47000000000E+01 0. -1.
        -11    1    6    6    0    0  0.23471180283E+02  0.16311063108E+02 -0.14907025037E+02  0.32236105209E+02  0.00000000000E+00 0.  1.
         12    1    6    6    0    0 -0.27018568389E+02  0.76223535709E+01  0.60272185287E+02  0.66489394877E+02  0.00000000000E+00 0. -1.
         -5    1    3    3    0  503 -0.37832134304E+02 -0.37336765647E+02 -0.20405189187E+02  0.57129381239E+02  0.47000000000E+01 0.  1.
         13    1    4    4    0    0  0.40890538630E+02 -0.93180101759E+01 -0.30527940808E+02  0.51873081969E+02  0.00000000000E+00 0. -1.
        -14    1    4    4    0    0  0.34348081899E+02  0.64139897685E+02  0.10022565702E+02  0.73445006831E+02  0.00000000000E+00 0.  1.
</event>
<event>
12    1  0.1565987E-001  0.2282622E+03  0.7818608E-02  0.1128278E+00
         21   -1    0    0  501  502  0.00000000000E+00  0.00000000000E+00  0.17297527412E+03  0.17297527412E+03  0.00000000000E+00 0. -1.
         21   -1    0    0  502  503 -0.00000000000E+00 -0.00000000000E+00 -0.78611180983E+03  0.78611180983E+03  0.00000000000E+00 0. -1.
         -6    2    1    2    0  503 -0.87908670962E+02  0.11808681290E+03 -0.68494587551E+03  0.72197956930E+03  0.17444545364E+03 0.  0.
        -24    2    3    3    0    0  0.19647158524E+02  0.28643823779E+02 -0.29576316958E+03  0.30839333482E+03  0.80150589518E+02 0.  0.
          6    2    1    2  501    0  0.87908670962E+02 -0.11808681290E+03  0.71809339804E+02  0.23710751465E+03  0.17143792581E+03 0.  0.
         24    2    5    5    0    0  0.47015397101E+02 -0.14783316360E+03  0.45129546444E+02  0.17974021908E+03  0.78770416831E+02 0.  0.
          5    1    5    5  501    0  0.40893273861E+02  0.29746350697E+02  0.26679793361E+02  0.57367295566E+02  0.47000000000E+01 0. -1.
        -13    1    6    6    0    0  0.49416735292E+02 -0.47540027980E+02  0.39781939702E+02  0.79275915091E+02  0.00000000000E+00 0.  1.
         14    1    6    6    0    0 -0.24013381905E+01 -0.10029313562E+03  0.53476067420E+01  0.10046430399E+03  0.00000000000E+00 0. -1.
         -5    1    3    3    0  503 -0.10755582949E+03  0.89442989125E+02 -0.38918270593E+03  0.41358623448E+03  0.47000000000E+01 0.  1.
         11    1    4    4    0    0  0.31878288384E+02  0.39008403378E+02 -0.28418991694E+03  0.28862049424E+03  0.00000000000E+00 0. -1.
        -12    1    4    4    0    0 -0.12231129860E+02 -0.10364579599E+02 -0.11573252647E+02  0.19772840584E+02  0.00000000000E+00 0.  1.
</event>
<event>
12    1  0.1565987E-001  0.1921774E+03  0.7818608E-02  0.1156618E+00
         21   -1    0    0  501  502  0.00000000000E+00  0.00000000000E+00  0.59400530983E+02  0.59400530983E+02  0.00000000000E+00 0.  1.
         21   -1    0    0  502  503 -0.00000000000E+00 -0.00000000000E+00 -0.18436392827E+04  0.18436392827E+04  0.00000000000E+00 0.  1.
         -6    2    1    2    0  503  0.85836246472E+02  0.66924049383E+01 -0.16668680642E+04  0.16778553377E+04  0.17127971714E+03 0.  0.
        -24    2    3    3    0    0  0.33835467278E+02 -0.53170089554E+02 -0.66795922824E+03  0.67579318807E+03  0.80962986475E+02 0.  0.
          6    2    1    2  501    0 -0.85836246472E+02 -0.66924049383E+01 -0.11737068756E+03  0.22518447596E+03  0.17181245713E+03 0.  0.
         24    2    5    5    0    0 -0.12359430559E+03 -0.55790073141E+01 -0.66167287249E+02  0.16138174181E+03  0.79745087564E+02 0.  0.
          5    1    5    5  501    0  0.37758059117E+02 -0.11133976243E+01 -0.51203400308E+02  0.63802734156E+02  0.47000000000E+01 0. -1.
        -11    1    6    6    0    0 -0.52028675288E+02  0.35911862844E+02 -0.18330378114E+02  0.65822850949E+02  0.00000000000E+00 0.  1.
         12    1    6    6    0    0 -0.71565630301E+02 -0.41490870158E+02 -0.47836909134E+02  0.95558890860E+02  0.00000000000E+00 0. -1.
         -5    1    3    3    0  503  0.52000779194E+02  0.59862494492E+02 -0.99890883593E+03  0.10020621497E+04  0.47000000000E+01 0.  1.
         11    1    4    4    0    0  0.70434415393E+01 -0.37141326503E+01 -0.30777870786E+01  0.85368391904E+01  0.00000000000E+00 0. -1.
        -12    1    4    4    0    0  0.26792025739E+02 -0.49455956903E+02 -0.66488144117E+03  0.66725634888E+03  0.00000000000E+00 0.  1.
</event>
<event>
12    1  0.1565987E-001  0.3400374E+03  0.7818608E-02  0.1066884E+00
         21   -1    0    0  501  502  0.00000000000E+00  0.00000000000E+00  0.28649501983E+03  0.28649501983E+03  0.00000000000E+00 0. -1.
         21   -1    0    0  502  503 -0.00000000000E+00 -0.00000000000E+00 -0.45280471502E+03  0.45280471502E+03  0.00000000000E+00 0.  1.
         -6    2    1    2    0  503 -0.18052137226E+03  0.23119696585E+03  0.40033768225E+02  0.34238590968E+03  0.17200408627E+03 0.  0.
        -24    2    3    3    0    0 -0.22459028185E+02  0.10114463226E+03  0.46741452780E+02  0.13753377492E+03  0.77434690247E+02 0.  0.
          6    2    1    2  501    0  0.18052137226E+03 -0.23119696585E+03 -0.20634346342E+03  0.39691382518E+03  0.17006750678E+03 0.  0.
         24    2    5    5    0    0  0.18850734858E+03 -0.24313838067E+03 -0.21048751881E+03  0.38124103344E+03  0.79927700932E+02 0.  0.
          5    1    5    5  501    0 -0.79859763250E+01  0.11941414821E+02  0.41440553943E+01  0.15672791739E+02  0.47000000000E+01 0. -1.
        -13    1    6    6    0    0 -0.64763686603E+01 -0.21329977121E+02 -0.18782685058E+02  0.29149623205E+02  0.00000000000E+00 0.  1.
         14    1    6    6    0    0  0.19498371724E+03 -0.22180840355E+03 -0.19170483375E+03  0.35209141023E+03  0.00000000000E+00 0. -1.
         -5    1    3    3    0  503 -0.15806234407E+03  0.13005233360E+03 -0.67076845555E+01  0.20485213477E+03  0.47000000000E+01 0.  1.
         11    1    4    4    0    0 -0.43375421611E+02  0.86229614227E+02  0.16619443852E+02  0.97944777725E+02  0.00000000000E+00 0. -1.
        -12    1    4    4    0    0  0.20916393426E+02  0.14915018028E+02  0.30122008928E+02  0.39588997191E+02  0.00000000000E+00 0.  1.
</event>
<event>
12    1  0.1565987E-001  0.2783739E+03  0.7818608E-02  0.1097206E+00
         21   -1    0    0  501  502  0.00000000000E+00  0.00000000000E+00  0.13988336631E+03  0.13988336631E+03  0.00000000000E+00 0.  1.
         21   -1    0    0  502  503 -0.00000000000E+00 -0.00000000000E+00 -0.55073432422E+03  0.55073432422E+03  0.00000000000E+00 0. -1.
         -6    2    1    2    0  503 -0.56185274670E+02  0.20598434046E+03 -0.16867086778E+03  0.32164177911E+03  0.17151454407E+03 0.  0.
        -24    2    3    3    0    0 -0.71168998656E+02  0.22551134429E+03 -0.15544157616E+03  0.29330593573E+03  0.77109633384E+02 0.  0.
          6    2    1    2  501    0  0.56185274670E+02 -0.20598434046E+03 -0.24218009013E+03  0.36897591142E+03  0.17862164916E+03 0.  0.
         24    2    5    5    0    0  0.45117531908E+02 -0.34886427810E+02 -0.42264175766E+02  0.10556472438E+03  0.78134473500E+02 0.  0.
          5    1    5    5  501    0  0.11067742762E+02 -0.17109791265E+03 -0.19991591436E+03  0.26341118704E+03  0.47000000000E+01 0. -1.
        -13    1    6    6    0    0 -0.15903076329E+02 -0.23156292389E+01  0.99489588784E+01  0.18901104684E+02  0.00000000000E+00 0.  1.
         14    1    6    6    0    0  0.61020608237E+02 -0.32570798572E+02 -0.52213134644E+02  0.86663619694E+02  0.00000000000E+00 0. -1.
         -5    1    3    3    0  503  0.14983723987E+02 -0.19527003835E+02 -0.13229291623E+02  0.28335843381E+02  0.47000000000E+01 0.  1.
         11    1    4    4    0    0 -0.11158640100E+01  0.13140913679E+03 -0.82557680314E+02  0.15519464219E+03  0.00000000000E+00 0. -1.
        -12    1    4    4    0    0 -0.70053134646E+02  0.94102207504E+02 -0.72883895843E+02  0.13811129354E+03  0.00000000000E+00 0.  1.
</event>
<event>
12    1  0.1565987E-001  0.2595722E+03  0.7818608E-02  0.1107429E+00
         21   -1    0    0  503  502  0.00000000000E+00  0.00000000000E+00  0.13855137821E+04  0.13855137821E+04  0.00000000000E+00 0. -1.
         21   -1    0    0  501  503 -0.00000000000E+00 -0.00000000000E+00 -0.31019316985E+03  0.31019316985E+03  0.00000000000E+00 0. -1.
          6    2    1    2  501    0 -0.11158411364E+03  0.15912486524E+03 -0.24098384067E+03  0.35405306831E+03  0.17178075142E+03 0.  0.
         24    2    3    3    0    0  0.94756173724E+01  0.86489185625E+02 -0.10304227419E+03  0.15661607534E+03  0.79628626958E+02 0.  0.
         -6    2    1    2    0  502  0.11158411364E+03 -0.15912486524E+03  0.13163044530E+04  0.13416538837E+04  0.17206392284E+03 0.  0.
        -24    2    5    5    0    0  0.47417514839E+02 -0.17696560290E+03  0.90017073412E+03  0.92019806597E+03  0.53776246838E+02 0.  0.
          5    1    3    3  501    0 -0.12105973101E+03  0.72635679618E+02 -0.13794156648E+03  0.19743699296E+03  0.47000000000E+01 0. -1.
        -11    1    4    4    0    0  0.29896027035E+02  0.29632266889E+02 -0.82829481290E+02  0.92911606617E+02  0.00000000000E+00 0.  1.
         12    1    4    4    0    0 -0.20420409662E+02  0.56856918736E+02 -0.20212792900E+02  0.63704468726E+02  0.00000000000E+00 0. -1.
         -5    1    5    5    0  502  0.64166598803E+02  0.17840737661E+02  0.41613371884E+03  0.42145581771E+03  0.47000000000E+01 0.  1.
         13    1    6    6    0    0  0.21648542871E+02 -0.13659855130E+02  0.12443091697E+03  0.12703662523E+03  0.00000000000E+00 0. -1.
        -14    1    6    6    0    0  0.25768971968E+02 -0.16330574777E+03  0.77573981715E+03  0.79316144075E+03  0.00000000000E+00 0.  1.
</event>
<event>
12    1  0.1565987E-001  0.2004614E+03  0.7818608E-02  0.1149401E+00
         21   -1    0    0  501  502  0.00000000000E+00  0.00000000000E+00  0.14165938726E+03  0.14165938726E+03  0.00000000000E+00 0.  1.
         21   -1    0    0  502  503 -0.00000000000E+00 -0.00000000000E+00 -0.41511627309E+03  0.41511627309E+03  0.00000000000E+00 0. -1.
         -6    2    1    2    0  503 -0.44200407089E+02 -0.93262057758E+02 -0.29352673919E+03  0.35531208671E+03  0.17157285607E+03 0.  0.
        -24    2    3    3    0    0 -0.29504801134E+02  0.26265636166E+02 -0.68728828477E+02  0.10024538738E+03  0.61360157212E+02 0.  0.
          6    2    1    2  501    0  0.44200407089E+02  0.93262057758E+02  0.20069853369E+02  0.20146357363E+03  0.17185250968E+03 0.  0.
         24    2    5    5    0    0  0.44802442521E+02  0.13248954451E+03  0.16797042839E+02  0.16181562977E+03  0.79633027877E+02 0.  0.
          5    1    5    5  501    0 -0.60203543141E+00 -0.39227486754E+02  0.32728105300E+01  0.39647943862E+02  0.47000000000E+01 0. -1.
        -11    1    6    6    0    0 -0.20954285169E+02  0.56799502776E+02  0.31079518554E+01  0.60621159237E+02  0.00000000000E+00 0.  1.
         12    1    6    6    0    0  0.65756727689E+02  0.75690041737E+02  0.13689090984E+02  0.10119447053E+03  0.00000000000E+00 0. -1.
         -5    1    3    3    0  503 -0.14695605956E+02 -0.11952769392E+03 -0.22479791072E+03  0.25506669934E+03  0.47000000000E+01 0.  1.
         11    1    4    4    0    0 -0.34320716607E+02 -0.41115435423E+01 -0.58285053922E+02  0.67764030941E+02  0.00000000000E+00 0. -1.
        -12    1    4    4    0    0  0.48159154732E+01  0.30377179708E+02 -0.10443774555E+02  0.32481356434E+02  0.00000000000E+00 0.  1.
</event>
<event>
12    1  0.1565987E-001  0.1827571E+03  0.7818608E-02  0.1165715E+00
         21   -1    0    0  501  502  0.00000000000E+00  0.00000000000E+00  0.34439557355E+02  0.34439557355E+02  0.00000000000E+00 0. -1.
         21   -1    0    0  502  503 -0.00000000000E+00 -0.00000000000E+00 -0.10737841260E+04  0.10737841260E+04  0.00000000000E+00 0. -1.
         -6    2    1    2    0  503  0.18545188874E+02  0.56484856900E+02 -0.70493600204E+03  0.72824099207E+03  0.17281699124E+03 0.  0.
        -24    2    3    3    0    0  0.67279753111E+02 -0.25372592187E+01 -0.36526434568E+03  0.38002038372E+03  0.80401784513E+02 0.  0.
          6    2    1    2  501    0 -0.18545188874E+02 -0.56484856900E+02 -0.33440856657E+03  0.37998269125E+03  0.17036224103E+03 0.  0.
         24    2    5    5    0    0 -0.41803541074E+02  0.89210960778E+01 -0.26569905861E+03  0.28219733388E+03  0.84924810886E+02 0.  0.
          5    1    5    5  501    0  0.23258352200E+02 -0.65405952978E+02 -0.68709507960E+02  0.97785357371E+02  0.47000000000E+01 0. -1.
        -11    1    6    6    0    0  0.11102320324E+02  0.60001269823E+01 -0.14669673895E+01  0.12704921633E+02  0.00000000000E+00 0.  1.
         12    1    6    6    0    0 -0.52905861398E+02  0.29209690955E+01 -0.26423209122E+03  0.26949241225E+03  0.00000000000E+00 0. -1.
         -5    1    3    3    0  503 -0.48734564237E+02  0.59022116119E+02 -0.33967165636E+03  0.34822060835E+03  0.47000000000E+01 0.  1.
         11    1    4    4    0    0  0.14831726242E+02  0.21013621400E+02 -0.24892477162E+03  0.25025006356E+03  0.00000000000E+00 0. -1.
        -12    1    4    4    0    0  0.52448026869E+02 -0.23550880618E+02 -0.11633957406E+03  0.12977032015E+03  0.00000000000E+00 0.  1.
</event>
<event>
12    1  0.1565987E-001  0.2623067E+03  0.7818608E-02  0.1106211E+00
         21   -1    0    0  501  502  0.00000000000E+00  0.00000000000E+00  0.76606405477E+03  0.76606405477E+03  0.00000000000E+00 0.  1.
         21   -1    0    0  502  503 -0.00000000000E+00 -0.00000000000E+00 -0.11079044111E+03  0.11079044111E+03  0.00000000000E+00 0. -1.
         -6    2    1    2    0  503  0.11696519692E+03 -0.15961395665E+03  0.13079880422E+03  0.29044284420E+03  0.16760443345E+03 0.  0.
        -24    2    3    3    0    0  0.12038084713E+03 -0.18405801809E+03  0.12195815356E+03  0.26380779379E+03  0.79698547438E+02 0.  0.
          6    2    1    2  501    0 -0.11696519692E+03  0.15961395665E+03  0.52447480944E+03  0.58641165168E+03  0.17218399184E+03 0.  0.
         24    2    5    5    0    0 -0.74474166560E+02  0.23365761273E+02  0.30112606085E+03  0.32131579751E+03  0.80464755765E+02 0.  0.
          5    1    5    5  501    0 -0.42491030355E+02  0.13624819538E+03  0.22334874859E+03  0.26509585418E+03  0.47000000000E+01 0. -1.
        -11    1    6    6    0    0 -0.27220846907E+02  0.43946213354E+02  0.21337914772E+03  0.21955159953E+03  0.00000000000E+00 0.  1.
         12    1    6    6    0    0 -0.47253319654E+02 -0.20580452081E+02  0.87746913127E+02  0.10176419797E+03  0.00000000000E+00 0. -1.
         -5    1    3    3    0  503 -0.34156502102E+01  0.24444061444E+02  0.88406506557E+01  0.26635050409E+02  0.47000000000E+01 0.  1.
         13    1    4    4    0    0  0.29518484163E+02 -0.71415605021E+01 -0.25983756076E+00  0.30371208558E+02  0.00000000000E+00 0. -1.
        -14    1    4    4    0    0  0.90862362962E+02 -0.17691645759E+03  0.12221799112E+03  0.23343658523E+03  0.00000000000E+00 0.  1.
</event>
<event>
12    1  0.1565987E-001  0.1743247E+03  0.7818608E-02  0.1173828E+00
         21   -1    0    0  503  502  0.00000000000E+00  0.00000000000E+00  0.30272292720E+03  0.30272292720E+03  0.00000000000E+00 0.  1.
         21   -1    0    0  501  503 -0.00000000000E+00 -0.00000000000E+00 -0.10897502202E+03  0.10897502202E+03  0.00000000000E+00 0.  1.
          6    2    1    2  501    0  0.22506724868E+02 -0.85832518075E+01  0.15817613171E+03  0.23539071939E+03  0.17265247538E+03 0.  0.
         24    2    3    3    0    0 -0.27302330829E+02  0.83601623962E+01  0.19888616950E+02  0.87358465967E+02  0.80128864387E+02 0.  0.
         -6    2    1    2    0  502 -0.22506724868E+02  0.85832518075E+01  0.35571773467E+02  0.17630722983E+03  0.17099316754E+03 0.  0.
        -24    2    5    5    0    0 -0.12879996624E+01  0.60426901776E+02 -0.12954893273E+02  0.10204468391E+03  0.81192480275E+02 0.  0.
          5    1    3    3  501    0  0.49809055697E+02 -0.16943414204E+02  0.13828751476E+03  0.14803225342E+03  0.47000000000E+01 0. -1.
        -11    1    4    4    0    0  0.25633744184E+02  0.98975195349E+01  0.20685803490E+02  0.34394072162E+02  0.00000000000E+00 0.  1.
         12    1    4    4    0    0 -0.52936075013E+02 -0.15373571387E+01 -0.79718654018E+00  0.52964393805E+02  0.00000000000E+00 0. -1.
         -5    1    5    5    0  502 -0.21218725206E+02 -0.51843649969E+02  0.48526666740E+02  0.74262545919E+02  0.47000000000E+01 0.  1.
         11    1    6    6    0    0  0.38971164173E+02  0.25061243614E+02  0.21065222343E+01  0.46381623564E+02  0.00000000000E+00 0. -1.
        -12    1    6    6    0    0 -0.40259163836E+02  0.35365658162E+02 -0.15061415507E+02  0.55663060346E+02  0.00000000000E+00 0.  1.
</event>
<event>
12    1  0.1565987E-001  0.2889986E+03  0.7818608E-02  0.1090997E+00
         21   -1    0    0  501  502  0.00000000000E+00  0.00000000000E+00  0.98724045282E+02  0.98724045282E+02  0.00000000000E+00 0. -1.
         21   -1    0    0  502  503 -0.00000000000E+00 -0.00000000000E+00 -0.86389654152E+03  0.86389654152E+03  0.00000000000E+00 0.  1.
         -6    2    1    2    0  503 -0.17472112422E+03  0.14961492415E+03 -0.45764214239E+03  0.54125455672E+03  0.17495161589E+03 0.  0.
        -24    2    3    3    0    0 -0.16266109359E+03  0.96433315021E+02 -0.43976358138E+03  0.48367451823E+03  0.69217168878E+02 0.  0.
          6    2    1    2  501    0  0.17472112422E+03 -0.14961492415E+03 -0.30753035385E+03  0.42136603008E+03  0.17338487821E+03 0.  0.
         24    2    5    5    0    0  0.15673274506E+03 -0.93498957361E+02 -0.30358995017E+03  0.36211908674E+03  0.75207491237E+02 0.  0.
          5    1    5    5  501    0  0.17988379157E+02 -0.56115966793E+02 -0.39404036800E+01  0.59246943339E+02  0.47000000000E+01 0. -1.
        -11    1    6    6    0    0  0.19190511756E+02  0.63746031343E+01 -0.72376178867E+02  0.75148004458E+02  0.00000000000E+00 0.  1.
         12    1    6    6    0    0  0.13754223330E+03 -0.99873560495E+02 -0.23121377130E+03  0.28697108229E+03  0.00000000000E+00 0. -1.
         -5    1    3    3    0  503 -0.12060030623E+02  0.53181609133E+02 -0.17878561014E+02  0.57580038491E+02  0.47000000000E+01 0.  1.
         13    1    4    4    0    0 -0.41709357240E+02 -0.64490836438E+01 -0.10481700063E+03  0.11299497681E+03  0.00000000000E+00 0. -1.
        -14    1    4    4    0    0 -0.12095173635E+03  0.10288239866E+03 -0.33494658074E+03  0.37067954143E+03  0.00000000000E+00 0.  1.
</event>
<event>
12    1  0.1565987E-001  0.3113365E+03  0.7818608E-02  0.1080664E+00
         21   -1    0    0  501  502  0.00000000000E+00  0.00000000000E+00  0.13316191638E+04  0.13316191638E+04  0.00000000000E+00 0. -1.
         21   -1    0    0  502  503 -0.00000000000E+00 -0.00000000000E+00 -0.72844143983E+02  0.72844143983E+02  0.00000000000E+00 0. -1.
         -6    2    1    2    0  503  0.13797816758E+03  0.20816065037E+03  0.73467140306E+03  0.79486097373E+03  0.17231676062E+03 0.  0.
        -24    2    3    3    0    0  0.86218506382E+02  0.41704568618E+02  0.37439705951E+03  0.39460307899E+03  0.79784270956E+02 0.  0.
          6    2    1    2  501    0 -0.13797816758E+03 -0.20816065037E+03  0.52410361675E+03  0.60960233404E+03  0.18590743259E+03 0.  0.
         24    2    5    5    0    0  0.75643155642E+01 -0.42745108324E+02  0.14906223392E+03  0.17460458142E+03  0.79892722556E+02 0.  0.
          5    1    5    5  501    0 -0.14554248314E+03 -0.16541554205E+03  0.37504138283E+03  0.43499775262E+03  0.47000000000E+01 0. -1.
        -13    1    6    6    0    0 -0.12223826904E+02  0.13493133848E+02  0.52872126930E+01  0.18958935183E+02  0.00000000000E+00 0.  1.
         14    1    6    6    0    0  0.19788142468E+02 -0.56238242172E+02  0.14377502123E+03  0.15564564624E+03  0.00000000000E+00 0. -1.
         -5    1    3    3    0  503  0.51759661197E+02  0.16645608176E+03  0.36027434355E+03  0.40025789474E+03  0.47000000000E+01 0.  1.
         11    1    4    4    0    0  0.11470838063E+02  0.31293744840E+02  0.22258901707E+03  0.22507054252E+03  0.00000000000E+00 0. -1.
        -12    1    4    4    0    0  0.74747668319E+02  0.10410823777E+02  0.15180804244E+03  0.16953253646E+03  0.00000000000E+00 0.  1.
</event>
<event>
12    1  0.1565987E-001  0.2250803E+03  0.7818608E-02  0.1130863E+00
         21   -1    0    0  503  502  0.00000000000E+00  0.00000000000E+00  0.25334960579E+02  0.25334960579E+02  0.00000000000E+00 0. -1.
         21   -1    0    0  501  503 -0.00000000000E+00 -0.00000000000E+00 -0.20532501470E+04  0.20532501470E+04  0.00000000000E+00 0. -1.
          6    2    1    2  501    0  0.13833930290E+03 -0.19737244426E+02 -0.12376445414E+04  0.12579448121E+04  0.17644777650E+03 0.  0.
         24    2    3    3    0    0  0.10338894892E+03 -0.77092313501E+02 -0.68801477536E+03  0.70420651567E+03  0.76876433563E+02 0.  0.
         -6    2    1    2    0  502 -0.13833930290E+03  0.19737244426E+02 -0.79027064493E+03  0.82064029541E+03  0.17145110285E+03 0.  0.
        -24    2    5    5    0    0 -0.85208247342E+02 -0.31311324803E+02 -0.27590378467E+03  0.30100174563E+03  0.78982960193E+02 0.  0.
          5    1    3    3  501    0  0.34950353987E+02  0.57355069075E+02 -0.54962976609E+03  0.55373829646E+03  0.47000000000E+01 0. -1.
        -13    1    4    4    0    0  0.24157730507E+01 -0.21196821541E+02 -0.26098822416E+03  0.26185872976E+03  0.00000000000E+00 0.  1.
         14    1    4    4    0    0  0.10097317586E+03 -0.55895491960E+02 -0.42702655120E+03  0.44234778590E+03  0.00000000000E+00 0. -1.
         -5    1    5    5    0  502 -0.53131055561E+02  0.51048569230E+02 -0.51436686026E+03  0.51963854978E+03  0.47000000000E+01 0.  1.
         11    1    6    6    0    0 -0.86186223496E+02 -0.33878462888E+02 -0.28064119731E+03  0.29552545914E+03  0.00000000000E+00 0. -1.
        -12    1    6    6    0    0  0.97797615440E+00  0.25671380849E+01  0.47374126383E+01  0.54762864982E+01  0.00000000000E+00 0.  1.
</event>
<event>
12    1  0.1565987E-001  0.2011539E+03  0.7818608E-02  0.1150460E+00
         21   -1    0    0  501  502  0.00000000000E+00  0.00000000000E+00  0.35248889651E+03  0.35248889651E+03  0.00000000000E+00 0.  1.
         21   -1    0    0  502  503 -0.00000000000E+00 -0.00000000000E+00 -0.39585070192E+03  0.39585070192E+03  0.00000000000E+00 0.  1.
         -6    2    1    2    0  503 -0.62118775518E+02  0.61039056349E+02 -0.33956414084E+03  0.39467291094E+03  0.18132399789E+03 0.  0.
        -24    2    3    3    0    0 -0.53762200983E+02  0.55381657195E+02 -0.35713855708E+03  0.37386933890E+03  0.79201208416E+02 0.  0.
          6    2    1    2  501    0  0.62118775518E+02 -0.61039056349E+02  0.29620233543E+03  0.35366668749E+03  0.17251027117E+03 0.  0.
         24    2    5    5    0    0  0.19751805516E+02 -0.77052460942E+02  0.98691017098E+02  0.15097430939E+03  0.82012862900E+02 0.  0.
          5    1    5    5  501    0  0.42366970002E+02  0.16013404594E+02  0.19751131833E+03  0.20269237810E+03  0.47000000000E+01 0. -1.
        -11    1    6    6    0    0  0.42225843475E+02 -0.37390564750E+02  0.87386116172E+02  0.10400677617E+03  0.00000000000E+00 0.  1.
         12    1    6    6    0    0 -0.22474037959E+02 -0.39661896192E+02  0.11304900926E+02  0.46967533219E+02  0.00000000000E+00 0. -1.
         -5    1    3    3    0  503 -0.83565745350E+01  0.56573991540E+01  0.17574416238E+02  0.20803572031E+02  0.47000000000E+01 0.  1.
         13    1    4    4    0    0  0.15113278593E+02  0.16120465588E+01 -0.17537096958E+02  0.23206888065E+02  0.00000000000E+00 0. -1.
        -14    1    4    4    0    0 -0.68875479576E+02  0.53769610636E+02 -0.33960146012E+03  0.35066245084E+03  0.00000000000E+00 0.  1.
</event>
<event>
12    1  0.1565987E-001  0.1989620E+03  0.7818608E-02  0.1150880E+00
         21   -1    0    0  503  502  0.00000000000E+00  0.00000000000E+00  0.86708714060E+02  0.86708714060E+02  0.00000000000E+00 0. -1.
         21   -1    0    0  501  503 -0.00000000000E+00 -0.00000000000E+00 -0.48276670623E+03  0.48276670623E+03  0.00000000000E+00 0.  1.
          6    2    1    2  501    0 -0.55040040596E+02  0.82818344699E+02 -0.26845287689E+03  0.33414490164E+03  0.17232986942E+03 0.  0.
         24    2    3    3    0    0 -0.36999302833E+02  0.12127906443E+03 -0.16526134899E+03  0.22245212384E+03  0.78077359412E+02 0.  0.
         -6    2    1    2    0  502  0.55040040596E+02 -0.82818344699E+02 -0.12760511528E+03  0.23533051865E+03  0.17090670928E+03 0.  0.
        -24    2    5    5    0    0  0.27017370628E+02 -0.12117619294E+03 -0.10840439819E+03  0.18387809315E+03  0.81523196338E+02 0.  0.
          5    1    3    3  501    0 -0.18040737763E+02 -0.38460719731E+02 -0.10319152791E+03  0.11169277780E+03  0.47000000000E+01 0. -1.
        -11    1    4    4    0    0 -0.33652898299E+02  0.54682225031E+02 -0.13445414623E+03  0.14899859307E+03  0.00000000000E+00 0.  1.
         12    1    4    4    0    0 -0.33464045337E+01  0.66596839399E+02 -0.30807202760E+02  0.73453530774E+02  0.00000000000E+00 0. -1.
         -5    1    5    5    0  502  0.28022669968E+02  0.38357848240E+02 -0.19200717091E+02  0.51452425507E+02  0.47000000000E+01 0.  1.
         13    1    6    6    0    0  0.13660620145E+02 -0.36746581737E+02  0.74471468863E+01  0.39904684046E+02  0.00000000000E+00 0. -1.
        -14    1    6    6    0    0  0.13356750483E+02 -0.84429611202E+02 -0.11585154508E+03  0.14397340910E+03  0.00000000000E+00 0.  1.
</event>
<event>
12    1  0.1565987E-001  0.2249918E+03  0.7818608E-02  0.1130216E+00
         21   -1    0    0  501  502  0.00000000000E+00  0.00000000000E+00  0.81073658998E+03  0.81073658998E+03  0.00000000000E+00 0. -1.
         21   -1    0    0  502  503 -0.00000000000E+00 -0.00000000000E+00 -0.16012546484E+03  0.16012546484E+03  0.00000000000E+00 0. -1.
         -6    2    1    2    0  503  0.14411113184E+03  0.13174162394E+02 -0.53853686231E+02  0.23134059406E+03  0.17226919070E+03 0.  0.
        -24    2    3    3    0    0  0.77741685904E+02 -0.29339832499E+02  0.25285902934E+02  0.11954834170E+03  0.82145198379E+02 0.  0.
          6    2    1    2  501    0 -0.14411113184E+03 -0.13174162394E+02  0.70446481137E+03  0.73952146076E+03  0.17227809957E+03 0.  0.
         24    2    5    5    0    0 -0.72616130841E+02 -0.50899613491E+02  0.57405581168E+03  0.58601790370E+03  0.77543764605E+02 0.  0.
          5    1    5    5  501    0 -0.71495000998E+02  0.37725451097E+02  0.13040899969E+03  0.15350355705E+03  0.47000000000E+01 0. -1.
        -11    1    6    6    0    0  0.11053381801E+02 -0.59291777536E+01  0.18196461917E+02  0.22100760719E+02  0.00000000000E+00 0.  1.
         12    1    6    6    0    0 -0.83669512642E+02 -0.44970435738E+02  0.55585934976E+03  0.56391714298E+03  0.00000000000E+00 0. -1.
         -5    1    3    3    0  503  0.66369445935E+02  0.42513994893E+02 -0.79139589165E+02  0.11179225236E+03  0.47000000000E+01 0.  1.
         11    1    4    4    0    0  0.34030572266E+02 -0.50493663731E+02 -0.69137095800E+01  0.61282047174E+02  0.00000000000E+00 0. -1.
        -12    1    4    4    0    0  0.43711113638E+02  0.21153831232E+02  0.32199612514E+02  0.58266294522E+02  0.00000000000E+00 0.  1.
</event>
<event>
12    1  0.1565987E-001  0.2971769E+03  0.7818608E-02  0.1086797E+00
         21   -1    0    0  501  502  0.00000000000E+00  0.00000000000E+00  0.83745948250E+03  0.83745948250E+03  0.00000000000E+00 0.  1.
         21   -1    0    0  502  503 -0.00000000000E+00 -0.00000000000E+00 -0.23789234081E+03  0.23789234081E+03  0.00000000000E+00 0. -1.
         -6    2    1    2    0  503  0.14447833492E+03  0.19258360468E+03 -0.10173024991E+03  0.31410692467E+03  0.17421734221E+03 0.  0.
        -24    2    3    3    0    0  0.61257742086E+02  0.58905021197E+02 -0.10322760593E+03  0.15656339790E+03  0.81448428141E+02 0.  0.
          6    2    1    2  501    0 -0.14447833492E+03 -0.19258360468E+03  0.70129739161E+03  0.76124489864E+03  0.17237554981E+03 0.  0.
         24    2    5    5    0    0 -0.11294693030E+03 -0.10556325384E+03  0.59597937823E+03  0.62095682046E+03  0.80593696857E+02 0.  0.
          5    1    5    5  501    0 -0.31531404629E+02 -0.87020350836E+02  0.10531801338E+03  0.14028807818E+03  0.47000000000E+01 0. -1.
        -13    1    6    6    0    0 -0.26283932418E+02 -0.78846641246E+02  0.26058660532E+03  0.27351968267E+03  0.00000000000E+00 0.  1.
         14    1    6    6    0    0 -0.86662997877E+02 -0.26716612597E+02  0.33539277291E+03  0.34743713778E+03  0.00000000000E+00 0. -1.
         -5    1    3    3    0  503  0.83220592839E+02  0.13367858348E+03  0.14973560193E+01  0.15754352678E+03  0.47000000000E+01 0.  1.
         13    1    4    4    0    0 -0.14520550202E+02 -0.70568333396E+01 -0.22444610857E+02  0.27647890181E+02  0.00000000000E+00 0. -1.
        -14    1    4    4    0    0  0.75778292289E+02  0.65961854537E+02 -0.80782995077E+02  0.12891550772E+03  0.00000000000E+00 0.  1.
</event>
<event>
12    1  0.1565987E-001  0.1819381E+03  0.7818608E-02  0.1166123E+00
         21   -1    0    0  501  502  0.00000000000E+00  0.00000000000E+00  0.20369848685E+03  0.20369848685E+03  0.00000000000E+00 0. -1.
         21   -1    0    0  502  503 -0.00000000000E+00 -0.00000000000E+00 -0.16182336740E+03  0.16182336740E+03  0.00000000000E+00 0. -1.
         -6    2    1    2    0  503  0.56358776577E+02 -0.88266793093E+00  0.21469505994E+02  0.18244301908E+03  0.17218427548E+03 0.  0.
        -24    2    3    3    0    0  0.51247030701E+02 -0.20574543435E+02 -0.49600531039E+02  0.10836913656E+03  0.78956235261E+02 0.  0.
          6    2    1    2  501    0 -0.56358776577E+02  0.88266793093E+00  0.20405613458E+02  0.18307883517E+03  0.17298664696E+03 0.  0.
         24    2    5    5    0    0 -0.36262862137E+02 -0.65186561185E+02 -0.15239420769E+02  0.10522225370E+03  0.72630570689E+02 0.  0.
          5    1    5    5  501    0 -0.20095914440E+02  0.66069229116E+02  0.35645034227E+02  0.77856581470E+02  0.47000000000E+01 0. -1.
        -11    1    6    6    0    0 -0.30401464764E+02 -0.95453583551E+01 -0.33629581186E+02  0.46328302977E+02  0.00000000000E+00 0.  1.
         12    1    6    6    0    0 -0.58613973728E+01 -0.55641202830E+02  0.18390160417E+02  0.58893950722E+02  0.00000000000E+00 0. -1.
         -5    1    3    3    0  503  0.51117458762E+01  0.19691875504E+02  0.71070037033E+02  0.74073882514E+02  0.47000000000E+01 0.  1.
         13    1    4    4    0    0  0.61064279604E+02 -0.40987524123E+02 -0.40496008158E+02  0.83956834469E+02  0.00000000000E+00 0. -1.
        -14    1    4    4    0    0 -0.98172489037E+01  0.20412980688E+02 -0.91045228816E+01  0.24412302093E+02  0.00000000000E+00 0.  1.
</event>
<event>
12    1  0.1565987E-001  0.2124774E+03  0.7818608E-02  0.1139851E+00
         21   -1    0    0  501  502  0.00000000000E+00  0.00000000000E+00  0.90278272568E+02  0.90278272568E+02  0.00000000000E+00 0. -1.
         21   -1    0    0  502  503 -0.00000000000E+00 -0.00000000000E+00 -0.53522025507E+03  0.53522025507E+03  0.00000000000E+00 0.  1.
         -6    2    1    2    0  503 -0.11456105330E+03 -0.45437000201E+02 -0.13863865422E+03  0.25271388562E+03  0.17162422795E+03 0.  0.
        -24    2    3    3    0    0 -0.38370012846E+02 -0.27312919501E+02 -0.14747247481E+03  0.17376020722E+03  0.78906434017E+02 0.  0.
          6    2    1    2  501    0  0.11456105330E+03  0.45437000201E+02 -0.30630332828E+03  0.37278464202E+03  0.17308351883E+03 0.  0.
         24    2    5    5    0    0 -0.98416157212E+01  0.21696635018E+02 -0.92859470052E+02  0.12455088200E+03  0.79513770237E+02 0.  0.
          5    1    5    5  501    0  0.12440266902E+03  0.23740365184E+02 -0.21344385822E+03  0.24823376002E+03  0.47000000000E+01 0. -1.
        -13    1    6    6    0    0  0.21762346930E+02 -0.15179825031E+02 -0.60854028409E+02  0.66387043958E+02  0.00000000000E+00 0.  1.
         14    1    6    6    0    0 -0.31603962651E+02  0.36876460048E+02 -0.32005441643E+02  0.58163838041E+02  0.00000000000E+00 0. -1.
         -5    1    3    3    0  503 -0.76191040456E+02 -0.18124080701E+02  0.88338205825E+01  0.78953678401E+02  0.47000000000E+01 0.  1.
         13    1    4    4    0    0 -0.32586041538E+02 -0.31143738437E+02 -0.25893037939E+02  0.51982996842E+02  0.00000000000E+00 0. -1.
        -14    1    4    4    0    0 -0.57839713079E+01  0.38308189367E+01 -0.12157943687E+03  0.12177721037E+03  0.00000000000E+00 0.  1.
</event>
<event>
12    1  0.1565987E-001  0.2283509E+03  0.7818608E-02  0.1128478E+00
         21   -1    0    0  503  502  0.00000000000E+00  0.00000000000E+00  0.22591938252E+03  0.22591938252E+03  0.00000000000E+00 0.  1.
         21   -1    0    0  501  503 -0.00000000000E+00 -0.00000000000E+00 -0.22897284491E+03  0.22897284491E+03  0.00000000000E+00 0.  1.
          6    2    1    2  501    0  0.46402083663E+02  0.13622490268E+03  0.19422131864E+02  0.22543794201E+03  0.17243743508E+03 0.  0.
         24    2    3    3    0    0  0.80933188171E+02  0.87320426347E+02  0.57268270864E+02  0.15445579481E+03  0.80011873489E+02 0.  0.
         -6    2    1    2    0  502 -0.46402083663E+02 -0.13622490268E+03 -0.22475594256E+02  0.22945428541E+03  0.17729562679E+03 0.  0.
        -24    2    5    5    0    0 -0.86437867807E+02 -0.98958538458E+02 -0.57811557906E+02  0.16416748551E+03  0.79652305341E+02 0.  0.
          5    1    3    3  501    0 -0.34531104508E+02  0.48904476330E+02 -0.37846138999E+02  0.70982147198E+02  0.47000000000E+01 0. -1.
        -13    1    4    4    0    0  0.66077507757E+01  0.19489353281E+02  0.49410581116E+02  0.53524786668E+02  0.00000000000E+00 0.  1.
         14    1    4    4    0    0  0.74325437396E+02  0.67831073066E+02  0.78576897474E+01  0.10093100815E+03  0.00000000000E+00 0. -1.
         -5    1    5    5    0  502  0.40035784144E+02 -0.37266364218E+02  0.35335963650E+02  0.65286799900E+02  0.47000000000E+01 0.  1.
         11    1    6    6    0    0 -0.72940291011E+02 -0.23241020589E+02 -0.32885909337E+02  0.83318150026E+02  0.00000000000E+00 0. -1.
        -12    1    6    6    0    0 -0.13497576796E+02 -0.75717517869E+02 -0.24925648569E+02  0.80849335484E+02  0.00000000000E+00 0.  1.
</event>
<event>
12    1  0.1565987E-001  0.1864476E+03  0.7818608E-02  0.1162022E+00
         21   -1    0    0  503  502  0.00000000000E+00  0.00000000000E+00  0.13547234662E+03  0.13547234662E+03  0.00000000000E+00 0. -1.
         21   -1    0    0  501  503 -0.00000000000E+00 -0.00000000000E+00 -0.49536098944E+03  0.49536098944E+03  0.00000000000E+00 0.  1.
          6    2    1    2  501    0 -0.97489983077E+01 -0.66221474033E+02 -0.39944113207E+03  0.44023666486E+03  0.17255369165E+03 0.  0.
         24    2    3    3    0    0 -0.20421433229E+02 -0.10353241359E+03 -0.22432664478E+03  0.26081208255E+03  0.81021622086E+02 0.  0.
         -6    2    1    2    0  502  0.97489983077E+01  0.66221474033E+02  0.39552489251E+02  0.19059667120E+03  0.17401828949E+03 0.  0.
        -24    2    5    5    0    0  0.57324872456E+02  0.43308411658E+02 -0.20004755042E+02  0.11086193864E+03  0.82026944919E+02 0.  0.
          5    1    3    3  501    0  0.10672434921E+02  0.37310939557E+02 -0.17511448729E+03  0.17942458231E+03  0.47000000000E+01 0. -1.
        -13    1    4    4    0    0  0.23214381745E+02 -0.78027125679E+02 -0.15419535216E+03  0.17436555419E+03  0.00000000000E+00 0.  1.
         14    1    4    4    0    0 -0.43635814974E+02 -0.25505287912E+02 -0.70131292621E+02  0.86446528355E+02  0.00000000000E+00 0. -1.
         -5    1    5    5    0  502 -0.47575874148E+02  0.22913062375E+02  0.59557244292E+02  0.79734732558E+02  0.47000000000E+01 0.  1.
         11    1    6    6    0    0  0.33968111887E+02  0.66884497516E+02 -0.74702590405E+01  0.75386825130E+02  0.00000000000E+00 0. -1.
        -12    1    6    6    0    0  0.23356760569E+02 -0.23576085858E+02 -0.12534496001E+02  0.35475113511E+02  0.00000000000E+00 0.  1.
</event>
<event>
12    1  0.1565987E-001  0.1917431E+03  0.7818608E-02  0.1157534E+00
         21   -1    0    0  501  502  0.00000000000E+00  0.00000000000E+00  0.24216883500E+03  0.24216883500E+03  0.00000000000E+00 0.  1.
         21   -1    0    0  502  503 -0.00000000000E+00 -0.00000000000E+00 -0.14990991156E+03  0.14990991156E+03  0.00000000000E+00 0.  1.
         -6    2    1    2    0  503 -0.20702830258E+01  0.76067562147E+02  0.37342215959E+02  0.19534545462E+03  0.17599672004E+03 0.  0.
        -24    2    3    3    0    0  0.47141918607E+02  0.93013821665E+02  0.52409304798E+02  0.14095681916E+03  0.79045291623E+02 0.  0.
          6    2    1    2  501    0  0.20702830258E+01 -0.76067562147E+02  0.54916707484E+02  0.19673329194E+03  0.17290917649E+03 0.  0.
         24    2    5    5    0    0  0.59091850957E+01  0.25166543663E+02  0.44367359633E+02  0.94770258991E+02  0.79653411729E+02 0.  0.
          5    1    5    5  501    0 -0.38389020699E+01 -0.10123410581E+03  0.10549347851E+02  0.10196303295E+03  0.47000000000E+01 0. -1.
        -13    1    6    6    0    0  0.20823150301E+02  0.45514705121E+02  0.82698981649E+01  0.50730495625E+02  0.00000000000E+00 0.  1.
         14    1    6    6    0    0 -0.14913965206E+02 -0.20348161458E+02  0.36097461468E+02  0.44039763366E+02  0.00000000000E+00 0. -1.
         -5    1    3    3    0  503 -0.49212201632E+02 -0.16946259517E+02 -0.15067088840E+02  0.54388635460E+02  0.47000000000E+01 0.  1.
         13    1    4    4    0    0  0.11571935523E+01  0.70226197374E+02  0.39094504983E+01  0.70344450369E+02  0.00000000000E+00 0. -1.
        -14    1    4    4    0    0  0.45984725054E+02  0.22787624290E+02  0.48499854300E+02  0.70612368791E+02  0.00000000000E+00 0.  1.
</event>
<event>
12    1  0.1565987E-001  0.2253679E+03  0.7818608E-02  0.1130173E+00
         21   -1    0    0  501  502  0.00000000000E+00  0.00000000000E+00  0.61386742298E+02  0.61386742298E+02  0.00000000000E+00 0.  1.
         21   -1    0    0  502  503 -0.00000000000E+00 -0.00000000000E+00 -0.13864440716E+04  0.13864440716E+04  0.00000000000E+00 0.  1.
         -6    2    1    2    0  503 -0.36093540173E+02  0.13920383141E+03 -0.11230153256E+04  0.11451566349E+04  0.17187159946E+03 0.  0.
        -24    2    3    3    0    0 -0.78059993456E+02  0.80589808930E+02 -0.53314058436E+03  0.55087464196E+03  0.81461086296E+02 0.  0.
          6    2    1    2  501    0  0.36093540173E+02 -0.13920383141E+03 -0.20204200375E+03  0.30267417901E+03  0.17352301587E+03 0.  0.
         24    2    5    5    0    0  0.28301438811E+01  0.19301610344E+01 -0.89412674161E+02  0.11900950293E+03  0.78465917762E+02 0.  0.
          5    1    5    5  501    0  0.33263396291E+02 -0.14113399244E+03 -0.11262932959E+03  0.18366467608E+03  0.47000000000E+01 0. -1.
        -11    1    6    6    0    0 -0.21638128204E+02 -0.64354901892E+01  0.32488457517E+01  0.22807435736E+02  0.00000000000E+00 0.  1.
         12    1    6    6    0    0  0.24468272085E+02  0.83656512236E+01 -0.92661519912E+02  0.96202067190E+02  0.00000000000E+00 0. -1.
         -5    1    3    3    0  503  0.41966453283E+02  0.58614022476E+02 -0.58987474124E+03  0.59428199298E+03  0.47000000000E+01 0.  1.
         11    1    4    4    0    0 -0.93789358980E+02  0.55533221122E+02 -0.42628967926E+03  0.44000371947E+03  0.00000000000E+00 0. -1.
        -12    1    4    4    0    0  0.15729365525E+02  0.25056587808E+02 -0.10685090510E+03  0.11087092248E+03  0.00000000000E+00 0.  1.
</event>
<event>
12    1  0.1565987E-001  0.2047693E+03  0.7818608E-02  0.1145803E+00
         21   -1    0    0  503  502  0.00000000000E+00  0.00000000000E+00  0.40004387023E+03  0.40004387023E+03  0.00000000000E+00 0.  1.
         21   -1    0    0  501  503 -0.00000000000E+00 -0.00000000000E+00 -0.23821235393E+03  0.23821235393E+03  0.00000000000E+00 0.  1.
          6    2    1    2  501    0  0.11778345502E+02 -0.10875143233E+03 -0.15796738628E+03  0.25851708629E+03  0.17295023943E+03 0.  0.
         24    2    3    3    0    0  0.36958912175E+02 -0.13186453251E+03 -0.85210076214E+02  0.17799384427E+03  0.75278385920E+02 0.  0.
         -6    2    1    2    0  502 -0.11778345502E+02  0.10875143233E+03  0.31979890258E+03  0.37973913788E+03  0.17310364321E+03 0.  0.
        -24    2    5    5    0    0  0.11856791206E+01  0.11732516726E+03  0.14014844786E+03  0.19935634839E+03  0.79591240082E+02 0.  0.
          5    1    3    3  501    0 -0.25180566673E+02  0.23113100177E+02 -0.72757310061E+02  0.80523242018E+02  0.47000000000E+01 0. -1.
        -13    1    4    4    0    0  0.34947086966E+01 -0.11862318037E+03 -0.54106846178E+02  0.13042707814E+03  0.00000000000E+00 0.  1.
         14    1    4    4    0    0  0.33464203478E+02 -0.13241352137E+02 -0.31103230036E+02  0.47566766124E+02  0.00000000000E+00 0. -1.
         -5    1    5    5    0  502 -0.12964024622E+02 -0.85737349306E+01  0.17965045472E+03  0.18038278949E+03  0.47000000000E+01 0.  1.
         11    1    6    6    0    0  0.38508557532E+02  0.71371927826E+02  0.94981017613E+02  0.12489297335E+03  0.00000000000E+00 0. -1.
        -12    1    6    6    0    0 -0.37322878411E+02  0.45953239435E+02  0.45167430244E+02  0.74463375040E+02  0.00000000000E+00 0.  1.
</event>
<event>
12    1  0.1565987E-001  0.1738543E+03  0.7818608E-02  0.1174132E+00
         21   -1    0    0  501  502  0.00000000000E+00  0.00000000000E+00  0.18009967936E+03  0.18009967936E+03  0.00000000000E+00 0. -1.
         21   -1    0    0  502  503 -0.00000000000E+00 -0.00000000000E+00 -0.16729265439E+03  0.16729265439E+03  0.00000000000E+00 0. -1.
         -6    2    1    2    0  503 -0.24453898371E+01 -0.27114372483E+02  0.14839824946E+02  0.17352611240E+03  0.17073348281E+03 0.  0.
        -24    2    3    3    0    0  0.98737381258E+01 -0.48029321006E+02  0.66886177239E+02  0.11590572735E+03  0.80969565559E+02 0.  0.
          6    2    1    2  501    0  0.24453898371E+01  0.27114372483E+02 -0.20327999782E+01  0.17386622135E+03  0.17170952660E+03 0.  0.
         24    2    5    5    0    0  0.60544466856E+02  0.20706271898E+02  0.30675070319E+02  0.10672114496E+03  0.79712362153E+02 0.  0.
          5    1    5    5  501    0 -0.58099077019E+02  0.64081005845E+01 -0.32707870298E+02  0.67145076387E+02  0.47000000000E+01 0. -1.
        -11    1    6    6    0    0  0.79892241639E+01 -0.28829624666E+02  0.70662390694E+01  0.30739334666E+02  0.00000000000E+00 0.  1.
         12    1    6    6    0    0  0.52555242692E+02  0.49535896564E+02  0.23608831250E+02  0.75981810296E+02  0.00000000000E+00 0. -1.
         -5    1    3    3    0  503 -0.12319127963E+02  0.20914948523E+02 -0.52046352292E+02  0.57620385042E+02  0.47000000000E+01 0.  1.
         11    1    4    4    0    0 -0.30065607194E+02 -0.45433855054E+02  0.41815659838E+02  0.68678419672E+02  0.00000000000E+00 0. -1.
        -12    1    4    4    0    0  0.39939345319E+02 -0.25954659516E+01  0.25070517400E+02  0.47227307681E+02  0.00000000000E+00 0.  1.
</event>
<event>
12    1  0.1565987E-001  0.2047917E+03  0.7818608E-02  0.1146149E+00
         21   -1    0    0  503  502  0.00000000000E+00  0.00000000000E+00  0.32034482894E+03  0.32034482894E+03  0.00000000000E+00 0.  1.
         21   -1    0    0  501  503 -0.00000000000E+00 -0.00000000000E+00 -0.13050945407E+03  0.13050945407E+03  0.00000000000E+00 0.  1.
          6    2    1    2  501    0 -0.57427762082E+02  0.95228406347E+02  0.76796265310E+02  0.21693660533E+03  0.16969804693E+03 0.  0.
         24    2    3    3    0    0 -0.21317921587E+02  0.12875390649E+03  0.53955180820E+02  0.16242344287E+03  0.80238338962E+02 0.  0.
         -6    2    1    2    0  502  0.57427762082E+02 -0.95228406347E+02  0.11303910957E+03  0.23391767768E+03  0.17196872509E+03 0.  0.
        -24    2    5    5    0    0  0.20001713861E+02  0.17973611287E+02  0.29535128729E+02  0.88279733804E+02  0.78726541340E+02 0.  0.
          5    1    3    3  501    0 -0.36109840495E+02 -0.33525500144E+02  0.22841084491E+02  0.54513162458E+02  0.47000000000E+01 0. -1.
        -11    1    4    4    0    0 -0.27198441530E+02  0.13551201793E+03  0.36735919634E+02  0.14301325120E+03  0.00000000000E+00 0.  1.
         12    1    4    4    0    0  0.58805199426E+01 -0.67581114440E+01  0.17219261185E+02  0.19410191675E+02  0.00000000000E+00 0. -1.
         -5    1    5    5    0  502  0.37426048221E+02 -0.11320201763E+03  0.83503980836E+02  0.14563794388E+03  0.47000000000E+01 0.  1.
         11    1    6    6    0    0  0.85361647027E+01 -0.18363563818E+02 -0.18182528101E+02  0.27215637271E+02  0.00000000000E+00 0. -1.
        -12    1    6    6    0    0  0.11465549158E+02  0.36337175105E+02  0.47717656830E+02  0.61064096533E+02  0.00000000000E+00 0.  1.
</event>
<event>
12    1  0.1565987E-001  0.2037179E+03  0.7818608E-02  0.1146911E+00
         21   -1    0    0  501  502  0.00000000000E+00  0.00000000000E+00  0.38518368436E+02  0.38518368436E+02  0.00000000000E+00 0.  1.
         21   -1    0    0  502  503 -0.00000000000E+00 -0.00000000000E+00 -0.19673223242E+04  0.19673223242E+04  0.00000000000E+00 0.  1.
         -6    2    1    2    0  503 -0.10638976242E+03 -0.21064974196E+02 -0.16432408592E+04  0.16558204967E+04  0.17244848831E+03 0.  0.
        -24    2    3    3    0    0 -0.10288049575E+03 -0.72708761633E+02 -0.10940138419E+04  0.11041396086E+04  0.79918887320E+02 0.  0.
          6    2    1    2  501    0  0.10638976242E+03  0.21064974196E+02 -0.28556309653E+03  0.35002019595E+03  0.17089570148E+03 0.  0.
         24    2    5    5    0    0  0.11738805472E+03 -0.14915189927E+02 -0.27675920414E+03  0.31109548445E+03  0.78627762841E+02 0.  0.
          5    1    5    5  501    0 -0.10998292292E+02  0.35980164123E+02 -0.88038923907E+01  0.38924711494E+02  0.47000000000E+01 0. -1.
        -13    1    6    6    0    0  0.75090033598E+02  0.29323993037E+02 -0.14804003972E+03  0.16856530804E+03  0.00000000000E+00 0.  1.
         14    1    6    6    0    0  0.42298021118E+02 -0.44239182964E+02 -0.12871916442E+03  0.14253017641E+03  0.00000000000E+00 0. -1.
         -5    1    3    3    0  503 -0.35092666708E+01  0.51643787436E+02 -0.54922701735E+03  0.55168088812E+03  0.47000000000E+01 0.  1.
         11    1    4    4    0    0 -0.32105529819E+02 -0.72780217930E+01 -0.96109792262E+02  0.10159147019E+03  0.00000000000E+00 0. -1.
        -12    1    4    4    0    0 -0.70774965935E+02 -0.65430739840E+02 -0.99790404962E+03  0.10025481384E+04  0.00000000000E+00 0.  1.
</event>
<event>
12    1  0.1565987E-001  0.1755997E+03  0.7818608E-02  0.1172172E+00
         21   -1    0    0  501  502  0.00000000000E+00  0.00000000000E+00  0.19291538514E+03  0.19291538514E+03  0.00000000000E+00 0. -1.
         21   -1    0    0  502  503 -0.00000000000E+00 -0.00000000000E+00 -0.16903419660E+03  0.16903419660E+03  0.00000000000E+00 0. -1.
         -6    2    1    2    0  503 -0.33022237647E+02 -0.13584454242E+01 -0.30620356260E+02  0.17808643167E+03  0.17229294058E+03 0.  0.
        -24    2    3    3    0    0  0.44078704234E+02 -0.19777150084E+01  0.73232167467E+01  0.92023992321E+02  0.80423517304E+02 0.  0.
          6    2    1    2  501    0  0.33022237647E+02  0.13584454242E+01  0.54501544797E+02  0.18386315007E+03  0.17246137543E+03 0.  0.
         24    2    5    5    0    0  0.35402327731E+02  0.18159223305E+02 -0.32841953865E+02  0.94762601675E+02  0.79487574769E+02 0.  0.
          5    1    5    5  501    0 -0.23800900836E+01 -0.16800777881E+02  0.87343498663E+02  0.89100548398E+02  0.47000000000E+01 0. -1.
        -13    1    6    6    0    0  0.29559735619E+01  0.36928039465E+02  0.94678919476E+01  0.38236878224E+02  0.00000000000E+00 0.  1.
         14    1    6    6    0    0  0.32446354169E+02 -0.18768816160E+02 -0.42309845813E+02  0.56525723451E+02  0.00000000000E+00 0. -1.
         -5    1    3    3    0  503 -0.77100941882E+02  0.61926958421E+00 -0.37943573007E+02  0.86062439347E+02  0.47000000000E+01 0.  1.
         11    1    4    4    0    0  0.29357774854E+02  0.38094092027E+02  0.10460992442E+02  0.49218605777E+02  0.00000000000E+00 0. -1.
        -12    1    4    4    0    0  0.14720929380E+02 -0.40071807035E+02 -0.31377756953E+01  0.42805386544E+02  0.00000000000E+00 0.  1.
</event>
<event>
12    1  0.1565987E-001  0.1968603E+03  0.7818608E-02  0.1154152E+00
         21   -1    0    0  503  502  0.00000000000E+00  0.00000000000E+00  0.83782451542E+03  0.83782451542E+03  0.00000000000E+00 0. -1.
         21   -1    0    0  501  503 -0.00000000000E+00 -0.00000000000E+00 -0.46002958376E+02  0.46002958376E+02  0.00000000000E+00 0.  1.
          6    2    1    2  501    0 -0.56280235159E+02 -0.51415806532E+02  0.47005484429E+03  0.50661694093E+03  0.17291072311E+03 0.  0.
         24    2    3    3    0    0 -0.96351771775E+02 -0.66325806732E+02  0.39970645763E+03  0.42416076070E+03  0.80401007966E+02 0.  0.
         -6    2    1    2    0  502  0.56280235159E+02  0.51415806532E+02  0.32176671275E+03  0.37721053287E+03  0.18150184197E+03 0.  0.
        -24    2    5    5    0    0  0.58846912407E+02 -0.21130985085E+02  0.91103749765E+02  0.13534875974E+03  0.78165951096E+02 0.  0.
          5    1    3    3  501    0  0.40071536617E+02  0.14910000200E+02  0.70348386657E+02  0.82456180229E+02  0.47000000000E+01 0. -1.
        -11    1    4    4    0    0 -0.92116208871E+02 -0.75046115792E+02  0.28137461877E+03  0.30543246638E+03  0.00000000000E+00 0.  1.
         12    1    4    4    0    0 -0.42355629048E+01  0.87203090598E+01  0.11833183886E+03  0.11872829432E+03  0.00000000000E+00 0. -1.
         -5    1    5    5    0  502 -0.25666772486E+01  0.72546791618E+02  0.23066296299E+03  0.24186177313E+03  0.47000000000E+01 0.  1.
         13    1    6    6    0    0  0.74890349784E+02 -0.51185594281E+01  0.81293722083E+02  0.11065004922E+03  0.00000000000E+00 0. -1.
        -14    1    6    6    0    0 -0.16043437377E+02 -0.16012425657E+02  0.98100276818E+01  0.24698710521E+02  0.00000000000E+00 0.  1.
</event>
<event>
12    1  0.1565987E-001  0.1900555E+03  0.7818608E-02  0.1158504E+00
         21   -1    0    0  501  502  0.00000000000E+00  0.00000000000E+00  0.10004887016E+03  0.10004887016E+03  0.00000000000E+00 0. -1.
         21   -1    0    0  502  503 -0.00000000000E+00 -0.00000000000E+00 -0.38877082825E+03  0.38877082825E+03  0.00000000000E+00 0.  1.
         -6    2    1    2    0  503  0.34096183290E+02  0.74517003293E+02 -0.21041399239E+03  0.28326375115E+03  0.17102330552E+03 0.  0.
        -24    2    3    3    0    0 -0.28653126305E+02  0.43620075572E+02 -0.18593837887E+03  0.20901254474E+03  0.79934038314E+02 0.  0.
          6    2    1    2  501    0 -0.34096183290E+02 -0.74517003293E+02 -0.78307965696E+02  0.20555594726E+03  0.17148112569E+03 0.  0.
         24    2    5    5    0    0 -0.53584170148E+00  0.26814460845E+02 -0.50099365910E+02  0.95047226998E+02  0.76188755461E+02 0.  0.
          5    1    5    5  501    0 -0.33560341589E+02 -0.10133146414E+03 -0.28208599786E+02  0.11050872026E+03  0.47000000000E+01 0. -1.
        -13    1    6    6    0    0  0.11827538665E+02 -0.38102800535E+01  0.16531306421E+02  0.20680739758E+02  0.00000000000E+00 0.  1.
         14    1    6    6    0    0 -0.12363380366E+02  0.30624740898E+02 -0.66630672331E+02  0.74366487240E+02  0.00000000000E+00 0. -1.
         -5    1    3    3    0  503  0.62749309595E+02  0.30896927721E+02 -0.24475613524E+02  0.74251206419E+02  0.47000000000E+01 0.  1.
         11    1    4    4    0    0 -0.49121304392E+02  0.44921504553E+02 -0.96356457978E+02  0.11711281361E+03  0.00000000000E+00 0. -1.
        -12    1    4    4    0    0  0.20468178087E+02 -0.13014289812E+01 -0.89581920889E+02  0.91899731130E+02  0.00000000000E+00 0.  1.
</event>
<event>
12    1  0.1565987E-001  0.1877772E+03  0.7818608E-02  0.1160626E+00
         21   -1    0    0  501  502  0.00000000000E+00  0.00000000000E+00  0.39914419009E+03  0.39914419009E+03  0.00000000000E+00 0. -1.
         21   -1    0    0  502  503 -0.00000000000E+00 -0.00000000000E+00 -0.12893228076E+03  0.12893228076E+03  0.00000000000E+00 0.  1.
         -6    2    1    2    0  503 -0.28393674275E+02 -0.70261311643E+02 -0.13431143919E+02  0.18825694756E+03  0.17180637365E+03 0.  0.
        -24    2    3    3    0    0 -0.54245445195E+02 -0.11414384805E+02  0.39410932821E+02  0.10491638162E+03  0.79883471389E+02 0.  0.
          6    2    1    2  501    0  0.28393674275E+02  0.70261311643E+02  0.28364305325E+03  0.33981952329E+03  0.17111713562E+03 0.  0.
         24    2    5    5    0    0 -0.20524224399E+02  0.90046625431E+02  0.15136988130E+03  0.19733197482E+03  0.86587694173E+02 0.  0.
          5    1    5    5  501    0  0.48917898674E+02 -0.19785313788E+02  0.13227317195E+03  0.14248754848E+03  0.47000000000E+01 0. -1.
        -13    1    6    6    0    0 -0.26711323155E+02  0.74436808920E+02  0.47795460351E+02  0.92405299290E+02  0.00000000000E+00 0.  1.
         14    1    6    6    0    0  0.61870987554E+01  0.15609816512E+02  0.10357442095E+03  0.10492667553E+03  0.00000000000E+00 0. -1.
         -5    1    3    3    0  503  0.25851770920E+02 -0.58846926838E+02 -0.52842076740E+02  0.83340565945E+02  0.47000000000E+01 0.  1.
         13    1    4    4    0    0 -0.15405306858E+02  0.33128734747E+02  0.59926571654E+01  0.37023620640E+02  0.00000000000E+00 0. -1.
        -14    1    4    4    0    0 -0.38840138337E+02 -0.44543119553E+02  0.33418275655E+02  0.67892760979E+02  0.00000000000E+00 0.  1.
</event>
<event>
12    1  0.1565987E-001  0.2693683E+03  0.7818608E-02  0.1101730E+00
         21   -1    0    0  501  502  0.00000000000E+00  0.00000000000E+00  0.14581941344E+03  0.14581941344E+03  0.00000000000E+00 0. -1.
         21   -1    0    0  502  503 -0.00000000000E+00 -0.00000000000E+00 -0.63673642280E+03  0.63673642280E+03  0.00000000000E+00 0.  1.
         -6    2    1    2    0  503 -0.21984131996E+02  0.20615317035E+03 -0.42932938150E+03  0.50683629036E+03  0.17197928858E+03 0.  0.
        -24    2    3    3    0    0  0.46628873509E+02  0.12803623106E+03 -0.31003648172E+03  0.34852366715E+03  0.82332243138E+02 0.  0.
          6    2    1    2  501    0  0.21984131996E+02 -0.20615317035E+03 -0.61587627865E+02  0.27571954588E+03  0.17101403559E+03 0.  0.
         24    2    5    5    0    0 -0.31511413442E+02 -0.45841736812E+02 -0.42914762036E+02  0.10562458704E+03  0.78869782402E+02 0.  0.
          5    1    5    5  501    0  0.53495545438E+02 -0.16031143354E+03 -0.18672865829E+02  0.17009495884E+03  0.47000000000E+01 0. -1.
        -13    1    6    6    0    0 -0.16733236741E+02 -0.65984263176E+02 -0.43231116212E+02  0.80640272865E+02  0.00000000000E+00 0.  1.
         14    1    6    6    0    0 -0.14778176701E+02  0.20142526364E+02  0.31635417649E+00  0.24984314177E+02  0.00000000000E+00 0. -1.
         -5    1    3    3    0  503 -0.68613005504E+02  0.78116939285E+02 -0.11929289979E+03  0.15831262321E+03  0.47000000000E+01 0.  1.
         11    1    4    4    0    0  0.10221297151E+02  0.10964984118E+03 -0.16904992877E+03  0.20175589459E+03  0.00000000000E+00 0. -1.
        -12    1    4    4    0    0  0.36407576358E+02  0.18386389879E+02 -0.14098655295E+03  0.14676777256E+03  0.00000000000E+00 0.  1.
</event>
<event>
12    1  0.1565987E-001  0.1876004E+03  0.7818608E-02  0.1161114E+00
         21   -1    0    0  501  502  0.00000000000E+00  0.00000000000E+00  0.57009943544E+02  0.57009943544E+02  0.00000000000E+00 0.  1.
         21   -1    0    0  502  503 -0.00000000000E+00 -0.00000000000E+00 -0.64410467066E+03  0.64410467066E+03  0.00000000000E+00 0. -1.
         -6    2    1    2    0  503  0.61280203011E+02  0.40075500427E+02 -0.37498413146E+03  0.41929346811E+03  0.17272117569E+03 0.  0.
        -24    2    3    3    0    0  0.65453763703E+02 -0.90909857531E+01 -0.34722147411E+03  0.36248134691E+03  0.80393616447E+02 0.  0.
          6    2    1    2  501    0 -0.61280203011E+02 -0.40075500427E+02 -0.21211059565E+03  0.28182114609E+03  0.17050203689E+03 0.  0.
         24    2    5    5    0    0  0.72662832347E+01 -0.27372866959E+02 -0.18855537354E+03  0.20808569897E+03  0.83333405720E+02 0.  0.
          5    1    5    5  501    0 -0.68546486246E+02 -0.12702633468E+02 -0.23555222112E+02  0.73735447123E+02  0.47000000000E+01 0. -1.
        -13    1    6    6    0    0  0.22775737608E+02 -0.53156163147E+02 -0.11935571688E+03  0.13262767078E+03  0.00000000000E+00 0.  1.
         14    1    6    6    0    0 -0.15509454373E+02  0.25783296188E+02 -0.69199656659E+02  0.75458028194E+02  0.00000000000E+00 0. -1.
         -5    1    3    3    0  503 -0.41735606920E+01  0.49166486180E+02 -0.27762657352E+02  0.56812121202E+02  0.47000000000E+01 0.  1.
         13    1    4    4    0    0  0.73992190958E+02  0.17332621276E+02 -0.26607912966E+03  0.27671893200E+03  0.00000000000E+00 0. -1.
        -14    1    4    4    0    0 -0.85384272548E+01 -0.26423607030E+02 -0.81142344450E+02  0.85762414911E+02  0.00000000000E+00 0.  1.
</event>
<event>
12    1  0.1565987E-001  0.2179589E+03  0.7818608E-02  0.1135558E+00
         21   -1    0    0  503  502  0.00000000000E+00  0.00000000000E+00  0.26904528232E+03  0.26904528232E+03  0.00000000000E+00 0.  1.
         21   -1    0    0  501  503 -0.00000000000E+00 -0.00000000000E+00 -0.17709333248E+03  0.17709333248E+03  0.00000000000E+00 0.  1.
          6    2    1    2  501    0  0.59759770389E+02 -0.11778845660E+03  0.28164643906E+02  0.21977107997E+03  0.17338030384E+03 0.  0.
         24    2    3    3    0    0  0.43915521127E+02 -0.13052058790E+03 -0.27117887982E+02  0.16068304621E+03  0.78227007030E+02 0.  0.
         -6    2    1    2    0  502 -0.59759770389E+02  0.11778845660E+03  0.63787305927E+02  0.22636753483E+03  0.17241835680E+03 0.  0.
        -24    2    5    5    0    0 -0.64663095534E+02  0.48954541231E+01  0.16885240252E+02  0.10393074963E+03  0.79443111626E+02 0.  0.
          5    1    3    3  501    0  0.15844249262E+02  0.12732131295E+02  0.55282531888E+02  0.59088033762E+02  0.47000000000E+01 0. -1.
        -13    1    4    4    0    0  0.25256932487E+02 -0.11480346530E+03  0.81145822440E+01  0.11782866684E+03  0.00000000000E+00 0.  1.
         14    1    4    4    0    0  0.18658588640E+02 -0.15717122593E+02 -0.35232470226E+02  0.42854379366E+02  0.00000000000E+00 0. -1.
         -5    1    5    5    0  502  0.49033251450E+01  0.11289300248E+03  0.46902065675E+02  0.12243678520E+03  0.47000000000E+01 0.  1.
         11    1    6    6    0    0 -0.31080146559E+02  0.23527737714E+02 -0.25618585640E+02  0.46645920317E+02  0.00000000000E+00 0. -1.
        -12    1    6    6    0    0 -0.33582948975E+02 -0.18632283591E+02  0.42503825892E+02  0.57284829311E+02  0.00000000000E+00 0.  1.
</event>
<event>
12    1  0.1565987E-001  0.1910667E+03  0.7818608E-02  0.1159474E+00
         21   -1    0    0  503  502  0.00000000000E+00  0.00000000000E+00  0.48810506072E+03  0.48810506072E+03  0.00000000000E+00 0. -1.
         21   -1    0    0  501  503 -0.00000000000E+00 -0.00000000000E+00 -0.83640214387E+02  0.83640214387E+02  0.00000000000E+00 0. -1.
          6    2    1    2  501    0 -0.83182888061E+02  0.62650005979E+01  0.89217209894E+02  0.20311597907E+03  0.16228908563E+03 0.  0.
         24    2    3    3    0    0  0.88841547391E+00  0.38053766103E+02  0.53857200861E+02  0.10641577261E+03  0.83515508616E+02 0.  0.
         -6    2    1    2    0  502  0.83182888061E+02 -0.62650005979E+01  0.31524763643E+03  0.36862929603E+03  0.17189485890E+03 0.  0.
        -24    2    5    5    0    0  0.63944267664E+02  0.25608285854E+02  0.84596185746E+02  0.13494529442E+03  0.79429617727E+02 0.  0.
          5    1    3    3  501    0 -0.84071303535E+02 -0.31788765505E+02  0.35360009033E+02  0.96700206459E+02  0.47000000000E+01 0. -1.
        -11    1    4    4    0    0  0.14281034311E+02  0.20082438698E+02  0.72933381007E+02  0.76983961642E+02  0.00000000000E+00 0.  1.
         12    1    4    4    0    0 -0.13392618837E+02  0.17971327406E+02 -0.19076180146E+02  0.29431810970E+02  0.00000000000E+00 0. -1.
         -5    1    5    5    0  502  0.19238620397E+02 -0.31873286452E+02  0.23065145069E+03  0.23368400161E+03  0.47000000000E+01 0.  1.
         11    1    6    6    0    0  0.43671273335E+02 -0.24631889267E+02  0.32274629358E+02  0.59628531625E+02  0.00000000000E+00 0. -1.
        -12    1    6    6    0    0  0.20272994329E+02  0.50240175121E+02  0.52321556388E+02  0.75316762796E+02  0.00000000000E+00 0.  1.
</event>
<event>
12    1  0.1565987E-001  0.2149831E+03  0.7818608E-02  0.1139026E+00
         21   -1    0    0  503  502  0.00000000000E+00  0.00000000000E+00  0.11604326297E+03  0.11604326297E+03  0.00000000000E+00 0.  1.
         21   -1    0    0  501  503 -0.00000000000E+00 -0.00000000000E+00 -0.75983516774E+03  0.75983516774E+03  0.00000000000E+00 0.  1.
          6    2    1    2  501    0  0.96793383842E+02  0.65962446778E+02 -0.62655203028E+03  0.66020516424E+03  0.17199828111E+03 0.  0.
         24    2    3    3    0    0  0.62553073904E+02  0.14647614190E+02 -0.16398971698E+03  0.19352369412E+03  0.80195718437E+02 0.  0.
         -6    2    1    2    0  502 -0.96793383842E+02 -0.65962446778E+02 -0.17239874498E+02  0.21567326646E+03  0.18027129848E+03 0.  0.
        -24    2    5    5    0    0 -0.63168537034E+02 -0.50979623759E+02 -0.82057662741E+02  0.14098356851E+03  0.80955052124E+02 0.  0.
          5    1    3    3  501    0  0.34240309938E+02  0.51314832589E+02 -0.46256231330E+03  0.46668147012E+03  0.47000000000E+01 0. -1.
        -13    1    4    4    0    0  0.19321443804E+02 -0.10618517712E+02 -0.13261002142E+03  0.13443023801E+03  0.00000000000E+00 0.  1.
         14    1    4    4    0    0  0.43231630100E+02  0.25266131901E+02 -0.31379695556E+02  0.59093456114E+02  0.00000000000E+00 0. -1.
         -5    1    5    5    0  502 -0.33624846808E+02 -0.14982823019E+02  0.64817788243E+02  0.74689697959E+02  0.47000000000E+01 0.  1.
         13    1    6    6    0    0  0.72151372859E+01 -0.13687674670E+02 -0.54570210516E+02  0.56721411474E+02  0.00000000000E+00 0. -1.
        -14    1    6    6    0    0 -0.70383674320E+02 -0.37291949089E+02 -0.27487452225E+02  0.84262157031E+02  0.00000000000E+00 0.  1.
</event>
<event>
12    1  0.1565987E-001  0.1727940E+03  0.7818608E-02  0.1177212E+00
         21   -1    0    0  501  502  0.00000000000E+00  0.00000000000E+00  0.22135982416E+03  0.22135982416E+03  0.00000000000E+00 0. -1.
         21   -1    0    0  502  503 -0.00000000000E+00 -0.00000000000E+00 -0.34749988319E+03  0.34749988319E+03  0.00000000000E+00 0. -1.
         -6    2    1    2    0  503 -0.57523171841E+01 -0.20574390941E+02 -0.28954689572E+03  0.33718712246E+03  0.17146823618E+03 0.  0.
        -24    2    3    3    0    0 -0.41941663555E+02  0.19638109335E+02 -0.25970678077E+03  0.27522555026E+03  0.78464852382E+02 0.  0.
          6    2    1    2  501    0  0.57523171841E+01  0.20574390941E+02  0.16340683669E+03  0.23167258489E+03  0.16283119356E+03 0.  0.
         24    2    5    5    0    0 -0.47885983619E+02  0.77143803091E+01  0.53332219694E+02  0.10846155254E+03  0.81037050973E+02 0.  0.
          5    1    5    5  501    0  0.53638300803E+02  0.12860010632E+02  0.11007461699E+03  0.12321103235E+03  0.47000000000E+01 0. -1.
        -13    1    6    6    0    0 -0.62677136129E+02  0.18546128960E+02  0.60221791004E+02  0.88876579617E+02  0.00000000000E+00 0.  1.
         14    1    6    6    0    0  0.14791152510E+02 -0.10831748651E+02 -0.68895713097E+01  0.19584972919E+02  0.00000000000E+00 0. -1.
         -5    1    3    3    0  503  0.36189346371E+02 -0.40212500276E+02 -0.29840114944E+02  0.61961572197E+02  0.47000000000E+01 0.  1.
         11    1    4    4    0    0  0.74724823740E+01  0.22699648319E+02 -0.17867562710E+03  0.18026672390E+03  0.00000000000E+00 0. -1.
        -12    1    4    4    0    0 -0.49414145929E+02 -0.30615389835E+01 -0.81031153676E+02  0.94958826366E+02  0.00000000000E+00 0.  1.
</event>
<event>
12    1  0.1565987E-001  0.2018981E+03  0.7818608E-02  0.1148474E+00
         21   -1    0    0  503  502  0.00000000000E+00  0.00000000000E+00  0.41605973670E+03  0.41605973670E+03  0.00000000000E+00 0. -1.
         21   -1    0    0  501  503 -0.00000000000E+00 -0.00000000000E+00 -0.19795834796E+03  0.19795834796E+03  0.00000000000E+00 0. -1.
          6    2    1    2  501    0 -0.38289949907E+02 -0.97181763327E+02 -0.11016643763E+03  0.22863176636E+03  0.17095445364E+03 0.  0.
         24    2    3    3    0    0 -0.72850911494E+02 -0.51749430937E+02 -0.19472381240E+02  0.12136546803E+03  0.79781854402E+02 0.  0.
         -6    2    1    2    0  502  0.38289949907E+02  0.97181763327E+02  0.32826782637E+03  0.38538631831E+03  0.17277856673E+03 0.  0.
        -24    2    5    5    0    0 -0.75927952180E+01  0.12471113262E+03  0.23146399130E+03  0.27467875326E+03  0.79134828535E+02 0.  0.
          5    1    3    3  501    0  0.34560961586E+02 -0.45432332390E+02 -0.90694056388E+02  0.10726629832E+03  0.47000000000E+01 0. -1.
        -13    1    4    4    0    0 -0.31029070924E+02  0.74377758356E+01  0.21153667357E+02  0.38283173777E+02  0.00000000000E+00 0.  1.
         14    1    4    4    0    0 -0.41821840570E+02 -0.59187206773E+02 -0.40626048596E+02  0.83082294255E+02  0.00000000000E+00 0. -1.
         -5    1    5    5    0  502  0.45882745125E+02 -0.27529369293E+02  0.96803835071E+02  0.11070756505E+03  0.47000000000E+01 0.  1.
         13    1    6    6    0    0 -0.41867866985E+02  0.85309481912E+02  0.13684997112E+03  0.16660894510E+03  0.00000000000E+00 0. -1.
        -14    1    6    6    0    0  0.34275071766E+02  0.39401650708E+02  0.94614020175E+02  0.10806980817E+03  0.00000000000E+00 0.  1.
</event>
<event>
12    1  0.1565987E-001  0.1758813E+03  0.7818608E-02  0.1171970E+00
         21   -1    0    0  503  502  0.00000000000E+00  0.00000000000E+00  0.28734324987E+03  0.28734324987E+03  0.00000000000E+00 0.  1.
         21   -1    0    0  501  503 -0.00000000000E+00 -0.00000000000E+00 -0.30706840766E+03  0.30706840766E+03  0.00000000000E+00 0.  1.
          6    2    1    2  501    0  0.35806603167E+02  0.22348907178E+01 -0.24954953469E+03  0.30530181411E+03  0.17218339022E+03 0.  0.
         24    2    3    3    0    0 -0.41957390594E+02  0.76673375506E+01 -0.95565459325E+02  0.13264627360E+03  0.81505007163E+02 0.  0.
         -6    2    1    2    0  502 -0.35806603167E+02 -0.22348907178E+01  0.22982437690E+03  0.28910984343E+03  0.17169202015E+03 0.  0.
        -24    2    5    5    0    0 -0.28574155411E+02 -0.37749788361E+02  0.23437702028E+03  0.25228006177E+03  0.80443228765E+02 0.  0.
          5    1    3    3  501    0  0.77763993761E+02 -0.54324468329E+01 -0.15398407536E+03  0.17265554051E+03  0.47000000000E+01 0. -1.
        -11    1    4    4    0    0  0.62508207746E+01 -0.28950517690E+02 -0.44454544768E+02  0.53417336001E+02  0.00000000000E+00 0.  1.
         12    1    4    4    0    0 -0.48208211369E+02  0.36617855241E+02 -0.51110914556E+02  0.79228937596E+02  0.00000000000E+00 0. -1.
         -5    1    5    5    0  502 -0.72324477558E+01  0.35514897643E+02 -0.45526433807E+01  0.36829781657E+02  0.47000000000E+01 0.  1.
         13    1    6    6    0    0 -0.28854467575E+02 -0.58668874665E+00  0.21003334129E+02  0.35694040781E+02  0.00000000000E+00 0. -1.
        -14    1    6    6    0    0  0.28031216387E+00 -0.37163099614E+02  0.21337368615E+03  0.21658602099E+03  0.00000000000E+00 0.  1.
</event>
<event>
12    1  0.1565987E-001  0.2116275E+03  0.7818608E-02  0.1141269E+00
         21   -1    0    0  503  502  0.00000000000E+00  0.00000000000E+00  0.29076977527E+03  0.29076977527E+03  0.00000000000E+00 0. -1.
         21   -1    0    0  501  503 -0.00000000000E+00 -0.00000000000E+00 -0.15344272615E+03  0.15344272615E+03  0.00000000000E+00 0.  1.
          6    2    1    2  501    0 -0.29909125318E+02  0.11072005610E+03  0.10056337886E+03  0.23430579168E+03  0.17785590867E+03 0.  0.
         24    2    3    3    0    0  0.40917388881E+02  0.92624028660E+02  0.30317277941E+02  0.13281458015E+03  0.80418480226E+02 0.  0.
         -6    2    1    2    0  502  0.29909125318E+02 -0.11072005610E+03  0.36763670256E+02  0.20990670974E+03  0.17191792444E+03 0.  0.
        -24    2    5    5    0    0 -0.32871744412E+02 -0.77923991570E+01  0.64227481075E+01  0.85495288547E+02  0.78274642160E+02 0.  0.
          5    1    3    3  501    0 -0.70826514199E+02  0.18096027437E+02  0.70246100914E+02  0.10149121152E+03  0.47000000000E+01 0. -1.
        -13    1    4    4    0    0  0.65078765242E+01  0.93165942006E+02  0.13013126776E+02  0.94295210245E+02  0.00000000000E+00 0.  1.
         14    1    4    4    0    0  0.34409512357E+02 -0.54191334565E+00  0.17304151165E+02  0.38519369910E+02  0.00000000000E+00 0. -1.
         -5    1    5    5    0  502  0.62780869730E+02 -0.10292765694E+03  0.30340922149E+02  0.12441142120E+03  0.47000000000E+01 0.  1.
         11    1    6    6    0    0 -0.43569348064E+01  0.26764075698E+02  0.25105351912E+02  0.36953718670E+02  0.00000000000E+00 0. -1.
        -12    1    6    6    0    0 -0.28514809606E+02 -0.34556474855E+02 -0.18682603805E+02  0.48541569878E+02  0.00000000000E+00 0.  1.
</event>
<event>
12    1  0.1565987E-001  0.2149089E+03  0.7818608E-02  0.1137994E+00
         21   -1    0    0  501  502  0.00000000000E+00  0.00000000000E+00  0.33667372437E+02  0.33667372437E+02  0.00000000000E+00 0. -1.
         21   -1    0    0  502  503 -0.00000000000E+00 -0.00000000000E+00 -0.13635390779E+04  0.13635390779E+04  0.00000000000E+00 0.  1.
         -6    2    1    2    0  503 -0.96347312785E+02  0.81796481292E+02 -0.67573271251E+03  0.70908427940E+03  0.17381699428E+03 0.  0.
        -24    2    3    3    0    0  0.13449469007E+02  0.56619638576E+02 -0.37471755147E+03  0.38764777886E+03  0.80441813672E+02 0.  0.
          6    2    1    2  501    0  0.96347312785E+02 -0.81796481292E+02 -0.65413899298E+03  0.68812217097E+03  0.17216512715E+03 0.  0.
         24    2    5    5    0    0 -0.67895588960E+01 -0.13117148014E+02 -0.35144970594E+03  0.36101827370E+03  0.81235093749E+02 0.  0.
          5    1    5    5  501    0  0.10313687168E+03 -0.68679333278E+02 -0.30268928704E+03  0.32710389727E+03  0.47000000000E+01 0. -1.
        -11    1    6    6    0    0  0.18511440389E+02 -0.74919402885E+01 -0.31836130117E+03  0.31898702274E+03  0.00000000000E+00 0.  1.
         12    1    6    6    0    0 -0.25300999285E+02 -0.56252077252E+01 -0.33088404771E+02  0.42031250958E+02  0.00000000000E+00 0. -1.
         -5    1    3    3    0  503 -0.10979678179E+03  0.25176842716E+02 -0.30101516104E+03  0.32143650054E+03  0.47000000000E+01 0.  1.
         11    1    4    4    0    0 -0.37708278968E+01  0.58557942517E+02 -0.13372469903E+03  0.14603269122E+03  0.00000000000E+00 0. -1.
        -12    1    4    4    0    0  0.17220296904E+02 -0.19383039411E+01 -0.24099285244E+03  0.24161508764E+03  0.00000000000E+00 0.  1.
</event>
<event>
12    1  0.1565987E-001  0.1893802E+03  0.7818608E-02  0.1159332E+00
         21   -1    0    0  501  502  0.00000000000E+00  0.00000000000E+00  0.32415842814E+03  0.32415842814E+03  0.00000000000E+00 0.  1.
         21   -1    0    0  502  503 -0.00000000000E+00 -0.00000000000E+00 -0.23357805144E+03  0.23357805144E+03  0.00000000000E+00 0. -1.
         -6    2    1    2    0  503 -0.60891919136E+02 -0.48101546280E+02 -0.15775376804E+03  0.24543102638E+03  0.17125581102E+03 0.  0.
        -24    2    3    3    0    0 -0.69574604473E+01 -0.78187551616E+02 -0.53262380823E+02  0.12396237383E+03  0.79800309711E+02 0.  0.
          6    2    1    2  501    0  0.60891919136E+02  0.48101546280E+02  0.24833414474E+03  0.31230545321E+03  0.17275203063E+03 0.  0.
         24    2    5    5    0    0  0.70397274203E+02  0.30782209221E+02  0.66792222116E+02  0.12963123258E+03  0.80247958885E+02 0.  0.
          5    1    5    5  501    0 -0.95053550669E+01  0.17319337059E+02  0.18154192262E+03  0.18267422063E+03  0.47000000000E+01 0. -1.
        -11    1    6    6    0    0  0.74373623286E+02  0.21461307100E+02  0.81090726673E+02  0.11210588520E+03  0.00000000000E+00 0.  1.
         12    1    6    6    0    0 -0.39763490827E+01  0.93209021206E+01 -0.14298504557E+02  0.17525347384E+02  0.00000000000E+00 0. -1.
         -5    1    3    3    0  503 -0.53934458689E+02  0.30086005336E+02 -0.10449138721E+03  0.12146865255E+03  0.47000000000E+01 0.  1.
         11    1    4    4    0    0 -0.23441386627E+02 -0.40608963326E+02  0.10581561827E+02  0.48068242740E+02  0.00000000000E+00 0. -1.
        -12    1    4    4    0    0  0.16483926180E+02 -0.37578588290E+02 -0.63843942649E+02  0.75894131086E+02  0.00000000000E+00 0.  1.
</event>
<event>
12    1  0.1565987E-001  0.2249188E+03  0.7818608E-02  0.1130615E+00
         21   -1    0    0  503  502  0.00000000000E+00  0.00000000000E+00  0.56512752363E+02  0.56512752363E+02  0.00000000000E+00 0.  1.
         21   -1    0    0  501  503 -0.00000000000E+00 -0.00000000000E+00 -0.91563008547E+03  0.91563008547E+03  0.00000000000E+00 0. -1.
          6    2    1    2  501    0  0.13248519472E+03  0.51964918974E+02 -0.51637029690E+03  0.56322886527E+03  0.17417173000E+03 0.  0.
         24    2    3    3    0    0  0.53228040318E+02  0.20424879868E+01 -0.10815394530E+03  0.14437731000E+03  0.79436362744E+02 0.  0.
         -6    2    1    2    0  502 -0.13248519472E+03 -0.51964918974E+02 -0.34274703621E+03  0.40891397257E+03  0.17170447433E+03 0.  0.
        -24    2    5    5    0    0 -0.15946351677E+03 -0.56726821786E+02 -0.32742865827E+03  0.37717679749E+03  0.80039145528E+02 0.  0.
          5    1    3    3  501    0  0.79257154398E+02  0.49922430987E+02 -0.40821635160E+03  0.41885155527E+03  0.47000000000E+01 0. -1.
        -11    1    4    4    0    0  0.12717893918E+02  0.38435899029E+02 -0.54862665188E+02  0.68183393810E+02  0.00000000000E+00 0.  1.
         12    1    4    4    0    0  0.40510146400E+02 -0.36393411043E+02 -0.53291280112E+02  0.76193916192E+02  0.00000000000E+00 0. -1.
         -5    1    5    5    0  502  0.26978322052E+02  0.47619028126E+01 -0.15318377939E+02  0.31737175076E+02  0.47000000000E+01 0.  1.
         11    1    6    6    0    0 -0.12318976917E+03 -0.24395954553E+02 -0.16328703576E+03  0.20599402388E+03  0.00000000000E+00 0. -1.
        -12    1    6    6    0    0 -0.36273747603E+02 -0.32330867233E+02 -0.16414162251E+03  0.17118277361E+03  0.00000000000E+00 0.  1.
</event>
<event>
12    1  0.1565987E-001  0.2627820E+03  0.7818608E-02  0.1105897E+00
         21   -1    0    0  501  502  0.00000000000E+00  0.00000000000E+00  0.10840507963E+04  0.10840507963E+04  0.00000000000E+00 0.  1.
         21   -1    0    0  502  503 -0.00000000000E+00 -0.00000000000E+00 -0.10474315841E+03  0.10474315841E+03  0.00000000000E+00 0. -1.
         -6    2    1    2    0  503 -0.19893796593E+03  0.18924868466E+02  0.11611402719E+03  0.28729222215E+03  0.17064550583E+03 0.  0.
        -24    2    3    3    0    0 -0.16868466503E+03 -0.41013789790E+02  0.88251769946E+02  0.21444786514E+03  0.89793456310E+02 0.  0.
          6    2    1    2  501    0  0.19893796593E+03 -0.18924868466E+02  0.86319361072E+03  0.90150173258E+03  0.16633610350E+03 0.  0.
         24    2    5    5    0    0  0.86304692091E+02 -0.61396950282E+00  0.29636711598E+03  0.32328385969E+03  0.96073459731E+02 0.  0.
          5    1    5    5  501    0  0.11263327384E+03 -0.18310898963E+02  0.56682649474E+03  0.57821787289E+03  0.47000000000E+01 0. -1.
        -13    1    6    6    0    0  0.16473862090E+02 -0.43887433196E+02  0.10110691376E+03  0.11144551554E+03  0.00000000000E+00 0.  1.
         14    1    6    6    0    0  0.69830830001E+02  0.43273463693E+02  0.19526020222E+03  0.21183834415E+03  0.00000000000E+00 0. -1.
         -5    1    3    3    0  503 -0.30253300901E+02  0.59938658256E+02  0.27862257242E+02  0.72844357006E+02  0.47000000000E+01 0.  1.
         13    1    4    4    0    0 -0.13183526506E+03 -0.21075863904E+02  0.20910631771E+02  0.13513690715E+03  0.00000000000E+00 0. -1.
        -14    1    4    4    0    0 -0.36849399967E+02 -0.19937925886E+02  0.67341138175E+02  0.79310957989E+02  0.00000000000E+00 0.  1.
</event>
<event>
12    1  0.1565987E-001  0.2094583E+03  0.7818608E-02  0.1142408E+00
         21   -1    0    0  501  502  0.00000000000E+00  0.00000000000E+00  0.29168200863E+03  0.29168200863E+03  0.00000000000E+00 0. -1.
         21   -1    0    0  502  503 -0.00000000000E+00 -0.00000000000E+00 -0.15013796237E+03  0.15013796237E+03  0.00000000000E+00 0.  1.
         -6    2    1    2    0  503  0.11244818525E+03 -0.34915873055E+02  0.90903194845E+02  0.22833344038E+03  0.17323122296E+03 0.  0.
        -24    2    3    3    0    0  0.28453444085E+02  0.38627670006E+02  0.18461693199E+02  0.95165762510E+02  0.80087407674E+02 0.  0.
          6    2    1    2  501    0 -0.11244818525E+03  0.34915873055E+02  0.50640851414E+02  0.21348653063E+03  0.17072870400E+03 0.  0.
         24    2    5    5    0    0 -0.83137742327E+02  0.68795409623E+02 -0.13568990173E+02  0.13505236193E+03  0.80064538872E+02 0.  0.
          5    1    5    5  501    0 -0.29310442920E+02 -0.33879536568E+02  0.64209841587E+02  0.78434168694E+02  0.47000000000E+01 0. -1.
        -13    1    6    6    0    0  0.85727023671E+01  0.35464392618E+02 -0.77477797503E+01  0.37299362739E+02  0.00000000000E+00 0.  1.
         14    1    6    6    0    0 -0.91710444694E+02  0.33331017005E+02 -0.58212104225E+01  0.97752999194E+02  0.00000000000E+00 0. -1.
         -5    1    3    3    0  503  0.83994741162E+02 -0.73543543061E+02  0.72441501647E+02  0.13316767787E+03  0.47000000000E+01 0.  1.
         11    1    4    4    0    0  0.36377838134E+02 -0.12551980590E+02  0.19967529561E+02  0.43354371876E+02  0.00000000000E+00 0. -1.
        -12    1    4    4    0    0 -0.79243940487E+01  0.51179650596E+02 -0.15058363620E+01  0.51811390633E+02  0.00000000000E+00 0.  1.
</event>
<event>
12    1  0.1565987E-001  0.1988844E+03  0.7818608E-02  0.1151251E+00
         21   -1    0    0  501  502  0.00000000000E+00  0.00000000000E+00  0.44858137744E+03  0.44858137744E+03  0.00000000000E+00 0.  1.
         21   -1    0    0  502  503 -0.00000000000E+00 -0.00000000000E+00 -0.13080497559E+03  0.13080497559E+03  0.00000000000E+00 0.  1.
         -6    2    1    2    0  503  0.85583379184E+02  0.51598405645E+02 -0.80306143759E+01  0.19904643114E+03  0.17195371681E+03 0.  0.
        -24    2    3    3    0    0  0.38483116180E+02  0.29033730173E+01 -0.64919985084E+02  0.11045675071E+03  0.80602168142E+02 0.  0.
          6    2    1    2  501    0 -0.85583379184E+02 -0.51598405645E+02  0.32580701622E+03  0.38033992189E+03  0.16888260451E+03 0.  0.
         24    2    5    5    0    0 -0.11419283090E+03 -0.60249363135E+02  0.20076536280E+03  0.25168983490E+03  0.79818880622E+02 0.  0.
          5    1    5    5  501    0  0.28609451711E+02  0.86509574908E+01  0.12504165342E+03  0.12865008699E+03  0.47000000000E+01 0. -1.
        -13    1    6    6    0    0 -0.77994904045E+02 -0.20664924198E+02  0.17388207428E+03  0.19169042727E+03  0.00000000000E+00 0.  1.
         14    1    6    6    0    0 -0.36197926850E+02 -0.39584438937E+02  0.26883288517E+02  0.59999407628E+02  0.00000000000E+00 0. -1.
         -5    1    3    3    0  503  0.47100263004E+02  0.48695032627E+02  0.56889370708E+02  0.88589680422E+02  0.47000000000E+01 0.  1.
         13    1    4    4    0    0 -0.14770245227E+02  0.47862282456E+01  0.10037877533E+02  0.18488567014E+02  0.00000000000E+00 0. -1.
        -14    1    4    4    0    0  0.53253361407E+02 -0.18828552283E+01 -0.74957862617E+02  0.91968183700E+02  0.00000000000E+00 0.  1.
</event>
<event>
12    1  0.1565987E-001  0.2803441E+03  0.7818608E-02  0.1095647E+00
         21   -1    0    0  501  502  0.00000000000E+00  0.00000000000E+00  0.74513724102E+03  0.74513724102E+03  0.00000000000E+00 0. -1.
         21   -1    0    0  502  503 -0.00000000000E+00 -0.00000000000E+00 -0.15943190089E+03  0.15943190089E+03  0.00000000000E+00 0.  1.
         -6    2    1    2    0  503  0.52614822553E+02  0.21408873190E+03  0.28392357958E+02  0.28071773581E+03  0.17144683296E+03 0.  0.
        -24    2    3    3    0    0  0.10635876933E+02  0.22161388424E+03  0.30819651043E+02  0.23774284146E+03  0.79661610618E+02 0.  0.
          6    2    1    2  501    0 -0.52614822553E+02 -0.21408873190E+03  0.55731298217E+03  0.62385140609E+03  0.17317768943E+03 0.  0.
         24    2    5    5    0    0 -0.70526262171E+02 -0.12141230644E+03  0.45845899308E+03  0.48708905506E+03  0.85768277371E+02 0.  0.
          5    1    5    5  501    0  0.17911439618E+02 -0.92676425452E+02  0.98853989085E+02  0.13676235104E+03  0.47000000000E+01 0. -1.
        -13    1    6    6    0    0 -0.81573453305E+01 -0.73390582849E+02  0.13175969923E+03  0.15104084969E+03  0.00000000000E+00 0.  1.
         14    1    6    6    0    0 -0.62368916840E+02 -0.48021723595E+02  0.32669929385E+03  0.33604820537E+03  0.00000000000E+00 0. -1.
         -5    1    3    3    0  503  0.41978945619E+02 -0.75251523473E+01 -0.24272930852E+01  0.42974894356E+02  0.47000000000E+01 0.  1.
         13    1    4    4    0    0 -0.26596988009E+01  0.31106722086E+02  0.34772409181E+02  0.46731387706E+02  0.00000000000E+00 0. -1.
        -14    1    4    4    0    0  0.13295575734E+02  0.19050716216E+03 -0.39527581385E+01  0.19101145375E+03  0.00000000000E+00 0.  1.
</event>
<event>
12    1  0.1565987E-001  0.1905029E+03  0.7818608E-02  0.1158125E+00
         21   -1    0    0  501  502  0.00000000000E+00  0.00000000000E+00  0.79455575335E+03  0.79455575335E+03  0.00000000000E+00 0. -1.
         21   -1    0    0  502  503 -0.00000000000E+00 -0.00000000000E+00 -0.45832153878E+02  0.45832153878E+02  0.00000000000E+00 0. -1.
         -6    2    1    2    0  503 -0.75933531141E+02 -0.33444468115E+02  0.34093753167E+03  0.39029811841E+03  0.17090870996E+03 0.  0.
        -24    2    3    3    0    0 -0.10089526920E+03  0.16728135539E+02  0.15300800458E+03  0.19413498305E+03  0.61783948678E+02 0.  0.
          6    2    1    2  501    0  0.75933531141E+02  0.33444468115E+02  0.40778606781E+03  0.45008978882E+03  0.17148442291E+03 0.  0.
         24    2    5    5    0    0  0.72085017535E+02  0.61271486756E+02  0.40229060286E+03  0.42108213193E+03  0.80758825102E+02 0.  0.
          5    1    5    5  501    0  0.38485136057E+01 -0.27827018641E+02  0.54954649455E+01  0.29007656893E+02  0.47000000000E+01 0. -1.
        -13    1    6    6    0    0  0.10013458308E+02  0.55547005960E+02  0.12959559770E+03  0.14135330970E+03  0.00000000000E+00 0.  1.
         14    1    6    6    0    0  0.62071559227E+02  0.57244807960E+01  0.27269500516E+03  0.27972882223E+03  0.00000000000E+00 0. -1.
         -5    1    3    3    0  503  0.24961738056E+02 -0.50172603653E+02  0.18792952708E+03  0.19616313536E+03  0.47000000000E+01 0.  1.
         11    1    4    4    0    0 -0.74895286937E+02  0.22326587896E+02  0.14757255778E+03  0.16698934200E+03  0.00000000000E+00 0. -1.
        -12    1    4    4    0    0 -0.25999982259E+02 -0.55984523574E+01  0.54354468047E+01  0.27145641054E+02  0.00000000000E+00 0.  1.
</event>
<event>
12    1  0.1565987E-001  0.2228416E+03  0.7818608E-02  0.1131818E+00
         21   -1    0    0  501  502  0.00000000000E+00  0.00000000000E+00  0.50233467327E+03  0.50233467327E+03  0.00000000000E+00 0.  1.
         21   -1    0    0  502  503 -0.00000000000E+00 -0.00000000000E+00 -0.12239803309E+03  0.12239803309E+03  0.00000000000E+00 0.  1.
         -6    2    1    2    0  503 -0.14220200423E+03 -0.45280394203E+01  0.52787226853E+02  0.22900848933E+03  0.17151234276E+03 0.  0.
        -24    2    3    3    0    0 -0.78561179127E+02  0.10705495896E+02  0.10100905007E+03  0.14758583000E+03  0.72748075660E+02 0.  0.
          6    2    1    2  501    0  0.14220200423E+03  0.45280394203E+01  0.32714941333E+03  0.39572421704E+03  0.17125712878E+03 0.  0.
         24    2    5    5    0    0  0.82579281540E+02 -0.63720216451E+02  0.19821318457E+03  0.23805578463E+03  0.80637995602E+02 0.  0.
          5    1    5    5  501    0  0.59622722693E+02  0.68248255872E+02  0.12893622876E+03  0.15766843241E+03  0.47000000000E+01 0. -1.
        -13    1    6    6    0    0  0.75433532170E+02 -0.42862124693E+02  0.19781392573E+03  0.21600400163E+03  0.00000000000E+00 0.  1.
         14    1    6    6    0    0  0.71457493693E+01 -0.20858091758E+02  0.39925884210E+00  0.22051782999E+02  0.00000000000E+00 0. -1.
         -5    1    3    3    0  503 -0.63640825106E+02 -0.15233535316E+02 -0.48221823215E+02  0.81422659332E+02  0.47000000000E+01 0.  1.
         11    1    4    4    0    0  0.12765118030E-02  0.13037042240E+01  0.57062770330E+02  0.57077661165E+02  0.00000000000E+00 0. -1.
        -12    1    4    4    0    0 -0.78562455639E+02  0.94017916720E+01  0.43946279738E+02  0.90508168832E+02  0.00000000000E+00 0.  1.
</event>
<event>
12    1  0.1565987E-001  0.1875254E+03  0.7818608E-02  0.1160992E+00
         21   -1    0    0  501  502  0.00000000000E+00  0.00000000000E+00  0.13538239693E+03  0.13538239693E+03  0.00000000000E+00 0.  1.
         21   -1    0    0  502  503 -0.00000000000E+00 -0.00000000000E+00 -0.30357764682E+03  0.30357764682E+03  0.00000000000E+00 0. -1.
         -6    2    1    2    0  503 -0.47493054556E+02  0.52643343160E+02 -0.16884015326E+03  0.25143352258E+03  0.17229308492E+03 0.  0.
        -24    2    3    3    0    0 -0.64293362839E+02 -0.10310442650E+02 -0.45822366823E+02  0.11214642595E+03  0.78975881247E+02 0.  0.
          6    2    1    2  501    0  0.47493054556E+02 -0.52643343160E+02  0.64490337843E+00  0.18752652118E+03  0.17360549656E+03 0.  0.
         24    2    5    5    0    0  0.67376944163E+01 -0.60731638523E+01  0.62471430371E+02  0.99922922961E+02  0.77457285488E+02 0.  0.
          5    1    5    5  501    0  0.40755360140E+02 -0.46570179308E+02 -0.61826526992E+02  0.87603598218E+02  0.47000000000E+01 0. -1.
        -11    1    6    6    0    0 -0.22420933360E+02 -0.30073343731E+02  0.18081981522E+02  0.41642073816E+02  0.00000000000E+00 0.  1.
         12    1    6    6    0    0  0.29158627776E+02  0.24000179879E+02  0.44389448848E+02  0.58280849145E+02  0.00000000000E+00 0. -1.
         -5    1    3    3    0  503  0.16800308283E+02  0.62953785810E+02 -0.12301778644E+03  0.13928709663E+03  0.47000000000E+01 0.  1.
         13    1    4    4    0    0  0.62438690267E+01 -0.18809565742E+02 -0.35080181266E+02  0.40291497633E+02  0.00000000000E+00 0. -1.
        -14    1    4    4    0    0 -0.70537231865E+02  0.84991230919E+01 -0.10742185557E+02  0.71854928315E+02  0.00000000000E+00 0.  1.
</event>
<event>
12    1  0.1565987E-001  0.1729201E+03  0.7818608E-02  0.1174890E+00
         21   -1    0    0  503  502  0.00000000000E+00  0.00000000000E+00  0.33386114218E+03  0.33386114218E+03  0.00000000000E+00 0.  1.
         21   -1    0    0  501  503 -0.00000000000E+00 -0.00000000000E+00 -0.24266016356E+03  0.24266016356E+03  0.00000000000E+00 0.  1.
          6    2    1    2  501    0 -0.68689699841E+01 -0.80151247389E+01 -0.18345695428E+03  0.25196259494E+03  0.17238697805E+03 0.  0.
         24    2    3    3    0    0  0.58588101869E+02 -0.28538546580E+02 -0.11940168997E+03  0.15798916260E+03  0.80354200953E+02 0.  0.
         -6    2    1    2    0  502  0.68689699841E+01  0.80151247389E+01  0.27465793289E+03  0.32455871080E+03  0.17259765839E+03 0.  0.
        -24    2    5    5    0    0  0.29592007564E+02  0.57235341268E+02  0.10797081563E+03  0.14921433189E+03  0.80347051056E+02 0.  0.
          5    1    3    3  501    0 -0.65457071853E+02  0.20523421841E+02 -0.64055264309E+02  0.93973432338E+02  0.47000000000E+01 0. -1.
        -11    1    4    4    0    0 -0.18630552569E+01  0.87223197009E+01 -0.72135860464E+02  0.72685158050E+02  0.00000000000E+00 0.  1.
         12    1    4    4    0    0  0.60451157125E+02 -0.37260866281E+02 -0.47265829505E+02  0.85304004552E+02  0.00000000000E+00 0. -1.
         -5    1    5    5    0  502 -0.22723037579E+02 -0.49220216529E+02  0.16668711726E+03  0.17534437890E+03  0.47000000000E+01 0.  1.
         11    1    6    6    0    0  0.31064276462E+02  0.17473172299E+02  0.16358815976E+01  0.35678805065E+02  0.00000000000E+00 0. -1.
        -12    1    6    6    0    0 -0.14722688983E+01  0.39762168969E+02  0.10633493403E+03  0.11353552683E+03  0.00000000000E+00 0.  1.
</event>
<event>
12    1  0.1565987E-001  0.1995538E+03  0.7818608E-02  0.1150281E+00
         21   -1    0    0  503  502  0.00000000000E+00  0.00000000000E+00  0.16527383849E+03  0.16527383849E+03  0.00000000000E+00 0. -1.
         21   -1    0    0  501  503 -0.00000000000E+00 -0.00000000000E+00 -0.49222095918E+03  0.49222095918E+03  0.00000000000E+00 0. -1.
          6    2    1    2  501    0 -0.39420428059E+01  0.99286878362E+02 -0.39895356467E+03  0.44607807219E+03  0.17305570147E+03 0.  0.
         24    2    3    3    0    0  0.82220698006E+01 -0.22235727482E+02 -0.14655384359E+03  0.16564373305E+03  0.73469634681E+02 0.  0.
         -6    2    1    2    0  502  0.39420428059E+01 -0.99286878362E+02  0.72006443979E+02  0.21141672548E+03  0.17215887988E+03 0.  0.
        -24    2    5    5    0    0  0.44833465682E+02 -0.39154600773E+01  0.53667879062E+02  0.10593587957E+03  0.79478291785E+02 0.  0.
          5    1    3    3  501    0 -0.12164112606E+02  0.12152260584E+03 -0.25239972108E+03  0.28043433913E+03  0.47000000000E+01 0. -1.
        -13    1    4    4    0    0 -0.23737509566E+02 -0.24438485216E+02 -0.32166077143E+02  0.46854726963E+02  0.00000000000E+00 0.  1.
         14    1    4    4    0    0  0.31959579367E+02  0.22027577336E+01 -0.11438776645E+03  0.11878900609E+03  0.00000000000E+00 0. -1.
         -5    1    5    5    0  502 -0.40891422876E+02 -0.95371418285E+02  0.18338564917E+02  0.10548084591E+03  0.47000000000E+01 0.  1.
         13    1    6    6    0    0  0.10775129817E+02 -0.25629712642E+02  0.58972268412E+02  0.65197500215E+02  0.00000000000E+00 0. -1.
        -14    1    6    6    0    0  0.34058335865E+02  0.21714252565E+02 -0.53043893492E+01  0.40738379357E+02  0.00000000000E+00 0.  1.
</event>
<event>
12    1  0.1565987E-001  0.2959364E+03  0.7818608E-02  0.1087362E+00
         21   -1    0    0  503  502  0.00000000000E+00  0.00000000000E+00  0.29517448261E+03  0.29517448261E+03  0.00000000000E+00 0.  1.
         21   -1    0    0  501  503 -0.00000000000E+00 -0.00000000000E+00 -0.30460621534E+03  0.30460621534E+03  0.00000000000E+00 0. -1.
          6    2    1    2  501    0  0.19763537319E+03 -0.13676371624E+03  0.45301121428E+02  0.29882550761E+03  0.17169868252E+03 0.  0.
         24    2    3    3    0    0  0.22600754257E+02 -0.55413421974E+02  0.32517915669E+02  0.10533005921E+03  0.80346531381E+02 0.  0.
         -6    2    1    2    0  502 -0.19763537319E+03  0.13676371624E+03 -0.54732854161E+02  0.30095519035E+03  0.17266813967E+03 0.  0.
        -24    2    5    5    0    0 -0.14459860685E+03  0.16425193003E+03 -0.58603126684E+02  0.24090879586E+03  0.81946737839E+02 0.  0.
          5    1    3    3  501    0  0.17503461894E+03 -0.81350294264E+02  0.12783205759E+02  0.19349544840E+03  0.47000000000E+01 0. -1.
        -11    1    4    4    0    0  0.43304449321E+02 -0.46241591950E+02  0.46616609690E+02  0.78655377795E+02  0.00000000000E+00 0.  1.
         12    1    4    4    0    0 -0.20703695064E+02 -0.91718300241E+01 -0.14098694021E+02  0.26674681411E+02  0.00000000000E+00 0. -1.
         -5    1    5    5    0  502 -0.53036766339E+02 -0.27488213796E+02  0.38702725238E+01  0.60046394486E+02  0.47000000000E+01 0.  1.
         13    1    6    6    0    0 -0.58219316690E+02  0.83541881929E+02 -0.67799584721E+02  0.12233363626E+03  0.00000000000E+00 0. -1.
        -14    1    6    6    0    0 -0.86379290164E+02  0.80710048105E+02  0.91964580369E+01  0.11857515960E+03  0.00000000000E+00 0.  1.
</event>
<event>
12    1  0.1565987E-001  0.1761394E+03  0.7818608E-02  0.1171755E+00
         21   -1    0    0  501  502  0.00000000000E+00  0.00000000000E+00  0.70265389391E+02  0.70265389391E+02  0.00000000000E+00 0.  1.
         21   -1    0    0  502  503 -0.00000000000E+00 -0.00000000000E+00 -0.49175387369E+03  0.49175387369E+03  0.00000000000E+00 0.  1.
         -6    2    1    2    0  503 -0.35243661892E+02  0.83988385945E+01 -0.11985116371E+03  0.21304783982E+03  0.17237292251E+03 0.  0.
        -24    2    3    3    0    0 -0.76444434475E+01 -0.33812406815E+02 -0.16687729442E+01  0.84468395176E+02  0.77009146277E+02 0.  0.
          6    2    1    2  501    0  0.35243661892E+02 -0.83988385945E+01 -0.30163732059E+03  0.34897142327E+03  0.17170709038E+03 0.  0.
         24    2    5    5    0    0  0.17095574723E+02 -0.68023327494E+02 -0.23329864081E+03  0.25636096004E+03  0.79832664180E+02 0.  0.
          5    1    5    5  501    0  0.18148087169E+02  0.59624488899E+02 -0.68338679789E+02  0.92610463230E+02  0.47000000000E+01 0. -1.
        -11    1    6    6    0    0  0.32762860215E+01  0.18237499257E+02 -0.49578185085E+02  0.52927656906E+02  0.00000000000E+00 0.  1.
         12    1    6    6    0    0  0.13819288701E+02 -0.86260826751E+02 -0.18372045572E+03  0.20343330313E+03  0.00000000000E+00 0. -1.
         -5    1    3    3    0  503 -0.27599218444E+02  0.42211245410E+02 -0.11818239076E+03  0.12857944464E+03  0.47000000000E+01 0.  1.
         13    1    4    4    0    0  0.78576483293E+01  0.20321589978E+01 -0.33260906244E+02  0.34236825081E+02  0.00000000000E+00 0. -1.
        -14    1    4    4    0    0 -0.15502091777E+02 -0.35844565813E+02  0.31592133300E+02  0.50231570095E+02  0.00000000000E+00 0.  1.
</event>
<event>
12    1  0.1565987E-001  0.2079899E+03  0.7818608E-02  0.1143253E+00
         21   -1    0    0  503  502  0.00000000000E+00  0.00000000000E+00  0.67229539740E+03  0.67229539740E+03  0.00000000000E+00 0. -1.
         21   -1    0    0  501  503 -0.00000000000E+00 -0.00000000000E+00 -0.35577931282E+03  0.35577931282E+03  0.00000000000E+00 0. -1.
          6    2    1    2  501    0  0.11576263397E+03 -0.15406209969E+02 -0.30705354319E+03  0.37086611033E+03  0.17210884542E+03 0.  0.
         24    2    3    3    0    0  0.15040177772E+03 -0.23847170838E+02 -0.24597328747E+03  0.29998587515E+03  0.79368034130E+02 0.  0.
         -6    2    1    2    0  502 -0.11576263397E+03  0.15406209969E+02  0.62356962778E+03  0.65720859989E+03  0.17159756512E+03 0.  0.
        -24    2    5    5    0    0 -0.95643544171E+02 -0.20581339887E+02  0.23820966990E+03  0.26962084382E+03  0.79876614201E+02 0.  0.
          5    1    3    3  501    0 -0.34639143747E+02  0.84409608684E+01 -0.61080255720E+02  0.70880235177E+02  0.47000000000E+01 0. -1.
        -13    1    4    4    0    0  0.33844548224E+02 -0.14116575943E+02 -0.12306303576E+02  0.38680437802E+02  0.00000000000E+00 0.  1.
         14    1    4    4    0    0  0.11655722949E+03 -0.97305948951E+01 -0.23366698390E+03  0.26130543735E+03  0.00000000000E+00 0. -1.
         -5    1    5    5    0  502 -0.20119089799E+02  0.35987549856E+02  0.38535995788E+03  0.38758775607E+03  0.47000000000E+01 0.  1.
         13    1    6    6    0    0  0.11763093747E+02 -0.12983239830E+02  0.22368226623E+02  0.28412540422E+02  0.00000000000E+00 0. -1.
        -14    1    6    6    0    0 -0.10740663792E+03 -0.75981000568E+01  0.21584144327E+03  0.24120830340E+03  0.00000000000E+00 0.  1.
</event>
<event>
12    1  0.1565987E-001  0.2060077E+03  0.7818608E-02  0.1144905E+00
         21   -1    0    0  501  502  0.00000000000E+00  0.00000000000E+00  0.38237838199E+03  0.38237838199E+03  0.00000000000E+00 0. -1.
         21   -1    0    0  502  503 -0.00000000000E+00 -0.00000000000E+00 -0.11359739704E+03  0.11359739704E+03  0.00000000000E+00 0. -1.
         -6    2    1    2    0  503 -0.80129545521E+02 -0.76534697922E+02  0.94050443450E+02  0.22584630314E+03  0.17286631447E+03 0.  0.
        -24    2    3    3    0    0 -0.12862603990E+02 -0.19999092200E+02 -0.15675805772E+02  0.85194051453E+02  0.80292498068E+02 0.  0.
          6    2    1    2  501    0  0.80129545521E+02  0.76534697922E+02  0.17473054150E+03  0.27012947588E+03  0.17366884452E+03 0.  0.
         24    2    5    5    0    0  0.33438938442E+02  0.72546581329E+00  0.16026660900E+03  0.17980590307E+03  0.74337661486E+02 0.  0.
          5    1    5    5  501    0  0.46690607080E+02  0.75809232108E+02  0.14463932501E+02  0.90323572813E+02  0.47000000000E+01 0. -1.
        -11    1    6    6    0    0 -0.33988787717E+01  0.27208261008E+02  0.24899440432E+02  0.37038142202E+02  0.00000000000E+00 0.  1.
         12    1    6    6    0    0  0.36837817213E+02 -0.26482795194E+02  0.13536716856E+03  0.14276776087E+03  0.00000000000E+00 0. -1.
         -5    1    3    3    0  503 -0.67266941532E+02 -0.56535605721E+02  0.10972624922E+03  0.14065225169E+03  0.47000000000E+01 0.  1.
         13    1    4    4    0    0  0.59923746808E+01  0.89841561680E+01  0.27695716004E+02  0.29726693414E+02  0.00000000000E+00 0. -1.
        -14    1    4    4    0    0 -0.18854978671E+02 -0.28983248368E+02 -0.43371521776E+02  0.55467358039E+02  0.00000000000E+00 0.  1.
</event>
<event>
12    1  0.1565987E-001  0.1761191E+03  0.7818608E-02  0.1172132E+00
         21   -1    0    0  501  502  0.00000000000E+00  0.00000000000E+00  0.47319962662E+03  0.47319962662E+03  0.00000000000E+00 0. -1.
         21   -1    0    0  502  503 -0.00000000000E+00 -0.00000000000E+00 -0.67340167841E+02  0.67340167841E+02  0.00000000000E+00 0. -1.
         -6    2    1    2    0  503  0.15265025353E+02 -0.21276242724E+02  0.25447163852E+03  0.30829811801E+03  0.17206456711E+03 0.  0.
        -24    2    3    3    0    0  0.11302672299E+02  0.41873657780E+02  0.21591433184E+03  0.23405280790E+03  0.79250013088E+02 0.  0.
          6    2    1    2  501    0 -0.15265025353E+02  0.21276242724E+02  0.15138782027E+03  0.23224167645E+03  0.17416149016E+03 0.  0.
         24    2    5    5    0    0 -0.81219121523E+00  0.71871102748E+02  0.13826759501E+03  0.17780864800E+03  0.85626353483E+02 0.  0.
          5    1    5    5  501    0 -0.14452834137E+02 -0.50594860024E+02  0.13120225259E+02  0.54433028451E+02  0.47000000000E+01 0. -1.
        -11    1    6    6    0    0 -0.68433392790E+01 -0.17420457579E+02  0.44049898704E+02  0.47861228678E+02  0.00000000000E+00 0.  1.
         12    1    6    6    0    0  0.60311480638E+01  0.89291560327E+02  0.94217696302E+02  0.12994741932E+03  0.00000000000E+00 0. -1.
         -5    1    3    3    0  503  0.39623530539E+01 -0.63149900504E+02  0.38557306677E+02  0.74245310112E+02  0.47000000000E+01 0.  1.
         13    1    4    4    0    0 -0.34276914797E+02  0.18455147292E+02  0.10035784258E+03  0.10764383827E+03  0.00000000000E+00 0. -1.
        -14    1    4    4    0    0  0.45579587095E+02  0.23418510487E+02  0.11555648926E+03  0.12640896963E+03  0.00000000000E+00 0.  1.
</event>
<event>
12    1  0.1565987E-001  0.1804993E+03  0.7818608E-02  0.1167898E+00
         21   -1    0    0  501  502  0.00000000000E+00  0.00000000000E+00  0.22352796648E+03  0.22352796648E+03  0.00000000000E+00 0.  1.
         21   -1    0    0  502  503 -0.00000000000E+00 -0.00000000000E+00 -0.16063005875E+03  0.16063005875E+03  0.00000000000E+00 0.  1.
         -6    2    1    2    0  503  0.61929514489E+02 -0.40819859079E+01 -0.30835582397E+02  0.18077179220E+03  0.16696011601E+03 0.  0.
        -24    2    3    3    0    0 -0.12612866902E+02  0.40987297024E+02 -0.20492598752E+02  0.92926051275E+02  0.79851496374E+02 0.  0.
          6    2    1    2  501    0 -0.61929514489E+02  0.40819859079E+01  0.93733490122E+02  0.20338623303E+03  0.16949355516E+03 0.  0.
         24    2    5    5    0    0 -0.48607990770E+02  0.12617721802E+02 -0.14894807108E+02  0.93511218852E+02  0.77463211282E+02 0.  0.
          5    1    5    5  501    0 -0.13321523718E+02 -0.85357358938E+01  0.10862829723E+03  0.10987501418E+03  0.47000000000E+01 0. -1.
        -13    1    6    6    0    0 -0.28383754013E+02  0.24390381913E+02  0.26571530989E+02  0.45897434360E+02  0.00000000000E+00 0.  1.
         14    1    6    6    0    0 -0.20224236757E+02 -0.11772660111E+02 -0.41466338097E+02  0.47613784492E+02  0.00000000000E+00 0. -1.
         -5    1    3    3    0  503  0.74542381390E+02 -0.45069282932E+02 -0.10342983646E+02  0.87845740921E+02  0.47000000000E+01 0.  1.
         11    1    4    4    0    0  0.47315397230E+01  0.70098760303E+01  0.29130961503E+02  0.30333788887E+02  0.00000000000E+00 0. -1.
        -12    1    4    4    0    0 -0.17344406625E+02  0.33977420993E+02 -0.49623560255E+02  0.62592262389E+02  0.00000000000E+00 0.  1.
</event>
<event>
12    1  0.1565987E-001  0.2903094E+03  0.7818608E-02  0.1090396E+00
         21   -1    0    0  501  502  0.00000000000E+00  0.00000000000E+00  0.29337098163E+04  0.29337098163E+04  0.00000000000E+00 0. -1.
         21   -1    0    0  502  503 -0.00000000000E+00 -0.00000000000E+00 -0.32098015898E+02  0.32098015898E+02  0.00000000000E+00 0.  1.
         -6    2    1    2    0  503  0.19338996725E+03  0.12802766194E+03  0.19459805031E+04  0.19675161201E+04  0.17461043135E+03 0.  0.
        -24    2    3    3    0    0  0.51627664790E+02  0.51937967588E+01  0.89007561768E+03  0.89506941938E+03  0.78881360377E+02 0.  0.
          6    2    1    2  501    0 -0.19338996725E+03 -0.12802766194E+03  0.95563129728E+03  0.99829171208E+03  0.17194302665E+03 0.  0.
         24    2    5    5    0    0 -0.13562241821E+03 -0.52990691748E+02  0.37366109738E+03  0.40864856561E+03  0.78546678730E+02 0.  0.
          5    1    5    5  501    0 -0.57767549038E+02 -0.75036970190E+02  0.58197019990E+03  0.58964314648E+03  0.47000000000E+01 0. -1.
        -13    1    6    6    0    0 -0.34566006810E+02 -0.49435568694E+02  0.98585999867E+02  0.11557631093E+03  0.00000000000E+00 0.  1.
         14    1    6    6    0    0 -0.10105641140E+03 -0.35551230545E+01  0.27507509752E+03  0.29307225467E+03  0.00000000000E+00 0. -1.
         -5    1    3    3    0  503  0.14176230246E+03  0.12283386518E+03  0.10559048855E+04  0.10724467008E+04  0.47000000000E+01 0.  1.
         13    1    4    4    0    0  0.62891916127E+02 -0.59725470111E+01  0.41984847218E+03  0.42457485090E+03  0.00000000000E+00 0. -1.
        -14    1    4    4    0    0 -0.11264251336E+02  0.11166343770E+02  0.47022714551E+03  0.47049456847E+03  0.00000000000E+00 0.  1.
</event>
<event>
12    1  0.1565987E-001  0.1999600E+03  0.7818608E-02  0.1149842E+00
         21   -1    0    0  503  502  0.00000000000E+00  0.00000000000E+00  0.71646408289E+03  0.71646408289E+03  0.00000000000E+00 0. -1.
         21   -1    0    0  501  503 -0.00000000000E+00 -0.00000000000E+00 -0.56030660491E+02  0.56030660491E+02  0.00000000000E+00 0. -1.
          6    2    1    2  501    0  0.61281925922E+02  0.82317788200E+02  0.30102401612E+03  0.36120516167E+03  0.17123673039E+03 0.  0.
         24    2    3    3    0    0  0.90677983062E+02  0.80041828862E+02  0.16104432868E+03  0.21807685887E+03  0.83624455712E+02 0.  0.
         -6    2    1    2    0  502 -0.61281925922E+02 -0.82317788200E+02  0.35940940628E+03  0.41128958171E+03  0.17161674163E+03 0.  0.
        -24    2    5    5    0    0 -0.32664766958E+02 -0.10520869374E+03  0.34611760226E+03  0.37202512708E+03  0.80432856150E+02 0.  0.
          5    1    3    3  501    0 -0.29396057141E+02  0.22759593380E+01  0.13997968744E+03  0.14312830280E+03  0.47000000000E+01 0. -1.
        -11    1    4    4    0    0  0.74036559705E+02  0.61988918113E+02  0.16691376191E+03  0.19283216033E+03  0.00000000000E+00 0.  1.
         12    1    4    4    0    0  0.16641423358E+02  0.18052910749E+02 -0.58694332292E+01  0.25244698539E+02  0.00000000000E+00 0. -1.
         -5    1    5    5    0  502 -0.28617158964E+02  0.22890905535E+02  0.13291804015E+02  0.39264454629E+02  0.47000000000E+01 0.  1.
         11    1    6    6    0    0 -0.55315368315E+02 -0.61725191508E+02  0.16875760879E+03  0.18801308402E+03  0.00000000000E+00 0. -1.
        -12    1    6    6    0    0  0.22650601357E+02 -0.43483502227E+02  0.17735999348E+03  0.18401204307E+03  0.00000000000E+00 0.  1.
</event>
<event>
12    1  0.1565987E-001  0.2237835E+03  0.7818608E-02  0.1132054E+00
         21   -1    0    0  501  502  0.00000000000E+00  0.00000000000E+00  0.30944870881E+03  0.30944870881E+03  0.00000000000E+00 0. -1.
         21   -1    0    0  502  503 -0.00000000000E+00 -0.00000000000E+00 -0.15852863019E+03  0.15852863019E+03  0.00000000000E+00 0.  1.
         -6    2    1    2    0  503 -0.91027426529E+02  0.10887161263E+03  0.62282482785E+02  0.22727900038E+03  0.16624564936E+03 0.  0.
        -24    2    3    3    0    0 -0.32438464840E+01  0.77853791703E+02  0.10162078864E+01  0.11572762844E+03  0.85557675772E+02 0.  0.
          6    2    1    2  501    0  0.91027426529E+02 -0.10887161263E+03  0.88637595837E+02  0.24069833862E+03  0.17303192307E+03 0.  0.
         24    2    5    5    0    0  0.94871397038E+02 -0.46828213903E+02  0.46118895957E+00  0.13271070894E+03  0.80115266821E+02 0.  0.
          5    1    5    5  501    0 -0.38439705095E+01 -0.62043398730E+02  0.88176406878E+02  0.10798762969E+03  0.47000000000E+01 0. -1.
        -13    1    6    6    0    0  0.36230411947E+02 -0.17262728424E+01 -0.35236333137E+02  0.50568982002E+02  0.00000000000E+00 0.  1.
         14    1    6    6    0    0  0.58640985091E+02 -0.45101941061E+02  0.35697522097E+02  0.82141726935E+02  0.00000000000E+00 0. -1.
         -5    1    3    3    0  503 -0.87783580045E+02  0.31017820930E+02  0.61266274899E+02  0.11155137194E+03  0.47000000000E+01 0.  1.
         13    1    4    4    0    0 -0.13469257881E+02 -0.14117979000E+02 -0.11020574119E+02  0.22409625004E+02  0.00000000000E+00 0. -1.
        -14    1    4    4    0    0  0.10225411397E+02  0.91971770703E+02  0.12036782005E+02  0.93318003437E+02  0.00000000000E+00 0.  1.
</event>
<event>
12    1  0.1565987E-001  0.2889202E+03  0.7818608E-02  0.1091026E+00
         21   -1    0    0  501  502  0.00000000000E+00  0.00000000000E+00  0.44771870573E+03  0.44771870573E+03  0.00000000000E+00 0.  1.
         21   -1    0    0  502  503 -0.00000000000E+00 -0.00000000000E+00 -0.20169026168E+03  0.20169026168E+03  0.00000000000E+00 0. -1.
         -6    2    1    2    0  503  0.21763333225E+03  0.78220446343E+02  0.31987344811E+02  0.28984187654E+03  0.17176267823E+03 0.  0.
        -24    2    3    3    0    0  0.38745220844E+02  0.58923385024E+02  0.76452841862E+01  0.10821600037E+03  0.81725729880E+02 0.  0.
          6    2    1    2  501    0 -0.21763333225E+03 -0.78220446343E+02  0.21404109924E+03  0.35956709087E+03  0.17318254860E+03 0.  0.
         24    2    5    5    0    0 -0.21967642274E+03 -0.26610764481E+02  0.15897629659E+03  0.28392347930E+03  0.79832422778E+02 0.  0.
          5    1    5    5  501    0  0.20430904870E+01 -0.51609681862E+02  0.55064802652E+02  0.75643611572E+02  0.47000000000E+01 0. -1.
        -11    1    6    6    0    0 -0.11238422191E+03  0.59391634420E+01  0.12171992278E+03  0.16577462592E+03  0.00000000000E+00 0.  1.
         12    1    6    6    0    0 -0.10729220083E+03 -0.32549927923E+02  0.37256373812E+02  0.11814885338E+03  0.00000000000E+00 0. -1.
         -5    1    3    3    0  503  0.17888811141E+03  0.19297061319E+02  0.24342060624E+02  0.18162587617E+03  0.47000000000E+01 0.  1.
         11    1    4    4    0    0 -0.55864259427E+01  0.42920817167E+01 -0.28332540355E+02  0.29195255835E+02  0.00000000000E+00 0. -1.
        -12    1    4    4    0    0  0.44331646787E+02  0.54631303307E+02  0.35977824541E+02  0.79020744533E+02  0.00000000000E+00 0.  1.
</event>
<event>
12    1  0.1565987E-001  0.3199901E+03  0.7818608E-02  0.1075668E+00
         21   -1    0    0  501  502  0.00000000000E+00  0.00000000000E+00  0.76973730400E+02  0.76973730400E+02  0.00000000000E+00 0.  1.
         21   -1    0    0  502  503 -0.00000000000E+00 -0.00000000000E+00 -0.14993143203E+04  0.14993143203E+04  0.00000000000E+00 0.  1.
         -6    2    1    2    0  503  0.57535700842E+02  0.26354133077E+03 -0.97611723161E+03  0.10271897722E+04  0.17189993688E+03 0.  0.
        -24    2    3    3    0    0  0.10226438922E+02  0.58284199984E+02 -0.45344374890E+03  0.46364889917E+03  0.76533915818E+02 0.  0.
          6    2    1    2  501    0 -0.57535700842E+02 -0.26354133077E+03 -0.44622335827E+03  0.54909827851E+03  0.17213147332E+03 0.  0.
         24    2    5    5    0    0 -0.37419326391E+02 -0.28047099577E+03 -0.41036294839E+03  0.50438428658E+03  0.77081604031E+02 0.  0.
          5    1    5    5  501    0 -0.20116374451E+02  0.16929665001E+02 -0.35860409876E+02  0.44713991933E+02  0.47000000000E+01 0. -1.
        -13    1    6    6    0    0  0.64385146469E+01 -0.20836570103E+03 -0.27984139081E+03  0.34895404260E+03  0.00000000000E+00 0.  1.
         14    1    6    6    0    0 -0.43857841038E+02 -0.72105294742E+02 -0.13052155758E+03  0.15543024398E+03  0.00000000000E+00 0. -1.
         -5    1    3    3    0  503  0.47309261921E+02  0.20525713078E+03 -0.52267348271E+03  0.56354087299E+03  0.47000000000E+01 0.  1.
         11    1    4    4    0    0  0.41312303480E+02  0.30150305441E+02 -0.18453478682E+03  0.19149108304E+03  0.00000000000E+00 0. -1.
        -12    1    4    4    0    0 -0.31085864558E+02  0.28133894543E+02 -0.26890896207E+03  0.27215781613E+03  0.00000000000E+00 0.  1.
</event>
<event>
12    1  0.1565987E-001  0.2423650E+03  0.7818608E-02  0.1118378E+00
         21   -1    0    0  501  502  0.00000000000E+00  0.00000000000E+00  0.32075852124E+03  0.32075852124E+03  0.00000000000E+00 0.  1.
         21   -1    0    0  502  503 -0.00000000000E+00 -0.00000000000E+00 -0.49392149299E+03  0.49392149299E+03  0.00000000000E+00 0. -1.
         -6    2    1    2    0  503 -0.14869893003E+03 -0.83291832877E+02 -0.40999785217E+03  0.47581198654E+03  0.17102604051E+03 0.  0.
        -24    2    3    3    0    0 -0.75097896178E+02 -0.48411432116E+01 -0.31040639891E+03  0.32914170851E+03  0.79492145027E+02 0.  0.
          6    2    1    2  501    0  0.14869893003E+03  0.83291832877E+02  0.23683488042E+03  0.33886802769E+03  0.17231331461E+03 0.  0.
         24    2    5    5    0    0  0.11508139539E+03  0.19724016889E+02  0.22547913468E+03  0.26591565401E+03  0.78978037857E+02 0.  0.
          5    1    5    5  501    0  0.33617534642E+02  0.63567815989E+02  0.11355745741E+02  0.72952373685E+02  0.47000000000E+01 0. -1.
        -13    1    6    6    0    0  0.74306661622E+02  0.39183299572E+02  0.19234136926E+03  0.20988571475E+03  0.00000000000E+00 0.  1.
         14    1    6    6    0    0  0.40774733769E+02 -0.19459282684E+02  0.33137765419E+02  0.56029939260E+02  0.00000000000E+00 0. -1.
         -5    1    3    3    0  503 -0.73601033856E+02 -0.78450689665E+02 -0.99591453255E+02  0.14667027802E+03  0.47000000000E+01 0.  1.
         11    1    4    4    0    0 -0.71946583999E+02 -0.30395244934E+02 -0.27131162307E+03  0.28232991105E+03  0.00000000000E+00 0. -1.
        -12    1    4    4    0    0 -0.31513121787E+01  0.25554101723E+02 -0.39094775843E+02  0.46811797460E+02  0.00000000000E+00 0.  1.
</event>
<event>
12    1  0.1565987E-001  0.1775166E+03  0.7818608E-02  0.1170522E+00
         21   -1    0    0  501  502  0.00000000000E+00  0.00000000000E+00  0.11526632268E+04  0.11526632268E+04  0.00000000000E+00 0. -1.
         21   -1    0    0  502  503 -0.00000000000E+00 -0.00000000000E+00 -0.27927688839E+02  0.27927688839E+02  0.00000000000E+00 0. -1.
         -6    2    1    2    0  503  0.36814092498E+02  0.13487503425E+02  0.46240201714E+03  0.49488118620E+03  0.17191443464E+03 0.  0.
        -24    2    3    3    0    0  0.10062197648E+00  0.56612938653E+02  0.39438811988E+03  0.40624901201E+03  0.79317310235E+02 0.  0.
          6    2    1    2  501    0 -0.36814092498E+02 -0.13487503425E+02  0.66233352079E+03  0.68570972942E+03  0.17313275282E+03 0.  0.
         24    2    5    5    0    0 -0.38842870728E+02 -0.52170821855E+02  0.23646004096E+03  0.25805235968E+03  0.80293873405E+02 0.  0.
          5    1    5    5  501    0  0.20287782303E+01  0.38683318429E+02  0.42587347983E+03  0.42765736974E+03  0.47000000000E+01 0. -1.
        -13    1    6    6    0    0 -0.53005529810E+02 -0.46103008824E+02  0.23141001742E+03  0.24183810654E+03  0.00000000000E+00 0.  1.
         14    1    6    6    0    0  0.14162659082E+02 -0.60678130305E+01  0.50500235463E+01  0.16214253145E+02  0.00000000000E+00 0. -1.
         -5    1    3    3    0  503  0.36713470522E+02 -0.43125435228E+02  0.68013897261E+02  0.88632174192E+02  0.47000000000E+01 0.  1.
         13    1    4    4    0    0 -0.29470070742E+02 -0.39003851499E+01  0.13765421657E+03  0.14082748813E+03  0.00000000000E+00 0. -1.
        -14    1    4    4    0    0  0.29570692718E+02  0.60513323803E+02  0.25673390331E+03  0.26542152387E+03  0.00000000000E+00 0.  1.
</event>
<event>
12    1  0.1565987E-001  0.1998145E+03  0.7818608E-02  0.1150358E+00
         21   -1    0    0  503  502  0.00000000000E+00  0.00000000000E+00  0.61697981897E+03  0.61697981897E+03  0.00000000000E+00 0.  1.
         21   -1    0    0  501  503 -0.00000000000E+00 -0.00000000000E+00 -0.64008486678E+02  0.64008486678E+02  0.00000000000E+00 0. -1.
          6    2    1    2  501    0  0.46980269724E+02  0.90493760407E+02  0.27439189084E+03  0.33815841784E+03  0.16930428046E+03 0.  0.
         24    2    3    3    0    0  0.36625186173E+02  0.19752387249E+00  0.20737492239E+03  0.22513628661E+03  0.79627544443E+02 0.  0.
         -6    2    1    2    0  502 -0.46980269724E+02 -0.90493760407E+02  0.27857944145E+03  0.34282988781E+03  0.17184167236E+03 0.  0.
        -24    2    5    5    0    0 -0.51120336591E+02 -0.39322145901E+02  0.62741987746E+02  0.12092096346E+03  0.80782438720E+02 0.  0.
          5    1    3    3  501    0  0.10355083551E+02  0.90296236534E+02  0.67016968449E+02  0.11302213123E+03  0.47000000000E+01 0. -1.
        -11    1    4    4    0    0  0.37790253186E+02  0.35770288757E+02  0.12075241017E+03  0.13148673452E+03  0.00000000000E+00 0.  1.
         12    1    4    4    0    0 -0.11650670121E+01 -0.35572764885E+02  0.86622512223E+02  0.93649552089E+02  0.00000000000E+00 0. -1.
         -5    1    5    5    0  502  0.41400668674E+01 -0.51171614505E+02  0.21583745370E+03  0.22190892435E+03  0.47000000000E+01 0.  1.
         13    1    6    6    0    0  0.18522650881E+02 -0.16636861839E+01 -0.19230059220E+01  0.18696373957E+02  0.00000000000E+00 0. -1.
        -14    1    6    6    0    0 -0.69642987472E+02 -0.37658459718E+02  0.64664993668E+02  0.10222458950E+03  0.00000000000E+00 0.  1.
</event>
<event>
12    1  0.1565987E-001  0.1732552E+03  0.7818608E-02  0.1178286E+00
         21   -1    0    0  501  502  0.00000000000E+00  0.00000000000E+00  0.16091744854E+03  0.16091744854E+03  0.00000000000E+00 0.  1.
         21   -1    0    0  502  503 -0.00000000000E+00 -0.00000000000E+00 -0.27876208969E+03  0.27876208969E+03  0.00000000000E+00 0.  1.
         -6    2    1    2    0  503  0.21889438286E+02 -0.10838327950E+02 -0.19675251587E+03  0.26216200157E+03  0.17152476702E+03 0.  0.
        -24    2    3    3    0    0  0.14800505280E+02  0.60533284463E+02 -0.12156772394E+03  0.15814756522E+03  0.79678148812E+02 0.  0.
          6    2    1    2  501    0 -0.21889438286E+02  0.10838327950E+02  0.78907874715E+02  0.17751753667E+03  0.15712862970E+03 0.  0.
         24    2    5    5    0    0 -0.47893845032E+02 -0.45409785156E+01  0.10300944947E+03  0.13858518324E+03  0.79249387737E+02 0.  0.
          5    1    5    5  501    0  0.26004406746E+02  0.15379306465E+02 -0.24101574753E+02  0.38932353424E+02  0.47000000000E+01 0. -1.
        -13    1    6    6    0    0 -0.19445504076E+02  0.26150914034E+02  0.88472768971E+02  0.94283767335E+02  0.00000000000E+00 0.  1.
         14    1    6    6    0    0 -0.28448340956E+02 -0.30691892550E+02  0.14536680497E+02  0.44301415906E+02  0.00000000000E+00 0. -1.
         -5    1    3    3    0  503  0.70889330054E+01 -0.71371612413E+02 -0.75184791933E+02  0.10401443634E+03  0.47000000000E+01 0.  1.
         11    1    4    4    0    0  0.11972241125E+02  0.24844696410E+02  0.37352021340E+01  0.27830652746E+02  0.00000000000E+00 0. -1.
        -12    1    4    4    0    0  0.28282641550E+01  0.35688588053E+02 -0.12530292607E+03  0.13031691248E+03  0.00000000000E+00 0.  1.
</event>
<event>
12    1  0.1565987E-001  0.2127235E+03  0.7818608E-02  0.1139936E+00
         21   -1    0    0  501  502  0.00000000000E+00  0.00000000000E+00  0.48205399217E+02  0.48205399217E+02  0.00000000000E+00 0. -1.
         21   -1    0    0  502  503 -0.00000000000E+00 -0.00000000000E+00 -0.10864012646E+04  0.10864012646E+04  0.00000000000E+00 0.  1.
         -6    2    1    2    0  503  0.55193999297E+01  0.12375975610E+03 -0.73891594328E+03  0.76892656302E+03  0.17292873411E+03 0.  0.
        -24    2    3    3    0    0  0.19618164810E+02 -0.66198612438E+01 -0.25755894898E+03  0.27000345697E+03  0.78336196119E+02 0.  0.
          6    2    1    2  501    0 -0.55193999297E+01 -0.12375975610E+03 -0.29927992213E+03  0.36568010082E+03  0.16972484598E+03 0.  0.
         24    2    5    5    0    0  0.18566193647E+02 -0.11335822622E+03 -0.30750288937E+03  0.33778718358E+03  0.79670342210E+02 0.  0.
          5    1    5    5  501    0 -0.24085593577E+02 -0.10401529886E+02  0.82229672361E+01  0.27892917239E+02  0.47000000000E+01 0. -1.
        -11    1    6    6    0    0  0.44501244902E+02 -0.89760784496E+02 -0.18525975097E+03  0.21061465894E+03  0.00000000000E+00 0.  1.
         12    1    6    6    0    0 -0.25935051255E+02 -0.23597441721E+02 -0.12224313840E+03  0.12717252464E+03  0.00000000000E+00 0. -1.
         -5    1    3    3    0  503 -0.14098764880E+02  0.13037961735E+03 -0.48135699429E+03  0.49892310604E+03  0.47000000000E+01 0.  1.
         13    1    4    4    0    0  0.47520495235E+02 -0.16520826560E+02 -0.13971405569E+03  0.14849630479E+03  0.00000000000E+00 0. -1.
        -14    1    4    4    0    0 -0.27902330425E+02  0.99009653163E+01 -0.11784489329E+03  0.12150715219E+03  0.00000000000E+00 0.  1.
</event>
<event>
12    1  0.1565987E-001  0.1728362E+03  0.7818608E-02  0.1174960E+00
         21   -1    0    0  503  502  0.00000000000E+00  0.00000000000E+00  0.17067842507E+03  0.17067842507E+03  0.00000000000E+00 0.  1.
         21   -1    0    0  501  503 -0.00000000000E+00 -0.00000000000E+00 -0.48619528472E+03  0.48619528472E+03  0.00000000000E+00 0.  1.
          6    2    1    2  501    0 -0.26937442613E+01  0.16517790979E+02 -0.42060020208E+03  0.45472727309E+03  0.17202403677E+03 0.  0.
         24    2    3    3    0    0 -0.22407167734E+01 -0.11556420259E+02 -0.80173106245E+02  0.11311189851E+03  0.78917697377E+02 0.  0.
         -6    2    1    2    0  502  0.26937442613E+01 -0.16517790979E+02  0.10508334243E+03  0.20214643671E+03  0.17187373081E+03 0.  0.
        -24    2    5    5    0    0  0.60303197164E+02  0.24151500756E+02  0.68648774268E+02  0.12263286484E+03  0.78143424257E+02 0.  0.
          5    1    3    3  501    0 -0.45302748790E+00  0.28074211237E+02 -0.34042709583E+03  0.34161537458E+03  0.47000000000E+01 0. -1.
        -11    1    4    4    0    0 -0.35250973054E+02 -0.94068892174E+01 -0.13902163057E+02  0.39043447641E+02  0.00000000000E+00 0.  1.
         12    1    4    4    0    0  0.33010256281E+02 -0.21495310413E+01 -0.66270943188E+02  0.74068450871E+02  0.00000000000E+00 0. -1.
         -5    1    5    5    0  502 -0.57609452903E+02 -0.40669291734E+02  0.36434568157E+02  0.79513571865E+02  0.47000000000E+01 0.  1.
         13    1    6    6    0    0  0.44547990909E+01 -0.17810260849E+02 -0.70145806230E+01  0.19653370392E+02  0.00000000000E+00 0. -1.
        -14    1    6    6    0    0  0.55848398073E+02  0.41961761605E+02  0.75663354891E+02  0.10297949445E+03  0.00000000000E+00 0.  1.
</event>
<event>
12    1  0.1565987E-001  0.1738778E+03  0.7818608E-02  0.1174607E+00
         21   -1    0    0  501  502  0.00000000000E+00  0.00000000000E+00  0.60902799700E+03  0.60902799700E+03  0.00000000000E+00 0.  1.
         21   -1    0    0  502  503 -0.00000000000E+00 -0.00000000000E+00 -0.53716605929E+02  0.53716605929E+02  0.00000000000E+00 0.  1.
         -6    2    1    2    0  503  0.16429586860E+02  0.80288535676E+01  0.17968014250E+03  0.25003691642E+03  0.17291359735E+03 0.  0.
        -24    2    3    3    0    0 -0.44457399852E+02  0.39137028350E+01  0.16536389646E+03  0.18717830907E+03  0.75489891127E+02 0.  0.
          6    2    1    2  501    0 -0.16429586860E+02 -0.80288535676E+01  0.37563124857E+03  0.41270768651E+03  0.16998354565E+03 0.  0.
         24    2    5    5    0    0  0.47498536294E+02 -0.86538979727E+01  0.13921536145E+03  0.16775512520E+03  0.80186434439E+02 0.  0.
          5    1    5    5  501    0 -0.63928123154E+02  0.62504440514E+00  0.23641588712E+03  0.24495256131E+03  0.47000000000E+01 0. -1.
        -11    1    6    6    0    0 -0.14353278745E+02 -0.59307776862E+01  0.15023748590E+00  0.15531043301E+02  0.00000000000E+00 0.  1.
         12    1    6    6    0    0  0.61851815040E+02 -0.27231202865E+01  0.13906512397E+03  0.15222408190E+03  0.00000000000E+00 0. -1.
         -5    1    3    3    0  503  0.60886986712E+02  0.41151507326E+01  0.14316246040E+02  0.62858607343E+02  0.47000000000E+01 0.  1.
         11    1    4    4    0    0 -0.22404995228E+02  0.39117308273E+02  0.71375264170E+02  0.84419049704E+02  0.00000000000E+00 0. -1.
        -12    1    4    4    0    0 -0.22052404624E+02 -0.35203605438E+02  0.93988632294E+02  0.10275925937E+03  0.00000000000E+00 0.  1.
</event>
<event>
12    1  0.1565987E-001  0.2598769E+03  0.7818608E-02  0.1107285E+00
         21   -1    0    0  501  502  0.00000000000E+00  0.00000000000E+00  0.21882239891E+04  0.21882239891E+04  0.00000000000E+00 0. -1.
         21   -1    0    0  502  503 -0.00000000000E+00 -0.00000000000E+00 -0.43775983797E+02  0.43775983797E+02  0.00000000000E+00 0.  1.
         -6    2    1    2    0  503  0.12808487744E+03 -0.14582511896E+03  0.46420167707E+03  0.53177535616E+03  0.17213695500E+03 0.  0.
        -24    2    3    3    0    0  0.61939886198E+02 -0.23999689882E+01  0.19654802745E+03  0.22095949481E+03  0.79684765798E+02 0.  0.
          6    2    1    2  501    0 -0.12808487744E+03  0.14582511896E+03  0.16802463282E+04  0.17002246167E+04  0.17281586346E+03 0.  0.
         24    2    5    5    0    0 -0.11544190217E+03  0.11943132632E+03  0.85200993474E+03  0.87145800868E+03  0.76989983263E+02 0.  0.
          5    1    5    5  501    0 -0.12642975275E+02  0.26393792636E+02  0.82823639345E+03  0.82876660801E+03  0.47000000000E+01 0. -1.
        -11    1    6    6    0    0 -0.42947075000E+02  0.33410268879E+02  0.13298598822E+03  0.14368705711E+03  0.00000000000E+00 0.  1.
         12    1    6    6    0    0 -0.72494827170E+02  0.86021057442E+02  0.71902394652E+03  0.72777095158E+03  0.00000000000E+00 0. -1.
         -5    1    3    3    0  503  0.66144991246E+02 -0.14342514997E+03  0.26765364962E+03  0.31081586135E+03  0.47000000000E+01 0.  1.
         11    1    4    4    0    0  0.36870062130E+02 -0.26104142730E+02  0.17393863259E+03  0.17970942005E+03  0.00000000000E+00 0. -1.
        -12    1    4    4    0    0  0.25069824069E+02  0.23704173742E+02  0.22609394859E+02  0.41250074758E+02  0.00000000000E+00 0.  1.
</event>
<event>
12    1  0.1565987E-001  0.1828096E+03  0.7818608E-02  0.1165440E+00
         21   -1    0    0  503  502  0.00000000000E+00  0.00000000000E+00  0.13028752212E+03  0.13028752212E+03  0.00000000000E+00 0.  1.
         21   -1    0    0  501  503 -0.00000000000E+00 -0.00000000000E+00 -0.26035064019E+03  0.26035064019E+03  0.00000000000E+00 0.  1.
          6    2    1    2  501    0 -0.29821205073E+02  0.52257520532E+02 -0.93885350369E+02  0.20428320507E+03  0.17116371150E+03 0.  0.
         24    2    3    3    0    0 -0.80174951058E+02  0.62000128118E+02 -0.54693467040E+02  0.13956449173E+03  0.78834214340E+02 0.  0.
         -6    2    1    2    0  502  0.29821205073E+02 -0.52257520532E+02 -0.36177767698E+02  0.18635495725E+03  0.17262440873E+03 0.  0.
        -24    2    5    5    0    0 -0.17894633648E+02 -0.73270281841E+02  0.17520893223E+02  0.11136180031E+03  0.80035721738E+02 0.  0.
          5    1    3    3  501    0  0.50353745985E+02 -0.97426075858E+01 -0.39191883330E+02  0.64718713339E+02  0.47000000000E+01 0. -1.
        -11    1    4    4    0    0 -0.24103565809E+02  0.67538797224E+02 -0.35692728791E+02  0.80102695982E+02  0.00000000000E+00 0.  1.
         12    1    4    4    0    0 -0.56071385249E+02 -0.55386691060E+01 -0.19000738248E+02  0.59461795745E+02  0.00000000000E+00 0. -1.
         -5    1    5    5    0  502  0.47715838721E+02  0.21012761310E+02 -0.53698660921E+02  0.74993156937E+02  0.47000000000E+01 0.  1.
         13    1    6    6    0    0  0.18459712078E+02  0.84330056076E+01  0.32592776231E+00  0.20297359003E+02  0.00000000000E+00 0. -1.
        -14    1    6    6    0    0 -0.36354345726E+02 -0.81703287449E+02  0.17194965461E+02  0.91064441306E+02  0.00000000000E+00 0.  1.
</event>
<event>
12    1  0.1565987E-001  0.2071648E+03  0.7818608E-02  0.1147917E+00
         21   -1    0    0  501  502  0.00000000000E+00  0.00000000000E+00  0.40118150429E+02  0.40118150429E+02  0.00000000000E+00 0.  1.
         21   -1    0    0  502  503 -0.00000000000E+00 -0.00000000000E+00 -0.97823566315E+03  0.97823566315E+03  0.00000000000E+00 0. -1.
         -6    2    1    2    0  503 -0.17837375387E+02 -0.73444023923E+02 -0.48470486526E+03  0.51985577978E+03  0.17204368268E+03 0.  0.
        -24    2    3    3    0    0 -0.52693663578E+01  0.29064144957E+02 -0.20302390365E+03  0.21980222844E+03  0.78878535916E+02 0.  0.
          6    2    1    2  501    0  0.17837375387E+02  0.73444023923E+02 -0.45341264745E+03  0.49849803380E+03  0.19288614314E+03 0.  0.
         24    2    5    5    0    0  0.51125438252E+02  0.25999932634E+02 -0.10020520453E+03  0.14053626955E+03  0.80122113740E+02 0.  0.
          5    1    5    5  501    0 -0.33288062865E+02  0.47444091289E+02 -0.35320744292E+03  0.35796176425E+03  0.47000000000E+01 0. -1.
        -13    1    6    6    0    0 -0.63057750371E+01  0.87459309098E+01  0.10234585893E+02  0.14866097494E+02  0.00000000000E+00 0.  1.
         14    1    6    6    0    0  0.57431213289E+02  0.17254001724E+02 -0.11043979043E+03  0.12567017206E+03  0.00000000000E+00 0. -1.
         -5    1    3    3    0  503 -0.12568009029E+02 -0.10250816888E+03 -0.28168096161E+03  0.30005355134E+03  0.47000000000E+01 0.  1.
         11    1    4    4    0    0 -0.29146033353E+02  0.17744953686E+02 -0.18426218059E+03  0.18739510623E+03  0.00000000000E+00 0. -1.
        -12    1    4    4    0    0  0.23876666995E+02  0.11319191270E+02 -0.18761723062E+02  0.32407122212E+02  0.00000000000E+00 0.  1.
</event>
<event>
12    1  0.1565987E-001  0.1772768E+03  0.7818608E-02  0.1170544E+00
         21   -1    0    0  503  502  0.00000000000E+00  0.00000000000E+00  0.90629977962E+02  0.90629977962E+02  0.00000000000E+00 0. -1.
         21   -1    0    0  501  503 -0.00000000000E+00 -0.00000000000E+00 -0.47317422359E+03  0.47317422359E+03  0.00000000000E+00 0.  1.
          6    2    1    2  501    0  0.25639150093E+02  0.38250587215E+02 -0.33721479312E+03  0.38082382859E+03  0.17085812326E+03 0.  0.
         24    2    3    3    0    0 -0.33275166831E+02  0.58604653321E+02 -0.14426481851E+03  0.17800132627E+03  0.79563761701E+02 0.  0.
         -6    2    1    2    0  502 -0.25639150093E+02 -0.38250587215E+02 -0.45329452509E+02  0.18298037296E+03  0.17119165921E+03 0.  0.
        -24    2    5    5    0    0 -0.51060035783E+02 -0.66397363590E+02  0.30157954590E+01  0.12135395451E+03  0.87760754942E+02 0.  0.
          5    1    3    3  501    0  0.58914316924E+02 -0.20354066106E+02 -0.19294997461E+03  0.20282250233E+03  0.47000000000E+01 0. -1.
        -13    1    4    4    0    0  0.23404354091E+02  0.27648081594E+02 -0.31276203430E+02  0.47857926274E+02  0.00000000000E+00 0.  1.
         14    1    4    4    0    0 -0.56679520922E+02  0.30956571727E+02 -0.11298861508E+03  0.13014339999E+03  0.00000000000E+00 0. -1.
         -5    1    5    5    0  502  0.25420885690E+02  0.28146776375E+02 -0.48345247968E+02  0.61626418448E+02  0.47000000000E+01 0.  1.
         13    1    6    6    0    0 -0.63563145349E+02 -0.23895290186E+02  0.24404101339E+02  0.72158287826E+02  0.00000000000E+00 0. -1.
        -14    1    6    6    0    0  0.12503109566E+02 -0.42502073404E+02 -0.21388305880E+02  0.49195666688E+02  0.00000000000E+00 0.  1.
</event>
<event>
12    1  0.1565987E-001  0.1777218E+03  0.7818608E-02  0.1170153E+00
         21   -1    0    0  501  502  0.00000000000E+00  0.00000000000E+00  0.51238680723E+03  0.51238680723E+03  0.00000000000E+00 0. -1.
         21   -1    0    0  502  503 -0.00000000000E+00 -0.00000000000E+00 -0.63130808673E+02  0.63130808673E+02  0.00000000000E+00 0. -1.
         -6    2    1    2    0  503 -0.58469437242E+01  0.42868133747E+02  0.17756222472E+03  0.25086003386E+03  0.17184454981E+03 0.  0.
        -24    2    3    3    0    0 -0.56633088826E+02  0.54695593101E+02  0.74791710802E+02  0.13552144596E+03  0.81076184263E+02 0.  0.
          6    2    1    2  501    0  0.58469437242E+01 -0.42868133747E+02  0.27169377384E+03  0.32465758205E+03  0.17237510027E+03 0.  0.
         24    2    5    5    0    0  0.45320701715E+01 -0.13960943119E+02  0.28213548690E+03  0.29353726820E+03  0.79675888803E+02 0.  0.
          5    1    5    5  501    0  0.13148735527E+01 -0.28907190628E+02 -0.10441713063E+02  0.31120313850E+02  0.47000000000E+01 0. -1.
        -11    1    6    6    0    0 -0.45955601744E+01 -0.15039094704E+02  0.53669880836E+01  0.16616200045E+02  0.00000000000E+00 0.  1.
         12    1    6    6    0    0  0.91276303459E+01  0.10781515856E+01  0.27676849882E+03  0.27692106815E+03  0.00000000000E+00 0. -1.
         -5    1    3    3    0  503  0.50786145102E+02 -0.11827459354E+02  0.10277051392E+03  0.11533858791E+03  0.47000000000E+01 0.  1.
         13    1    4    4    0    0 -0.36533113659E+02 -0.15720258947E+02  0.25299557514E+02  0.47136636975E+02  0.00000000000E+00 0. -1.
        -14    1    4    4    0    0 -0.20099975168E+02  0.70415852048E+02  0.49492153289E+02  0.88384808980E+02  0.00000000000E+00 0.  1.
</event>
<event>
12    1  0.1565987E-001  0.1757075E+03  0.7818608E-02  0.1172123E+00
         21   -1    0    0  501  502  0.00000000000E+00  0.00000000000E+00  0.16867505909E+04  0.16867505909E+04  0.00000000000E+00 0. -1.
         21   -1    0    0  502  503 -0.00000000000E+00 -0.00000000000E+00 -0.22764544461E+02  0.22764544461E+02  0.00000000000E+00 0. -1.
         -6    2    1    2    0  503  0.83883804274E+01  0.27326327018E+02  0.45260235496E+03  0.48551210267E+03  0.17336671264E+03 0.  0.
        -24    2    3    3    0    0 -0.48050761935E+02 -0.25959484215E+02  0.21246473398E+03  0.23309791631E+03  0.78807390880E+02 0.  0.
          6    2    1    2  501    0 -0.83883804274E+01 -0.27326327018E+02  0.12113836915E+04  0.12240030327E+04  0.17296208536E+03 0.  0.
         24    2    5    5    0    0 -0.59322001381E+02 -0.44725447077E+02  0.57979917343E+03  0.59011183023E+03  0.80903802111E+02 0.  0.
          5    1    5    5  501    0  0.50933620954E+02  0.17399120058E+02  0.63158451803E+03  0.63389120245E+03  0.47000000000E+01 0. -1.
        -13    1    6    6    0    0 -0.27592130317E+02  0.16871306505E+02  0.30507972945E+03  0.30678919140E+03  0.00000000000E+00 0.  1.
         14    1    6    6    0    0 -0.31729871064E+02 -0.61596753581E+02  0.27471944398E+03  0.28332263883E+03  0.00000000000E+00 0. -1.
         -5    1    3    3    0  503  0.56439142363E+02  0.53285811233E+02  0.24013762098E+03  0.25241418637E+03  0.47000000000E+01 0.  1.
         13    1    4    4    0    0  0.62212790929E+01  0.20043879461E+02  0.25328479191E+02  0.32893666192E+02  0.00000000000E+00 0. -1.
        -14    1    4    4    0    0 -0.54272041028E+02 -0.46003363676E+02  0.18713625479E+03  0.20020425011E+03  0.00000000000E+00 0.  1.
</event>
<event>
12    1  0.1565987E-001  0.2095775E+03  0.7818608E-02  0.1142176E+00
         21   -1    0    0  503  502  0.00000000000E+00  0.00000000000E+00  0.96472828555E+03  0.96472828555E+03  0.00000000000E+00 0.  1.
         21   -1    0    0  501  503 -0.00000000000E+00 -0.00000000000E+00 -0.13022465228E+03  0.13022465228E+03  0.00000000000E+00 0.  1.
          6    2    1    2  501    0 -0.44464969791E+02 -0.10843503271E+03 -0.25524459666E+02  0.20975744926E+03  0.17207963163E+03 0.  0.
         24    2    3    3    0    0 -0.20807283038E+02 -0.52860793585E+02  0.52694370624E+02  0.11082081495E+03  0.79229728040E+02 0.  0.
         -6    2    1    2    0  502  0.44464969791E+02  0.10843503271E+03  0.86002809294E+03  0.88519548857E+03  0.17374533800E+03 0.  0.
        -24    2    5    5    0    0 -0.29024861407E+01  0.12571667677E+03  0.74208878175E+03  0.75684400931E+03  0.79397652303E+02 0.  0.
          5    1    3    3  501    0 -0.23657686753E+02 -0.55574239128E+02 -0.78218830290E+02  0.98936634312E+02  0.47000000000E+01 0. -1.
        -13    1    4    4    0    0 -0.14331474062E+02  0.31222172549E+01 -0.16172922930E+02  0.21833525264E+02  0.00000000000E+00 0.  1.
         14    1    4    4    0    0 -0.64758089761E+01 -0.55983010839E+02  0.68867293553E+02  0.88987289688E+02  0.00000000000E+00 0. -1.
         -5    1    5    5    0  502  0.47367455932E+02 -0.17281644055E+02  0.11793931119E+03  0.12835147925E+03  0.47000000000E+01 0.  1.
         11    1    6    6    0    0 -0.11078586238E+02  0.66078427691E+02  0.18968931146E+03  0.20117437352E+03  0.00000000000E+00 0. -1.
        -12    1    6    6    0    0  0.81761000977E+01  0.59638249077E+02  0.55239947029E+03  0.55566963580E+03  0.00000000000E+00 0.  1.
</event>
<event>
12    1  0.1565987E-001  0.1969610E+03  0.7818608E-02  0.1152532E+00
         21   -1    0    0  501  502  0.00000000000E+00  0.00000000000E+00  0.34135531766E+03  0.34135531766E+03  0.00000000000E+00 0. -1.
         21   -1    0    0  502  503 -0.00000000000E+00 -0.00000000000E+00 -0.13532621344E+03  0.13532621344E+03  0.00000000000E+00 0. -1.
         -6    2    1    2    0  503 -0.94098649520E+02  0.59554596904E+01  0.66342642918E+01  0.19707274879E+03  0.17292666513E+03 0.  0.
        -24    2    3    3    0    0 -0.16016139385E+01 -0.26456914747E+02 -0.31940695735E+02  0.91638498433E+02  0.81699895018E+02 0.  0.
          6    2    1    2  501    0  0.94098649520E+02 -0.59554596904E+01  0.19939483993E+03  0.27960878231E+03  0.17185094009E+03 0.  0.
         24    2    5    5    0    0 -0.54778116768E+01 -0.12687198805E+02  0.14258581297E+03  0.16467339402E+03  0.81213553075E+02 0.  0.
          5    1    5    5  501    0  0.99576461197E+02  0.67317391142E+01  0.56809026960E+02  0.11493538828E+03  0.47000000000E+01 0. -1.
        -13    1    6    6    0    0  0.49181011098E+01  0.26330839179E+02  0.10872435041E+03  0.11197537757E+03  0.00000000000E+00 0.  1.
         14    1    6    6    0    0 -0.10395912787E+02 -0.39018037983E+02  0.33861462562E+02  0.52698016448E+02  0.00000000000E+00 0. -1.
         -5    1    3    3    0  503 -0.92497035581E+02  0.32412374437E+02  0.38574960027E+02  0.10543425036E+03  0.47000000000E+01 0.  1.
         13    1    4    4    0    0  0.11528138390E+01 -0.22600451404E+02  0.25447967170E+02  0.34054491870E+02  0.00000000000E+00 0. -1.
        -14    1    4    4    0    0 -0.27544277776E+01 -0.38564633425E+01 -0.57388662905E+02  0.57584006564E+02  0.00000000000E+00 0.  1.
</event>
<event>
12    1  0.1565987E-001  0.2947482E+03  0.7818608E-02  0.1088030E+00
         21   -1    0    0  503  502  0.00000000000E+00  0.00000000000E+00  0.67420257412E+03  0.67420257412E+03  0.00000000000E+00 0.  1.
         21   -1    0    0  501  503 -0.00000000000E+00 -0.00000000000E+00 -0.12984638643E+03  0.12984638643E+03  0.00000000000E+00 0.  1.
          6    2    1    2  501    0 -0.14624876936E+03 -0.18518466538E+03  0.31413714009E+03  0.43004718651E+03  0.17486102199E+03 0.  0.
         24    2    3    3    0    0 -0.52832977360E+02 -0.94030007367E+02  0.71169854024E+02  0.15420144344E+03  0.84142565058E+02 0.  0.
         -6    2    1    2    0  502  0.14624876936E+03  0.18518466538E+03  0.23021904760E+03  0.37400177403E+03  0.17661951837E+03 0.  0.
        -24    2    5    5    0    0  0.15735175317E+03  0.93672024901E+02  0.13309147660E+03  0.24001037630E+03  0.79734666947E+02 0.  0.
          5    1    3    3  501    0 -0.93415792003E+02 -0.91154658017E+02  0.24296728607E+03  0.27584574307E+03  0.47000000000E+01 0. -1.
        -11    1    4    4    0    0 -0.70046544316E+02 -0.66025575761E+02  0.73698276289E+02  0.12123254907E+03  0.00000000000E+00 0.  1.
         12    1    4    4    0    0  0.17213566956E+02 -0.28004431606E+02 -0.25284222651E+01  0.32968894371E+02  0.00000000000E+00 0. -1.
         -5    1    5    5    0  502 -0.11102983811E+02  0.91512640483E+02  0.97127571004E+02  0.13399139773E+03  0.47000000000E+01 0.  1.
         11    1    6    6    0    0 -0.30857226902E+01 -0.62567989342E+01 -0.24803159966E+01  0.74041329584E+01  0.00000000000E+00 0. -1.
        -12    1    6    6    0    0  0.16043747586E+03  0.99928823835E+02  0.13557179259E+03  0.23260624334E+03  0.00000000000E+00 0.  1.
</event>
<event>
12    1  0.1565987E-001  0.1762319E+03  0.7818608E-02  0.1171727E+00
         21   -1    0    0  503  502  0.00000000000E+00  0.00000000000E+00  0.42376238525E+02  0.42376238525E+02  0.00000000000E+00 0.  1.
         21   -1    0    0  501  503 -0.00000000000E+00 -0.00000000000E+00 -0.86460851921E+03  0.86460851921E+03  0.00000000000E+00 0.  1.
          6    2    1    2  501    0 -0.31038718739E+02 -0.19888270857E+02 -0.58973249470E+03  0.61524202528E+03  0.17140416852E+03 0.  0.
         24    2    3    3    0    0 -0.57698646698E+02  0.22365242600E+02 -0.50693041208E+03  0.51842061213E+03  0.89174830985E+02 0.  0.
         -6    2    1    2    0  502  0.31038718739E+02  0.19888270857E+02 -0.23249978599E+03  0.29174273246E+03  0.17233318334E+03 0.  0.
        -24    2    5    5    0    0  0.61332842746E+02  0.32248163766E+02 -0.23573491356E+03  0.25853043123E+03  0.80407541533E+02 0.  0.
          5    1    3    3  501    0  0.26659927959E+02 -0.42253513458E+02 -0.82802082621E+02  0.96821413151E+02  0.47000000000E+01 0. -1.
        -11    1    4    4    0    0 -0.36599506673E+02 -0.30268344642E+02 -0.30514687150E+03  0.30882083764E+03  0.00000000000E+00 0.  1.
         12    1    4    4    0    0 -0.21099140025E+02  0.52633587242E+02 -0.20178354058E+03  0.20959977449E+03  0.00000000000E+00 0. -1.
         -5    1    5    5    0  502 -0.30294124007E+02 -0.12359892909E+02  0.32351275777E+01  0.33212301223E+02  0.47000000000E+01 0.  1.
         13    1    6    6    0    0 -0.19241827647E+02  0.38530145872E+00 -0.50117323879E+02  0.53685589698E+02  0.00000000000E+00 0. -1.
        -14    1    6    6    0    0  0.80574670394E+02  0.31862862308E+02 -0.18561758968E+03  0.20484484154E+03  0.00000000000E+00 0.  1.
</event>
<event>
12    1  0.1565987E-001  0.2279826E+03  0.7818608E-02  0.1128278E+00
         21   -1    0    0  503  502  0.00000000000E+00  0.00000000000E+00  0.21352507704E+03  0.21352507704E+03  0.00000000000E+00 0. -1.
         21   -1    0    0  501  503 -0.00000000000E+00 -0.00000000000E+00 -0.25276598817E+03  0.25276598817E+03  0.00000000000E+00 0.  1.
          6    2    1    2  501    0  0.40272677123E+02 -0.14155153763E+03  0.28182137977E+02  0.22854760926E+03  0.17257187045E+03 0.  0.
         24    2    3    3    0    0  0.93961865263E+00 -0.14002726145E+02  0.17471987489E+02  0.94560348216E+02  0.91866369718E+02 0.  0.
         -6    2    1    2    0  502 -0.40272677123E+02  0.14155153763E+03 -0.67423049105E+02  0.23774345595E+03  0.17411880130E+03 0.  0.
        -24    2    5    5    0    0 -0.79264143929E+02  0.98730726540E+02 -0.90426269663E+02  0.17525190050E+03  0.80658276129E+02 0.  0.
          5    1    3    3  501    0  0.39333058470E+02 -0.12754881148E+03  0.10710150489E+02  0.13398726105E+03  0.47000000000E+01 0. -1.
        -11    1    4    4    0    0  0.24351002510E+02  0.20614937113E+02  0.36639132435E+02  0.48583669900E+02  0.00000000000E+00 0.  1.
         12    1    4    4    0    0 -0.23411383857E+02 -0.34617663258E+02 -0.19167144946E+02  0.45976678316E+02  0.00000000000E+00 0. -1.
         -5    1    5    5    0  502  0.38991466806E+02  0.42820811088E+02  0.23003220558E+02  0.62491555446E+02  0.47000000000E+01 0.  1.
         11    1    6    6    0    0 -0.27158868629E+02  0.42809011714E+02  0.72620640281E+01  0.51214775242E+02  0.00000000000E+00 0. -1.
        -12    1    6    6    0    0 -0.52105275300E+02  0.55921714827E+02 -0.97688333691E+02  0.12403712526E+03  0.00000000000E+00 0.  1.
</event>
<event>
12    1  0.1565987E-001  0.1973929E+03  0.7818608E-02  0.1152261E+00
         21   -1    0    0  501  502  0.00000000000E+00  0.00000000000E+00  0.11075076410E+03  0.11075076410E+03  0.00000000000E+00 0. -1.
         21   -1    0    0  502  503 -0.00000000000E+00 -0.00000000000E+00 -0.37573180755E+03  0.37573180755E+03  0.00000000000E+00 0. -1.
         -6    2    1    2    0  503  0.30833720357E+02  0.95047461034E+02 -0.19743619537E+03  0.27918629795E+03  0.17023278052E+03 0.  0.
        -24    2    3    3    0    0  0.18924088548E+02  0.13193612405E+03 -0.17065414898E+03  0.23183673831E+03  0.82826159581E+02 0.  0.
          6    2    1    2  501    0 -0.30833720357E+02 -0.95047461034E+02 -0.67544848075E+02  0.20729627370E+03  0.16859626457E+03 0.  0.
         24    2    5    5    0    0 -0.49230436845E+01 -0.11204285052E+03 -0.96437004231E+02  0.16466936768E+03  0.72374499349E+02 0.  0.
          5    1    5    5  501    0 -0.25910676672E+02  0.16995389484E+02  0.28892156156E+02  0.42626906018E+02  0.47000000000E+01 0. -1.
        -11    1    6    6    0    0  0.19052091195E+01 -0.60177600832E+02 -0.94834109056E+02  0.11233201549E+03  0.00000000000E+00 0.  1.
         12    1    6    6    0    0 -0.68282528040E+01 -0.51865249686E+02 -0.16028951751E+01  0.52337352191E+02  0.00000000000E+00 0. -1.
         -5    1    3    3    0  503  0.11909631809E+02 -0.36888663019E+02 -0.26782046393E+02  0.47349559641E+02  0.47000000000E+01 0.  1.
         13    1    4    4    0    0 -0.24401223903E+02  0.97187706644E+02 -0.12304525329E+03  0.15868523689E+03  0.00000000000E+00 0. -1.
        -14    1    4    4    0    0  0.43325312451E+02  0.34748417410E+02 -0.47608895685E+02  0.73151501418E+02  0.00000000000E+00 0.  1.
</event>
<event>
12    1  0.1565987E-001  0.2736567E+03  0.7818608E-02  0.1101286E+00
         21   -1    0    0  501  502  0.00000000000E+00  0.00000000000E+00  0.22177293867E+04  0.22177293867E+04  0.00000000000E+00 0.  1.
         21   -1    0    0  502  503 -0.00000000000E+00 -0.00000000000E+00 -0.32018180141E+02  0.32018180141E+02  0.00000000000E+00 0. -1.
         -6    2    1    2    0  503 -0.17365687385E+03 -0.85450490839E+02  0.11293567976E+04  0.11620390608E+04  0.19346706746E+03 0.  0.
        -24    2    3    3    0    0 -0.62214083831E+02  0.33032983767E+02  0.35860017710E+03  0.37429183780E+03  0.80861131509E+02 0.  0.
          6    2    1    2  501    0  0.17365687385E+03  0.85450490839E+02  0.10563544089E+04  0.10877085061E+04  0.17253017327E+03 0.  0.
         24    2    5    5    0    0  0.19784077516E+03  0.76939953520E+02  0.85530278618E+03  0.88497435666E+03  0.81092706990E+02 0.  0.
          5    1    5    5  501    0 -0.24183901308E+02  0.85105373186E+01  0.20105162276E+03  0.20273414943E+03  0.47000000000E+01 0. -1.
        -11    1    6    6    0    0  0.14255540304E+03  0.62791219794E+02  0.74125690437E+03  0.75744740972E+03  0.00000000000E+00 0.  1.
         12    1    6    6    0    0  0.55285372118E+02  0.14148733726E+02  0.11404588182E+03  0.12752694694E+03  0.00000000000E+00 0. -1.
         -5    1    3    3    0  503 -0.11144279002E+03 -0.11848347461E+03  0.77075662053E+03  0.78774722297E+03  0.47000000000E+01 0.  1.
         13    1    4    4    0    0 -0.76487287747E+02  0.25322170259E+02  0.21195303690E+03  0.22675009889E+03  0.00000000000E+00 0. -1.
        -14    1    4    4    0    0  0.14273203916E+02  0.77108135081E+01  0.14664714020E+03  0.14754173892E+03  0.00000000000E+00 0.  1.
</event>
<event>
12    1  0.1565987E-001  0.2126539E+03  0.7818608E-02  0.1140393E+00
         21   -1    0    0  503  502  0.00000000000E+00  0.00000000000E+00  0.12247551482E+03  0.12247551482E+03  0.00000000000E+00 0. -1.
         21   -1    0    0  501  503 -0.00000000000E+00 -0.00000000000E+00 -0.36230399786E+03  0.36230399786E+03  0.00000000000E+00 0. -1.
          6    2    1    2  501    0 -0.10484090389E+03  0.68748269737E+02 -0.13171672326E+03  0.24622168842E+03  0.16600567744E+03 0.  0.
         24    2    3    3    0    0 -0.70166219521E+02 -0.12678564611E+02 -0.11753613564E+03  0.15646734506E+03  0.74721098265E+02 0.  0.
         -6    2    1    2    0  502  0.10484090389E+03 -0.68748269737E+02 -0.10811175978E+03  0.23855782425E+03  0.17176653687E+03 0.  0.
        -24    2    5    5    0    0  0.73597039003E+01 -0.47553346281E+02 -0.97455088638E+00  0.92091853253E+02  0.78514162430E+02 0.  0.
          5    1    3    3  501    0 -0.34674684368E+02  0.81426834348E+02 -0.14180587627E+02  0.89754343368E+02  0.47000000000E+01 0. -1.
        -13    1    4    4    0    0 -0.29981332866E+02 -0.15273381384E+02 -0.11060097814E+03  0.11560593785E+03  0.00000000000E+00 0.  1.
         14    1    4    4    0    0 -0.40184886656E+02  0.25948167728E+01 -0.69351574933E+01  0.40861407209E+02  0.00000000000E+00 0. -1.
         -5    1    5    5    0  502  0.97481199990E+02 -0.21194923456E+02 -0.10713720889E+03  0.14646597100E+03  0.47000000000E+01 0.  1.
         11    1    6    6    0    0 -0.19713531752E+02 -0.59353545925E+02 -0.13518806721E+01  0.62556329251E+02  0.00000000000E+00 0. -1.
        -12    1    6    6    0    0  0.27073235652E+02  0.11800199643E+02  0.37732978568E+00  0.29535524002E+02  0.00000000000E+00 0.  1.
</event>
<event>
12    1  0.1565987E-001  0.1765959E+03  0.7818608E-02  0.1171312E+00
         21   -1    0    0  503  502  0.00000000000E+00  0.00000000000E+00  0.32672361856E+02  0.32672361856E+02  0.00000000000E+00 0.  1.
         21   -1    0    0  501  503 -0.00000000000E+00 -0.00000000000E+00 -0.10809644317E+04  0.10809644317E+04  0.00000000000E+00 0.  1.
          6    2    1    2  501    0 -0.40876882041E+02  0.95502804784E-01 -0.71648936157E+03  0.73776560066E+03  0.17108520585E+03 0.  0.
         24    2    3    3    0    0 -0.82396648247E+02  0.30388292039E+02 -0.40506927053E+03  0.42209788427E+03  0.79830157471E+02 0.  0.
         -6    2    1    2    0  502  0.40876882041E+02 -0.95502804784E-01 -0.33180270832E+03  0.37587119295E+03  0.17179984817E+03 0.  0.
        -24    2    5    5    0    0 -0.19374602499E+01  0.31245368508E+00 -0.31998873896E+03  0.33120695438E+03  0.85448242776E+02 0.  0.
          5    1    3    3  501    0  0.41519766206E+02 -0.30292789234E+02 -0.31142009104E+03  0.31566771639E+03  0.47000000000E+01 0. -1.
        -13    1    4    4    0    0 -0.15262735188E+02  0.43794116826E+02 -0.21843089972E+03  0.22330009786E+03  0.00000000000E+00 0.  1.
         14    1    4    4    0    0 -0.67133913059E+02 -0.13405824787E+02 -0.18663837082E+03  0.19879778641E+03  0.00000000000E+00 0. -1.
         -5    1    5    5    0  502  0.42814342291E+02 -0.40795648986E+00 -0.11813969365E+02  0.44664238563E+02  0.47000000000E+01 0.  1.
         13    1    6    6    0    0  0.21657258366E+02 -0.34625831781E+02 -0.11807352762E+03  0.12493735627E+03  0.00000000000E+00 0. -1.
        -14    1    6    6    0    0 -0.23594718616E+02  0.34938285466E+02 -0.20191521134E+03  0.20626959811E+03  0.00000000000E+00 0.  1.
</event>
<event>
12    1  0.1565987E-001  0.2409910E+03  0.7818608E-02  0.1119143E+00
         21   -1    0    0  501  502  0.00000000000E+00  0.00000000000E+00  0.27078962621E+03  0.27078962621E+03  0.00000000000E+00 0. -1.
         21   -1    0    0  502  503 -0.00000000000E+00 -0.00000000000E+00 -0.24378218512E+03  0.24378218512E+03  0.00000000000E+00 0. -1.
         -6    2    1    2    0  503  0.79841334637E+02 -0.14788162086E+03 -0.75775639651E+02  0.25262349407E+03  0.17272252224E+03 0.  0.
        -24    2    3    3    0    0 -0.26994435308E+02 -0.82786836772E+02 -0.31847336378E+02  0.11994720198E+03  0.76096770943E+02 0.  0.
          6    2    1    2  501    0 -0.79841334637E+02  0.14788162086E+03  0.10278308074E+03  0.26194831725E+03  0.17265267655E+03 0.  0.
         24    2    5    5    0    0  0.48670169138E+01  0.14445510266E+02  0.41939355077E+02  0.92523557006E+02  0.81051455732E+02 0.  0.
          5    1    5    5  501    0 -0.84708351551E+02  0.13343611059E+03  0.60843725662E+02  0.16942476025E+03  0.47000000000E+01 0. -1.
        -11    1    6    6    0    0 -0.37909094488E+02  0.41446376398E+01  0.23661466346E+02  0.44879198474E+02  0.00000000000E+00 0.  1.
         12    1    6    6    0    0  0.42776111401E+02  0.10300872626E+02  0.18277888731E+02  0.47644358532E+02  0.00000000000E+00 0. -1.
         -5    1    3    3    0  503  0.10683576994E+03 -0.65094784085E+02 -0.43928303273E+02  0.13267629209E+03  0.47000000000E+01 0.  1.
         11    1    4    4    0    0 -0.34794197921E+02 -0.80533169119E+02 -0.49347925606E+02  0.10065508084E+03  0.00000000000E+00 0. -1.
        -12    1    4    4    0    0  0.77997626136E+01 -0.22536676528E+01  0.17500589228E+02  0.19292121139E+02  0.00000000000E+00 0.  1.
</event>
<event>
12    1  0.1565987E-001  0.2200022E+03  0.7818608E-02  0.1134344E+00
         21   -1    0    0  501  502  0.00000000000E+00  0.00000000000E+00  0.27360377017E+03  0.27360377017E+03  0.00000000000E+00 0. -1.
         21   -1    0    0  502  503 -0.00000000000E+00 -0.00000000000E+00 -0.34849164766E+03  0.34849164766E+03  0.00000000000E+00 0. -1.
         -6    2    1    2    0  503 -0.13324657714E+03 -0.11267364568E+02 -0.25685160018E+03  0.33659276778E+03  0.17158188419E+03 0.  0.
        -24    2    3    3    0    0 -0.86674521072E+02 -0.72876327955E+02 -0.15910763471E+03  0.21193085074E+03  0.82316549312E+02 0.  0.
          6    2    1    2  501    0  0.13324657714E+03  0.11267364568E+02  0.18196372269E+03  0.28550265005E+03  0.17469791924E+03 0.  0.
         24    2    5    5    0    0  0.16368942658E+02 -0.13678787940E+02  0.13267063071E+03  0.15614040330E+03  0.79519040280E+02 0.  0.
          5    1    5    5  501    0  0.11687763448E+03  0.24946152508E+02  0.49293091981E+02  0.12936224675E+03  0.47000000000E+01 0. -1.
        -11    1    6    6    0    0 -0.32102426672E+01 -0.37406027004E+02  0.11430501410E+03  0.12031272901E+03  0.00000000000E+00 0.  1.
         12    1    6    6    0    0  0.19579185325E+02  0.23727239064E+02  0.18365616615E+02  0.35827674293E+02  0.00000000000E+00 0. -1.
         -5    1    3    3    0  503 -0.46572056067E+02  0.61608963387E+02 -0.97743965470E+02  0.12466191705E+03  0.47000000000E+01 0.  1.
         13    1    4    4    0    0 -0.53722042849E+02  0.13954547098E+01 -0.92008644033E+02  0.10655325316E+03  0.00000000000E+00 0. -1.
        -14    1    4    4    0    0 -0.32952478223E+02 -0.74271782664E+02 -0.67098990681E+02  0.10537759758E+03  0.00000000000E+00 0.  1.
</event>
<event>
12    1  0.1565987E-001  0.1878933E+03  0.7818608E-02  0.1161286E+00
         21   -1    0    0  501  502  0.00000000000E+00  0.00000000000E+00  0.51506379772E+02  0.51506379772E+02  0.00000000000E+00 0.  1.
         21   -1    0    0  502  503 -0.00000000000E+00 -0.00000000000E+00 -0.78771922381E+03  0.78771922381E+03  0.00000000000E+00 0. -1.
         -6    2    1    2    0  503 -0.71287305711E+02  0.24894847248E+02 -0.53283554555E+03  0.56499345688E+03  0.17205305676E+03 0.  0.
        -24    2    3    3    0    0 -0.62645127908E+02  0.73635827650E+02 -0.45986552867E+03  0.47669235965E+03  0.80079049255E+02 0.  0.
          6    2    1    2  501    0  0.71287305711E+02 -0.24894847248E+02 -0.20337729849E+03  0.27423214670E+03  0.16774776115E+03 0.  0.
         24    2    5    5    0    0  0.66590759078E+02 -0.20981683282E+02 -0.44386354235E+02  0.11505431924E+03  0.79954910447E+02 0.  0.
          5    1    5    5  501    0  0.46965466331E+01 -0.39131639664E+01 -0.15899094425E+03  0.15917782747E+03  0.47000000000E+01 0. -1.
        -11    1    6    6    0    0  0.39603205021E+02 -0.51317007590E+02 -0.33751264140E+02  0.73082124675E+02  0.00000000000E+00 0.  1.
         12    1    6    6    0    0  0.26987554057E+02  0.30335324309E+02 -0.10635090096E+02  0.41972194561E+02  0.00000000000E+00 0. -1.
         -5    1    3    3    0  503 -0.86421778035E+01 -0.48740980402E+02 -0.72970016881E+02  0.88301097226E+02  0.47000000000E+01 0.  1.
         13    1    4    4    0    0  0.10715582343E+02  0.25546971501E+02 -0.46538029570E+02  0.54159575830E+02  0.00000000000E+00 0. -1.
        -14    1    4    4    0    0 -0.73360710251E+02  0.48088856149E+02 -0.41332749910E+03  0.42253278382E+03  0.00000000000E+00 0.  1.
</event>
<event>
12    1  0.1565987E-001  0.1934919E+03  0.7818608E-02  0.1155635E+00
         21   -1    0    0  503  502  0.00000000000E+00  0.00000000000E+00  0.14516734716E+03  0.14516734716E+03  0.00000000000E+00 0. -1.
         21   -1    0    0  501  503 -0.00000000000E+00 -0.00000000000E+00 -0.96092371640E+03  0.96092371640E+03  0.00000000000E+00 0. -1.
          6    2    1    2  501    0  0.12846047153E+02  0.87154664214E+02 -0.88186467407E+03  0.90284241218E+03  0.17227350765E+03 0.  0.
         24    2    3    3    0    0  0.55791253823E+01  0.75400049816E+02 -0.29219400410E+03  0.31299110199E+03  0.82884255080E+02 0.  0.
         -6    2    1    2    0  502 -0.12846047153E+02 -0.87154664214E+02  0.66108304820E+02  0.20324865138E+03  0.17081788519E+03 0.  0.
        -24    2    5    5    0    0 -0.32000151024E+01 -0.11856926445E+03  0.82977083673E+02  0.16601199280E+03  0.81276532709E+02 0.  0.
          5    1    3    3  501    0  0.72669217708E+01  0.11754614398E+02 -0.58967066996E+03  0.58985131019E+03  0.47000000000E+01 0. -1.
        -13    1    4    4    0    0  0.21397801789E+02  0.34118009217E+02 -0.24514370964E+03  0.24842975436E+03  0.00000000000E+00 0.  1.
         14    1    4    4    0    0 -0.15818676407E+02  0.41282040599E+02 -0.47050294463E+02  0.64561347634E+02  0.00000000000E+00 0. -1.
         -5    1    5    5    0  502 -0.96460320507E+01  0.31414600239E+02 -0.16868778852E+02  0.37236658584E+02  0.47000000000E+01 0.  1.
         11    1    6    6    0    0 -0.10211692669E+02 -0.27698703894E+02  0.67357319950E+02  0.73542541535E+02  0.00000000000E+00 0. -1.
        -12    1    6    6    0    0  0.70116775670E+01 -0.90870560559E+02  0.15619763723E+02  0.92469451265E+02  0.00000000000E+00 0.  1.
</event>
<event>
12    1  0.1565987E-001  0.1779595E+03  0.7818608E-02  0.1170229E+00
         21   -1    0    0  501  502  0.00000000000E+00  0.00000000000E+00  0.85475329502E+03  0.85475329502E+03  0.00000000000E+00 0. -1.
         21   -1    0    0  502  503 -0.00000000000E+00 -0.00000000000E+00 -0.45049211615E+02  0.45049211615E+02  0.00000000000E+00 0. -1.
         -6    2    1    2    0  503  0.29370689746E+02 -0.33362717523E+02  0.20933976481E+03  0.27361809731E+03  0.17049345356E+03 0.  0.
        -24    2    3    3    0    0  0.75628270138E+02 -0.20889133959E+02  0.19257181131E+03  0.22264155079E+03  0.79557315584E+02 0.  0.
          6    2    1    2  501    0 -0.29370689746E+02  0.33362717523E+02  0.60036431860E+03  0.62618440933E+03  0.17231915478E+03 0.  0.
         24    2    5    5    0    0 -0.82309033178E+02  0.16173071122E+02  0.47372467525E+03  0.48777327749E+03  0.80444745785E+02 0.  0.
          5    1    5    5  501    0  0.52938343431E+02  0.17189646401E+02  0.12663964335E+03  0.13841113184E+03  0.47000000000E+01 0. -1.
        -11    1    6    6    0    0  0.15277337064E+02  0.10061647261E+02  0.84184417744E+02  0.86148998626E+02  0.00000000000E+00 0.  1.
         12    1    6    6    0    0 -0.97586370241E+02  0.61114238607E+01  0.38954025751E+03  0.40162427887E+03  0.00000000000E+00 0. -1.
         -5    1    3    3    0  503 -0.46257580391E+02 -0.12473583564E+02  0.16767953494E+02  0.50976546519E+02  0.47000000000E+01 0.  1.
         11    1    4    4    0    0 -0.24293628825E+01 -0.32650004755E+02  0.53204396263E+02  0.62471052466E+02  0.00000000000E+00 0. -1.
        -12    1    4    4    0    0  0.78057633020E+02  0.11760870797E+02  0.13936741505E+03  0.16017049832E+03  0.00000000000E+00 0.  1.
</event>
<event>
12    1  0.1565987E-001  0.1972843E+03  0.7818608E-02  0.1152652E+00
         21   -1    0    0  501  502  0.00000000000E+00  0.00000000000E+00  0.33538770243E+02  0.33538770243E+02  0.00000000000E+00 0.  1.
         21   -1    0    0  502  503 -0.00000000000E+00 -0.00000000000E+00 -0.17044954126E+04  0.17044954126E+04  0.00000000000E+00 0. -1.
         -6    2    1    2    0  503  0.91610205077E+02  0.90449123884E+01 -0.34122082685E+03  0.39414812083E+03  0.17449025292E+03 0.  0.
        -24    2    3    3    0    0 -0.42226474143E+01  0.34873242552E+02 -0.22677411173E+03  0.24258566223E+03  0.78659595543E+02 0.  0.
          6    2    1    2  501    0 -0.91610205077E+02 -0.90449123884E+01 -0.13297358155E+04  0.13438860620E+04  0.17134225547E+03 0.  0.
         24    2    5    5    0    0 -0.22082409370E+02  0.48939833842E+02 -0.69857058656E+03  0.70624354351E+03  0.88861342542E+02 0.  0.
          5    1    5    5  501    0 -0.69527795707E+02 -0.57984746231E+02 -0.63116522890E+03  0.63764251846E+03  0.47000000000E+01 0. -1.
        -13    1    6    6    0    0 -0.55519477196E+02  0.41157967169E+02 -0.49431761711E+03  0.49912553250E+03  0.00000000000E+00 0.  1.
         14    1    6    6    0    0  0.33437067826E+02  0.77818666737E+01 -0.20425296945E+03  0.20711801101E+03  0.00000000000E+00 0. -1.
         -5    1    3    3    0  503  0.95832852492E+02 -0.25828330164E+02 -0.11444671512E+03  0.15156245860E+03  0.47000000000E+01 0.  1.
         11    1    4    4    0    0 -0.17889982534E+02 -0.54207346709E+01 -0.17303391370E+03  0.17404071687E+03  0.00000000000E+00 0. -1.
        -12    1    4    4    0    0  0.13667335120E+02  0.40293977223E+02 -0.53740198037E+02  0.68544945363E+02  0.00000000000E+00 0.  1.
</event>
<event>
12    1  0.1565987E-001  0.1866111E+03  0.7818608E-02  0.1162216E+00
         21   -1    0    0  501  502  0.00000000000E+00  0.00000000000E+00  0.23534846957E+03  0.23534846957E+03  0.00000000000E+00 0.  1.
         21   -1    0    0  502  503 -0.00000000000E+00 -0.00000000000E+00 -0.14757338806E+03  0.14757338806E+03  0.00000000000E+00 0.  1.
         -6    2    1    2    0  503  0.65825936929E+02 -0.11885882520E+02  0.22100698385E+02  0.18509153610E+03  0.17116105776E+03 0.  0.
        -24    2    3    3    0    0  0.82320172857E+02  0.34907467881E+02  0.51892708773E+02  0.12702836926E+03  0.73811999028E+02 0.  0.
          6    2    1    2  501    0 -0.65825936929E+02  0.11885882520E+02  0.65674383122E+02  0.19783032153E+03  0.17421074405E+03 0.  0.
         24    2    5    5    0    0 -0.69679632817E+01  0.53070413625E+02 -0.58333922188E+01  0.96361712597E+02  0.79915767376E+02 0.  0.
          5    1    5    5  501    0 -0.58857973648E+02 -0.41184531105E+02  0.71507775340E+02  0.10146860893E+03  0.47000000000E+01 0. -1.
        -11    1    6    6    0    0 -0.39467096411E+02  0.41239215410E+02  0.10620858051E+02  0.58061408978E+02  0.00000000000E+00 0.  1.
         12    1    6    6    0    0  0.32499133130E+02  0.11831198215E+02 -0.16454250270E+02  0.38300303619E+02  0.00000000000E+00 0. -1.
         -5    1    3    3    0  503 -0.16494235927E+02 -0.46793350401E+02 -0.29792010389E+02  0.58063166841E+02  0.47000000000E+01 0.  1.
         11    1    4    4    0    0  0.26764488126E+02  0.24181321945E+02  0.59860803653E+02  0.69888410840E+02  0.00000000000E+00 0. -1.
        -12    1    4    4    0    0  0.55555684730E+02  0.10726145937E+02 -0.79680948802E+01  0.57139958422E+02  0.00000000000E+00 0.  1.
</event>
<event>
12    1  0.1565987E-001  0.1775549E+03  0.7818608E-02  0.1170437E+00
         21   -1    0    0  501  502  0.00000000000E+00  0.00000000000E+00  0.68187885161E+02  0.68187885161E+02  0.00000000000E+00 0.  1.
         21   -1    0    0  502  503 -0.00000000000E+00 -0.00000000000E+00 -0.46301966473E+03  0.46301966473E+03  0.00000000000E+00 0.  1.
         -6    2    1    2    0  503 -0.52927765213E+00 -0.38523891655E+02 -0.21920688116E+03  0.28146797523E+03  0.17230262323E+03 0.  0.
        -24    2    3    3    0    0 -0.75238047497E+01 -0.58588706821E+02 -0.55157400111E+02  0.11598129163E+03  0.83187000288E+02 0.  0.
          6    2    1    2  501    0  0.52927765213E+00  0.38523891655E+02 -0.17562489841E+03  0.24973957466E+03  0.17332449292E+03 0.  0.
         24    2    5    5    0    0 -0.57170929085E+02  0.60703548257E+02 -0.10662575521E+03  0.15698062475E+03  0.79501125598E+02 0.  0.
          5    1    5    5  501    0  0.57700206738E+02 -0.22179656601E+02 -0.68999143200E+02  0.92758949902E+02  0.47000000000E+01 0. -1.
        -11    1    6    6    0    0 -0.76552311541E+02  0.38352291316E+02 -0.79944415684E+02  0.11714206866E+03  0.00000000000E+00 0.  1.
         12    1    6    6    0    0  0.19381382456E+02  0.22351256941E+02 -0.26681339523E+02  0.39838556092E+02  0.00000000000E+00 0. -1.
         -5    1    3    3    0  503  0.69945270976E+01  0.20064815165E+02 -0.16404948105E+03  0.16548668360E+03  0.47000000000E+01 0.  1.
         11    1    4    4    0    0  0.19778821719E+02  0.11110730221E+02 -0.28708332070E+02  0.36589868063E+02  0.00000000000E+00 0. -1.
        -12    1    4    4    0    0 -0.27302626469E+02 -0.69699437042E+02 -0.26449068041E+02  0.79391423569E+02  0.00000000000E+00 0.  1.
</event>
<event>
12    1  0.1565987E-001  0.1803745E+03  0.7818608E-02  0.1167859E+00
         21   -1    0    0  503  502  0.00000000000E+00  0.00000000000E+00  0.36142038599E+03  0.36142038599E+03  0.00000000000E+00 0.  1.
         21   -1    0    0  501  503 -0.00000000000E+00 -0.00000000000E+00 -0.12152835491E+03  0.12152835491E+03  0.00000000000E+00 0.  1.
          6    2    1    2  501    0  0.24177144274E+02 -0.45265493377E+02 -0.50936568925E+01  0.17872358019E+03  0.17112180919E+03 0.  0.
         24    2    3    3    0    0  0.41980812931E+02 -0.81800074078E+02  0.30217136519E+02  0.12468018711E+03  0.78603008497E+02 0.  0.
         -6    2    1    2    0  502 -0.24177144274E+02  0.45265493377E+02  0.24498568798E+03  0.30422516071E+03  0.17292039180E+03 0.  0.
        -24    2    5    5    0    0 -0.62135439575E+01 -0.16978677616E+02  0.40640252670E+02  0.89804605049E+02  0.78015083983E+02 0.  0.
          5    1    3    3  501    0 -0.17803668657E+02  0.36534580701E+02 -0.35310793412E+02  0.54043393084E+02  0.47000000000E+01 0. -1.
        -11    1    4    4    0    0  0.40742075681E+02 -0.93386655323E+02  0.11367092262E+02  0.10251924166E+03  0.00000000000E+00 0.  1.
         12    1    4    4    0    0  0.12387372499E+01  0.11586581245E+02  0.18850044258E+02  0.22160945454E+02  0.00000000000E+00 0. -1.
         -5    1    5    5    0  502 -0.17963600316E+02  0.62244170993E+02  0.20434543531E+03  0.21442055566E+03  0.47000000000E+01 0.  1.
         13    1    6    6    0    0 -0.28754785835E+02  0.17212528804E+02  0.35013246147E+02  0.48466857356E+02  0.00000000000E+00 0. -1.
        -14    1    6    6    0    0  0.22541241878E+02 -0.34191206420E+02  0.56270065231E+01  0.41337747693E+02  0.00000000000E+00 0.  1.
</event>
<event>
12    1  0.1565987E-001  0.2242806E+03  0.7818608E-02  0.1132222E+00
         21   -1    0    0  503  502  0.00000000000E+00  0.00000000000E+00  0.34502999920E+02  0.34502999920E+02  0.00000000000E+00 0. -1.
         21   -1    0    0  501  503 -0.00000000000E+00 -0.00000000000E+00 -0.21570034240E+04  0.21570034240E+04  0.00000000000E+00 0. -1.
          6    2    1    2  501    0  0.62696189367E+02 -0.11535553587E+03 -0.16950712466E+04  0.17088082760E+04  0.17181816353E+03 0.  0.
         24    2    3    3    0    0  0.77232711471E+02 -0.37421818041E+02 -0.60892779216E+03  0.61976527022E+03  0.77140455806E+02 0.  0.
         -6    2    1    2    0  502 -0.62696189367E+02  0.11535553587E+03 -0.42742917749E+03  0.48269814791E+03  0.18183533323E+03 0.  0.
        -24    2    5    5    0    0  0.25635477513E+02  0.66803965751E+02 -0.12616886108E+03  0.16498820696E+03  0.78629379897E+02 0.  0.
          5    1    3    3  501    0 -0.14536522105E+02 -0.77933717831E+02 -0.10861434544E+04  0.10890430058E+04  0.47000000000E+01 0. -1.
        -13    1    4    4    0    0 -0.38831102176E+01 -0.27246654671E+02 -0.81067070003E+02  0.85611497912E+02  0.00000000000E+00 0.  1.
         14    1    4    4    0    0  0.81115821689E+02 -0.10175163370E+02 -0.52786072215E+03  0.53415377231E+03  0.00000000000E+00 0. -1.
         -5    1    5    5    0  502 -0.88331666879E+02  0.48551570121E+02 -0.30126031641E+03  0.31770994095E+03  0.47000000000E+01 0.  1.
         11    1    6    6    0    0  0.18619184299E+02  0.48929719130E+02 -0.18353890256E+02  0.55476632248E+02  0.00000000000E+00 0. -1.
        -12    1    6    6    0    0  0.70162932140E+01  0.17874246621E+02 -0.10781497082E+03  0.10951157471E+03  0.00000000000E+00 0.  1.
</event>
<event>
12    1  0.1565987E-001  0.2227571E+03  0.7818608E-02  0.1132817E+00
         21   -1    0    0  503  502  0.00000000000E+00  0.00000000000E+00  0.39352711101E+02  0.39352711101E+02  0.00000000000E+00 0.  1.
         21   -1    0    0  501  503 -0.00000000000E+00 -0.00000000000E+00 -0.21852164954E+04  0.21852164954E+04  0.00000000000E+00 0.  1.
          6    2    1    2  501    0  0.11955902937E+03  0.79685537971E+02 -0.18005464685E+04  0.18136376252E+04  0.16330861504E+03 0.  0.
         24    2    3    3    0    0  0.13692191351E+03  0.34132970479E+02 -0.15371503462E+04  0.15457269807E+04  0.80796300230E+02 0.  0.
         -6    2    1    2    0  502 -0.11955902937E+03 -0.79685537971E+02 -0.34531731571E+03  0.41093158124E+03  0.17022505534E+03 0.  0.
        -24    2    5    5    0    0 -0.39256579166E+02 -0.90452512292E+02 -0.13348604133E+03  0.18408584059E+03  0.79663903296E+02 0.  0.
          5    1    3    3  501    0 -0.17362884139E+02  0.45552567491E+02 -0.26339612236E+03  0.26791064448E+03  0.47000000000E+01 0. -1.
        -13    1    4    4    0    0  0.30656073335E+02  0.37648646181E+02 -0.28837976461E+03  0.29243820548E+03  0.00000000000E+00 0.  1.
         14    1    4    4    0    0  0.10626584018E+03 -0.35156757015E+01 -0.12487705816E+04  0.12532887753E+04  0.00000000000E+00 0. -1.
         -5    1    5    5    0  502 -0.80302450209E+02  0.10766974321E+02 -0.21183127438E+03  0.22684574065E+03  0.47000000000E+01 0.  1.
         11    1    6    6    0    0  0.14563686207E+00  0.29175587660E+01  0.88713550998E+01  0.93399304363E+01  0.00000000000E+00 0. -1.
        -12    1    6    6    0    0 -0.39402216028E+02 -0.93370071058E+02 -0.14235739643E+03  0.17474591016E+03  0.00000000000E+00 0.  1.
</event>
<event>
12    1  0.1565987E-001  0.1744506E+03  0.7818608E-02  0.1173811E+00
         21   -1    0    0  503  502  0.00000000000E+00  0.00000000000E+00  0.12343380475E+04  0.12343380475E+04  0.00000000000E+00 0. -1.
         21   -1    0    0  501  503 -0.00000000000E+00 -0.00000000000E+00 -0.28582972348E+02  0.28582972348E+02  0.00000000000E+00 0. -1.
          6    2    1    2  501    0 -0.14588356259E+01 -0.28426879059E+02  0.36332093408E+03  0.40303239481E+03  0.17211273768E+03 0.  0.
         24    2    3    3    0    0 -0.11536695644E+02  0.44274892671E+02  0.13602455558E+03  0.16413315966E+03  0.79647052126E+02 0.  0.
         -6    2    1    2    0  502  0.14588356259E+01  0.28426879059E+02  0.84243414109E+03  0.85988862506E+03  0.17000867558E+03 0.  0.
        -24    2    5    5    0    0  0.52861441511E+02  0.18045645172E+02  0.71984067611E+03  0.72646731655E+03  0.80400159943E+02 0.  0.
          5    1    3    3  501    0  0.10077860018E+02 -0.72701771731E+02  0.22729637850E+03  0.23889923515E+03  0.47000000000E+01 0. -1.
        -11    1    4    4    0    0  0.23206197767E+02  0.39571997637E+02  0.11360595862E+03  0.12251850655E+03  0.00000000000E+00 0.  1.
         12    1    4    4    0    0 -0.34742893411E+02  0.47028950348E+01  0.22418596954E+02  0.41614653113E+02  0.00000000000E+00 0. -1.
         -5    1    5    5    0  502 -0.51402605885E+02  0.10381233887E+02  0.12259346498E+03  0.13342130851E+03  0.47000000000E+01 0.  1.
         13    1    6    6    0    0  0.15905749044E+02 -0.57754642043E+01  0.57143486878E+03  0.57168536635E+03  0.00000000000E+00 0. -1.
        -14    1    6    6    0    0  0.36955692467E+02  0.23821109377E+02  0.14840580733E+03  0.15478195020E+03  0.00000000000E+00 0.  1.
</event>
<event>
12    1  0.1565987E-001  0.1876935E+03  0.7818608E-02  0.1163320E+00
         21   -1    0    0  501  502  0.00000000000E+00  0.00000000000E+00  0.10121530779E+03  0.10121530779E+03  0.00000000000E+00 0.  1.
         21   -1    0    0  502  503 -0.00000000000E+00 -0.00000000000E+00 -0.33275654956E+03  0.33275654956E+03  0.00000000000E+00 0.  1.
         -6    2    1    2    0  503  0.23377374025E+02 -0.79206805809E+02 -0.90370738218E+02  0.20831635097E+03  0.16854854509E+03 0.  0.
        -24    2    3    3    0    0 -0.16844785481E+02 -0.51465872442E+02  0.73121755695E+01  0.98993786300E+02  0.82545859923E+02 0.  0.
          6    2    1    2  501    0 -0.23377374025E+02  0.79206805809E+02 -0.14117050356E+03  0.22565550638E+03  0.15547050133E+03 0.  0.
         24    2    5    5    0    0  0.19922626101E+02  0.91405670277E+02 -0.69230141401E+02  0.14067781512E+03  0.79028650496E+02 0.  0.
          5    1    5    5  501    0 -0.43300000126E+02 -0.12198864468E+02 -0.71940362156E+02  0.84977691263E+02  0.47000000000E+01 0. -1.
        -11    1    6    6    0    0  0.21577622557E+02  0.42995905609E+02  0.87329534011E+01  0.48892802839E+02  0.00000000000E+00 0.  1.
         12    1    6    6    0    0 -0.16549964558E+01  0.48409764668E+02 -0.77963094802E+02  0.91785012282E+02  0.00000000000E+00 0. -1.
         -5    1    3    3    0  503  0.40222159505E+02 -0.27740933367E+02 -0.97682913788E+02  0.10932256467E+03  0.47000000000E+01 0.  1.
         11    1    4    4    0    0 -0.49095688489E+02 -0.24511232807E+02 -0.52500453183E+01  0.55124859526E+02  0.00000000000E+00 0. -1.
        -12    1    4    4    0    0  0.32250903008E+02 -0.26954639634E+02  0.12562220888E+02  0.43868926774E+02  0.00000000000E+00 0.  1.
</event>
<event>
12    1  0.1565987E-001  0.2756058E+03  0.7818608E-02  0.1098453E+00
         21   -1    0    0  501  502  0.00000000000E+00  0.00000000000E+00  0.76303594054E+03  0.76303594054E+03  0.00000000000E+00 0. -1.
         21   -1    0    0  502  503 -0.00000000000E+00 -0.00000000000E+00 -0.10193513762E+03  0.10193513762E+03  0.00000000000E+00 0.  1.
         -6    2    1    2    0  503 -0.14344046894E+03  0.15642351349E+03  0.25178157471E+03  0.37151307413E+03  0.17200150925E+03 0.  0.
        -24    2    3    3    0    0 -0.16730582061E+03  0.13827839268E+03  0.25102924287E+03  0.34115757343E+03  0.79124317600E+02 0.  0.
          6    2    1    2  501    0  0.14344046894E+03 -0.15642351349E+03  0.40931922821E+03  0.49345800403E+03  0.17582686785E+03 0.  0.
         24    2    5    5    0    0  0.13081513947E+03 -0.47343590396E+02  0.19607757805E+03  0.25355819176E+03  0.80568751562E+02 0.  0.
          5    1    5    5  501    0  0.12625329473E+02 -0.10907992310E+03  0.21324165015E+03  0.23989981227E+03  0.47000000000E+01 0. -1.
        -11    1    6    6    0    0  0.65048321770E+02 -0.13849912335E+02  0.32333598534E+02  0.73949752068E+02  0.00000000000E+00 0.  1.
         12    1    6    6    0    0  0.65766817697E+02 -0.33493678061E+02  0.16374397952E+03  0.17960843969E+03  0.00000000000E+00 0. -1.
         -5    1    3    3    0  503  0.23865351673E+02  0.18145120811E+02  0.75233183723E+00  0.30355500703E+02  0.47000000000E+01 0.  1.
         11    1    4    4    0    0 -0.10224179224E+03  0.11151639690E+03  0.12263833995E+03  0.19475485432E+03  0.00000000000E+00 0. -1.
        -12    1    4    4    0    0 -0.65064028373E+02  0.26761995781E+02  0.12839090293E+03  0.14640271910E+03  0.00000000000E+00 0.  1.
</event>
<event>
12    1  0.1565987E-001  0.1807129E+03  0.7818608E-02  0.1167351E+00
         21   -1    0    0  503  502  0.00000000000E+00  0.00000000000E+00  0.31126386806E+03  0.31126386806E+03  0.00000000000E+00 0. -1.
         21   -1    0    0  501  503 -0.00000000000E+00 -0.00000000000E+00 -0.13567816035E+03  0.13567816035E+03  0.00000000000E+00 0. -1.
          6    2    1    2  501    0  0.54923529689E+00 -0.52319071876E+02 -0.19405200729E+02  0.18175178281E+03  0.17297271981E+03 0.  0.
         24    2    3    3    0    0  0.85160546200E+01  0.28912246309E+02 -0.38826620771E+02  0.97720367134E+02  0.84458998925E+02 0.  0.
         -6    2    1    2    0  502 -0.54923529689E+00  0.52319071876E+02  0.19499090844E+03  0.26519024560E+03  0.17195006555E+03 0.  0.
        -24    2    5    5    0    0  0.19253530183E+02 -0.32288715165E+02  0.12490176235E+03  0.15345302911E+03  0.80833918335E+02 0.  0.
          5    1    3    3  501    0 -0.79668193231E+01 -0.81231318185E+02  0.19421420041E+02  0.84031415677E+02  0.47000000000E+01 0. -1.
        -11    1    4    4    0    0  0.12755478336E+02  0.30129844947E+02  0.20250727693E+02  0.38478588283E+02  0.00000000000E+00 0.  1.
         12    1    4    4    0    0 -0.42394237158E+01 -0.12175986385E+01 -0.59077348464E+02  0.59241778851E+02  0.00000000000E+00 0. -1.
         -5    1    5    5    0  502 -0.19802765480E+02  0.84607787042E+02  0.70089146094E+02  0.11173721649E+03  0.47000000000E+01 0.  1.
         13    1    6    6    0    0 -0.20764039958E+02  0.86548334163E+01  0.72250965681E+02  0.75672012915E+02  0.00000000000E+00 0. -1.
        -14    1    6    6    0    0  0.40017570140E+02 -0.40943548582E+02  0.52650796668E+02  0.77781016194E+02  0.00000000000E+00 0.  1.
</event>
<event>
12    1  0.1565987E-001  0.2150669E+03  0.7818608E-02  0.1138076E+00
         21   -1    0    0  501  502  0.00000000000E+00  0.00000000000E+00  0.33209568434E+03  0.33209568434E+03  0.00000000000E+00 0. -1.
         21   -1    0    0  502  503 -0.00000000000E+00 -0.00000000000E+00 -0.21745656840E+03  0.21745656840E+03  0.00000000000E+00 0. -1.
         -6    2    1    2    0  503 -0.56280107285E+02 -0.11342264333E+03 -0.10884610237E+03  0.24104202564E+03  0.17384371611E+03 0.  0.
        -24    2    3    3    0    0 -0.80841133022E+02 -0.97620343902E+02 -0.13469675670E+03  0.20175713056E+03  0.80608331667E+02 0.  0.
          6    2    1    2  501    0  0.56280107285E+02  0.11342264333E+03  0.22348521831E+03  0.30851022709E+03  0.17088233063E+03 0.  0.
         24    2    5    5    0    0  0.31855860240E+02  0.13186313758E+03  0.22758366589E+03  0.27727750475E+03  0.81766782827E+02 0.  0.
          5    1    5    5  501    0  0.24424247044E+02 -0.18440494260E+02 -0.40984475836E+01  0.31232722341E+02  0.47000000000E+01 0. -1.
        -11    1    6    6    0    0 -0.22971263043E+02  0.26560432978E+02  0.27416370039E+02  0.44551014263E+02  0.00000000000E+00 0.  1.
         12    1    6    6    0    0  0.54827123283E+02  0.10530270461E+03  0.20016729585E+03  0.23272649048E+03  0.00000000000E+00 0. -1.
         -5    1    3    3    0  503  0.24561025738E+02 -0.15802299423E+02  0.25850654334E+02  0.39284895085E+02  0.47000000000E+01 0.  1.
         13    1    4    4    0    0 -0.37514353516E+02  0.56245891765E+01 -0.28606424310E+02  0.47510948580E+02  0.00000000000E+00 0. -1.
        -14    1    4    4    0    0 -0.43326779506E+02 -0.10324493308E+03 -0.10609033239E+03  0.15424618198E+03  0.00000000000E+00 0.  1.
</event>
<event>
12    1  0.1565987E-001  0.2734527E+03  0.7818608E-02  0.1099356E+00
         21   -1    0    0  503  502  0.00000000000E+00  0.00000000000E+00  0.16969053856E+03  0.16969053856E+03  0.00000000000E+00 0.  1.
         21   -1    0    0  501  503 -0.00000000000E+00 -0.00000000000E+00 -0.44421928005E+03  0.44421928005E+03  0.00000000000E+00 0. -1.
          6    2    1    2  501    0  0.58993591016E+02  0.20346024432E+03 -0.16637067203E+03  0.32008681312E+03  0.17291631682E+03 0.  0.
         24    2    3    3    0    0  0.66848655113E+02  0.12039351175E+03 -0.17406609910E+03  0.23616367156E+03  0.80690349771E+02 0.  0.
         -6    2    1    2    0  502 -0.58993591016E+02 -0.20346024432E+03 -0.10815806947E+03  0.29382300549E+03  0.17250355290E+03 0.  0.
        -24    2    5    5    0    0 -0.89124925967E+02 -0.20869893143E+03 -0.95234582561E+02  0.26029022000E+03  0.84751852516E+02 0.  0.
          5    1    3    3  501    0 -0.78550640973E+01  0.83066732568E+02  0.76954270747E+01  0.83923141561E+02  0.47000000000E+01 0. -1.
        -11    1    4    4    0    0 -0.79500436906E+01 -0.76402568232E+01 -0.16012818095E+02  0.19441889372E+02  0.00000000000E+00 0.  1.
         12    1    4    4    0    0  0.74798698804E+02  0.12803376857E+03 -0.15805328101E+03  0.21672178219E+03  0.00000000000E+00 0. -1.
         -5    1    5    5    0  502  0.30131334951E+02  0.52386871125E+01 -0.12923486911E+02  0.33532785487E+02  0.47000000000E+01 0.  1.
         11    1    6    6    0    0 -0.43417896122E+02 -0.12543659864E+03 -0.98434005607E+02  0.16525346423E+03  0.00000000000E+00 0. -1.
        -12    1    6    6    0    0 -0.45707029845E+02 -0.83262332792E+02  0.31994230457E+01  0.95036755769E+02  0.00000000000E+00 0.  1.
</event>
<event>
12    1  0.1565987E-001  0.2301078E+03  0.7818608E-02  0.1126773E+00
         21   -1    0    0  501  502  0.00000000000E+00  0.00000000000E+00  0.73132190735E+02  0.73132190735E+02  0.00000000000E+00 0. -1.
         21   -1    0    0  502  503 -0.00000000000E+00 -0.00000000000E+00 -0.72061084946E+03  0.72061084946E+03  0.00000000000E+00 0. -1.
         -6    2    1    2    0  503  0.49468056056E+02 -0.14553244343E+03 -0.31457760584E+03  0.38905461294E+03  0.16963973912E+03 0.  0.
        -24    2    3    3    0    0  0.94318796957E+02 -0.10732384140E+03 -0.18910900046E+03  0.25036089583E+03  0.80646895248E+02 0.  0.
          6    2    1    2  501    0 -0.49468056056E+02  0.14553244343E+03 -0.33290105289E+03  0.40468842726E+03  0.17123910618E+03 0.  0.
         24    2    5    5    0    0  0.29457730726E+02  0.52259586615E+02 -0.96343796787E+02  0.13839811379E+03  0.79202830930E+02 0.  0.
          5    1    5    5  501    0 -0.78925786782E+02  0.93272856817E+02 -0.23655725610E+03  0.26629031348E+03  0.47000000000E+01 0. -1.
        -11    1    6    6    0    0  0.69014399410E+01 -0.17354920654E+02 -0.16863097745E+01  0.18752780722E+02  0.00000000000E+00 0.  1.
         12    1    6    6    0    0  0.22556290784E+02  0.69614507269E+02 -0.94657487013E+02  0.11964533306E+03  0.00000000000E+00 0. -1.
         -5    1    3    3    0  503 -0.44850740901E+02 -0.38208602029E+02 -0.12546860538E+03  0.13869371711E+03  0.47000000000E+01 0.  1.
         13    1    4    4    0    0  0.40601433358E+01 -0.63358042295E+02 -0.67549612299E+02  0.92702084168E+02  0.00000000000E+00 0. -1.
        -14    1    4    4    0    0  0.90258653622E+02 -0.43965799108E+02 -0.12155938816E+03  0.15765881166E+03  0.00000000000E+00 0.  1.
</event>
<event>
12    1  0.1565987E-001  0.1850490E+03  0.7818608E-02  0.1163119E+00
         21   -1    0    0  501  502  0.00000000000E+00  0.00000000000E+00  0.48059816059E+03  0.48059816059E+03  0.00000000000E+00 0. -1.
         21   -1    0    0  502  503 -0.00000000000E+00 -0.00000000000E+00 -0.50187934685E+03  0.50187934685E+03  0.00000000000E+00 0. -1.
         -6    2    1    2    0  503  0.43301773629E+02 -0.45824870624E+02 -0.46577689762E+03  0.50118983371E+03  0.17397749477E+03 0.  0.
        -24    2    3    3    0    0 -0.72490209866E+01  0.33281214406E+02 -0.28577096305E+03  0.29811993932E+03  0.77783464569E+02 0.  0.
          6    2    1    2  501    0 -0.43301773629E+02  0.45824870624E+02  0.44449571137E+03  0.48128767373E+03  0.17345438909E+03 0.  0.
         24    2    5    5    0    0 -0.32453569933E+02  0.93205167891E+02  0.24557611963E+03  0.27646172306E+03  0.79893781107E+02 0.  0.
          5    1    5    5  501    0 -0.10848203696E+02 -0.47380297267E+02  0.19891959174E+03  0.20482595067E+03  0.47000000000E+01 0. -1.
        -11    1    6    6    0    0  0.23230019602E+02  0.53674409073E+02  0.10551859801E+03  0.12064307078E+03  0.00000000000E+00 0.  1.
         12    1    6    6    0    0 -0.55683589535E+02  0.39530758817E+02  0.14005752162E+03  0.15581865228E+03  0.00000000000E+00 0. -1.
         -5    1    3    3    0  503  0.50550794616E+02 -0.79106085030E+02 -0.18000593457E+03  0.20306989438E+03  0.47000000000E+01 0.  1.
         11    1    4    4    0    0  0.63491451198E+01 -0.95322571069E+01 -0.20794475092E+03  0.20825992175E+03  0.00000000000E+00 0. -1.
        -12    1    4    4    0    0 -0.13598166106E+02  0.42813471513E+02 -0.77826212129E+02  0.89860017576E+02  0.00000000000E+00 0.  1.
</event>
<event>
12    1  0.1565987E-001  0.1840789E+03  0.7818608E-02  0.1164268E+00
         21   -1    0    0  503  502  0.00000000000E+00  0.00000000000E+00  0.92285274284E+03  0.92285274284E+03  0.00000000000E+00 0. -1.
         21   -1    0    0  501  503 -0.00000000000E+00 -0.00000000000E+00 -0.36646169879E+02  0.36646169879E+02  0.00000000000E+00 0. -1.
          6    2    1    2  501    0  0.52378278544E+02 -0.26447769900E+02  0.47911716718E+03  0.51272512604E+03  0.17288963644E+03 0.  0.
         24    2    3    3    0    0 -0.45732554192E+01  0.38647507223E+02  0.30071682689E+03  0.31440809767E+03  0.83110152378E+02 0.  0.
         -6    2    1    2    0  502 -0.52378278544E+02  0.26447769900E+02  0.40708940578E+03  0.44677378668E+03  0.17447654160E+03 0.  0.
        -24    2    5    5    0    0 -0.29460457791E+02  0.80160329147E+02  0.32886651033E+03  0.34904366388E+03  0.79904322406E+02 0.  0.
          5    1    3    3  501    0  0.56951533963E+02 -0.65095277123E+02  0.17840034030E+03  0.19831702837E+03  0.47000000000E+01 0. -1.
        -13    1    4    4    0    0  0.30462989547E+02  0.21539419847E+02  0.60730309437E+02  0.71274896169E+02  0.00000000000E+00 0.  1.
         14    1    4    4    0    0 -0.35036244966E+02  0.17108087376E+02  0.23998651745E+03  0.24313320150E+03  0.00000000000E+00 0. -1.
         -5    1    5    5    0  502 -0.22917820753E+02 -0.53712559247E+02  0.78222895452E+02  0.97730122796E+02  0.47000000000E+01 0.  1.
         11    1    6    6    0    0 -0.63063712361E+01  0.41731175476E+02  0.45160660821E+02  0.61812188204E+02  0.00000000000E+00 0. -1.
        -12    1    6    6    0    0 -0.23154086555E+02  0.38429153671E+02  0.28370584951E+03  0.28723147568E+03  0.00000000000E+00 0.  1.
</event>
<event>
12    1  0.1565987E-001  0.2024929E+03  0.7818608E-02  0.1147867E+00
         21   -1    0    0  503  502  0.00000000000E+00  0.00000000000E+00  0.19125657642E+02  0.19125657642E+02  0.00000000000E+00 0. -1.
         21   -1    0    0  501  503 -0.00000000000E+00 -0.00000000000E+00 -0.24914963819E+04  0.24914963819E+04  0.00000000000E+00 0.  1.
          6    2    1    2  501    0 -0.12354541992E+01  0.10772598140E+03 -0.75730362922E+03  0.78364244723E+03  0.17023596816E+03 0.  0.
         24    2    3    3    0    0 -0.45249795442E+02  0.20683132248E+02 -0.45896342496E+03  0.46972735155E+03  0.86723834032E+02 0.  0.
         -6    2    1    2    0  502  0.12354541992E+01 -0.10772598140E+03 -0.17150670950E+04  0.17269795923E+04  0.17145541216E+03 0.  0.
        -24    2    5    5    0    0  0.62040549029E+02 -0.88310502561E+02 -0.10085092475E+04  0.10175288876E+04  0.81402459387E+02 0.  0.
          5    1    3    3  501    0  0.44014341243E+02  0.87042849147E+02 -0.29834020426E+03  0.31391509568E+03  0.47000000000E+01 0. -1.
        -13    1    4    4    0    0 -0.63136439339E+02  0.34197686951E+02 -0.26798560399E+03  0.27743823765E+03  0.00000000000E+00 0.  1.
         14    1    4    4    0    0  0.17886643897E+02 -0.13514554702E+02 -0.19097782097E+03  0.19228911389E+03  0.00000000000E+00 0. -1.
         -5    1    5    5    0  502 -0.60805094829E+02 -0.19415478835E+02 -0.70655784754E+03  0.70945070462E+03  0.47000000000E+01 0.  1.
         11    1    6    6    0    0  0.15764228315E+01  0.13452068453E+02 -0.52481803681E+02  0.54201318916E+02  0.00000000000E+00 0. -1.
        -12    1    6    6    0    0  0.60464126197E+02 -0.10176257101E+03 -0.95602744378E+03  0.96332756873E+03  0.00000000000E+00 0.  1.
</event>
<event>
12    1  0.1565987E-001  0.2290937E+03  0.7818608E-02  0.1127971E+00
         21   -1    0    0  503  502  0.00000000000E+00  0.00000000000E+00  0.27078894501E+03  0.27078894501E+03  0.00000000000E+00 0.  1.
         21   -1    0    0  501  503 -0.00000000000E+00 -0.00000000000E+00 -0.19417578437E+03  0.19417578437E+03  0.00000000000E+00 0.  1.
          6    2    1    2  501    0 -0.81289086994E+02 -0.12071871510E+03  0.69732946908E+02  0.23576770101E+03  0.17188019408E+03 0.  0.
         24    2    3    3    0    0 -0.50171951862E+02 -0.33844388042E+01 -0.49573306994E+01  0.93162174957E+02  0.78268362288E+02 0.  0.
         -6    2    1    2    0  502  0.81289086994E+02  0.12071871510E+03  0.68802137371E+01  0.22919702837E+03  0.17692658543E+03 0.  0.
        -24    2    5    5    0    0  0.16492058104E+02  0.50291086071E+02  0.66633057757E+02  0.11627582464E+03  0.79239647212E+02 0.  0.
          5    1    3    3  501    0 -0.31117135131E+02 -0.11733427629E+03  0.74690277608E+02  0.14260552605E+03  0.47000000000E+01 0. -1.
        -11    1    4    4    0    0 -0.40972631192E+02 -0.12087248404E+02  0.32465308539E+02  0.53654956334E+02  0.00000000000E+00 0.  1.
         12    1    4    4    0    0 -0.91993206708E+01  0.87028095993E+01 -0.37422639238E+02  0.39507218622E+02  0.00000000000E+00 0. -1.
         -5    1    5    5    0  502  0.64797028890E+02  0.70427629026E+02 -0.59752844020E+02  0.11292120373E+03  0.47000000000E+01 0.  1.
         13    1    6    6    0    0  0.43130794947E+02  0.77817699214E+01  0.21595406210E+02  0.48858806629E+02  0.00000000000E+00 0. -1.
        -14    1    6    6    0    0 -0.26638736843E+02  0.42509316149E+02  0.45037651547E+02  0.67417018007E+02  0.00000000000E+00 0.  1.
</event>
<event>
12    1  0.1565987E-001  0.1770227E+03  0.7818608E-02  0.1170771E+00
         21   -1    0    0  503  502  0.00000000000E+00  0.00000000000E+00  0.31126604902E+03  0.31126604902E+03  0.00000000000E+00 0.  1.
         21   -1    0    0  501  503 -0.00000000000E+00 -0.00000000000E+00 -0.10062160206E+03  0.10062160206E+03  0.00000000000E+00 0.  1.
          6    2    1    2  501    0 -0.25071238810E+02  0.33487436060E+02  0.99737180565E+02  0.20299182221E+03  0.17177950782E+03 0.  0.
         24    2    3    3    0    0 -0.70727468023E+02  0.53035561624E+02  0.96583715850E+02  0.15300527583E+03  0.79164731632E+02 0.  0.
         -6    2    1    2    0  502  0.25071238810E+02 -0.33487436060E+02  0.11090726639E+03  0.20889582888E+03  0.17200892475E+03 0.  0.
        -24    2    5    5    0    0  0.30384806996E+02 -0.64724820077E+01  0.14288231228E+03  0.16643955362E+03  0.79508743719E+02 0.  0.
          5    1    3    3  501    0  0.45656229213E+02 -0.19548125564E+02  0.31534647154E+01  0.49986546377E+02  0.47000000000E+01 0. -1.
        -11    1    4    4    0    0 -0.28230968767E+02  0.38396395985E+02  0.13265189750E+01  0.47676309366E+02  0.00000000000E+00 0.  1.
         12    1    4    4    0    0 -0.42496499256E+02  0.14639165639E+02  0.95257196875E+02  0.10532896646E+03  0.00000000000E+00 0. -1.
         -5    1    5    5    0  502 -0.53135681852E+01 -0.27014954052E+02 -0.31975045888E+02  0.42456275258E+02  0.47000000000E+01 0.  1.
         13    1    6    6    0    0  0.15918786472E+02 -0.76457921880E+01 -0.45966620722E+01  0.18248156157E+02  0.00000000000E+00 0. -1.
        -14    1    6    6    0    0  0.14466020523E+02  0.11733101803E+01  0.14747897435E+03  0.14819139746E+03  0.00000000000E+00 0.  1.
</event>
<event>
12    1  0.1565987E-001  0.2386820E+03  0.7818608E-02  0.1121029E+00
         21   -1    0    0  503  502  0.00000000000E+00  0.00000000000E+00  0.48089457475E+03  0.48089457475E+03  0.00000000000E+00 0. -1.
         21   -1    0    0  501  503 -0.00000000000E+00 -0.00000000000E+00 -0.40855710492E+03  0.40855710492E+03  0.00000000000E+00 0. -1.
          6    2    1    2  501    0  0.68559759116E+01 -0.16642712663E+03 -0.33920025956E+03  0.41476008558E+03  0.17095063503E+03 0.  0.
         24    2    3    3    0    0 -0.58018769136E+02 -0.86006956109E+02 -0.15536959902E+03  0.20382896382E+03  0.81505583364E+02 0.  0.
         -6    2    1    2    0  502 -0.68559759116E+01  0.16642712663E+03  0.41153772940E+03  0.47469159409E+03  0.16799944613E+03 0.  0.
        -24    2    5    5    0    0 -0.48122764750E+02  0.40840517821E+02  0.21958141833E+03  0.24157304156E+03  0.78471566530E+02 0.  0.
          5    1    3    3  501    0  0.64874745048E+02 -0.80420170519E+02 -0.18383066054E+03  0.21093112176E+03  0.47000000000E+01 0. -1.
        -11    1    4    4    0    0 -0.20143516441E+02 -0.49468075543E+02 -0.17418937422E+02  0.56180700720E+02  0.00000000000E+00 0.  1.
         12    1    4    4    0    0 -0.37875252695E+02 -0.36538880567E+02 -0.13795066160E+03  0.14764826310E+03  0.00000000000E+00 0. -1.
         -5    1    5    5    0  502  0.41266788838E+02  0.12558660881E+03  0.19195631107E+03  0.23311855253E+03  0.47000000000E+01 0.  1.
         13    1    6    6    0    0 -0.51838690904E+02  0.55746558879E+02  0.21023102556E+03  0.22358893714E+03  0.00000000000E+00 0. -1.
        -14    1    6    6    0    0  0.37159261539E+01 -0.14906041058E+02  0.93503927647E+01  0.17984104428E+02  0.00000000000E+00 0.  1.
</event>
<event>
12    1  0.1565987E-001  0.2138356E+03  0.7818608E-02  0.1139626E+00
         21   -1    0    0  501  502  0.00000000000E+00  0.00000000000E+00  0.68896140739E+03  0.68896140739E+03  0.00000000000E+00 0. -1.
         21   -1    0    0  502  503 -0.00000000000E+00 -0.00000000000E+00 -0.86923850121E+02  0.86923850121E+02  0.00000000000E+00 0. -1.
         -6    2    1    2    0  503 -0.49976625473E+02  0.10873381184E+03  0.10199420165E+03  0.23203873938E+03  0.17064130353E+03 0.  0.
        -24    2    3    3    0    0  0.42483313043E+02  0.61642819915E+02  0.66714943904E+02  0.12234317074E+03  0.70087791756E+02 0.  0.
          6    2    1    2  501    0  0.49976625473E+02 -0.10873381184E+03  0.50004335561E+03  0.54384651813E+03  0.17721448265E+03 0.  0.
         24    2    5    5    0    0  0.32907316426E+02 -0.36991345029E+02  0.43590810385E+03  0.44600090825E+03  0.80309925105E+02 0.  0.
          5    1    5    5  501    0  0.17069309047E+02 -0.71742466810E+02  0.64135251761E+02  0.97845609885E+02  0.47000000000E+01 0. -1.
        -13    1    6    6    0    0  0.50277181148E+02  0.49575611737E+00  0.18485766030E+03  0.19157347230E+03  0.00000000000E+00 0.  1.
         14    1    6    6    0    0 -0.17369864723E+02 -0.37487101147E+02  0.25105044356E+03  0.25442743595E+03  0.00000000000E+00 0. -1.
         -5    1    3    3    0  503 -0.92459938516E+02  0.47090991924E+02  0.35279257751E+02  0.10969556864E+03  0.47000000000E+01 0.  1.
         11    1    4    4    0    0 -0.95140551533E+00  0.69987242306E+01 -0.13969896594E+02  0.15653923602E+02  0.00000000000E+00 0. -1.
        -12    1    4    4    0    0  0.43434718559E+02  0.54644095684E+02  0.80684840497E+02  0.10668924714E+03  0.00000000000E+00 0.  1.
</event>
<event>
12    1  0.1565987E-001  0.2036364E+03  0.7818608E-02  0.1147351E+00
         21   -1    0    0  501  502  0.00000000000E+00  0.00000000000E+00  0.13792143348E+03  0.13792143348E+03  0.00000000000E+00 0. -1.
         21   -1    0    0  502  503 -0.00000000000E+00 -0.00000000000E+00 -0.72873824753E+03  0.72873824753E+03  0.00000000000E+00 0. -1.
         -6    2    1    2    0  503 -0.82272784444E+02  0.66765904890E+02 -0.63021034223E+03  0.66229362355E+03  0.17390017602E+03 0.  0.
        -24    2    3    3    0    0 -0.11746586730E+03  0.33488875446E+02 -0.36016000217E+03  0.38789393343E+03  0.76333096812E+02 0.  0.
          6    2    1    2  501    0  0.82272784444E+02 -0.66765904890E+02  0.39393528177E+02  0.20436605746E+03  0.17025609611E+03 0.  0.
         24    2    5    5    0    0  0.21432285629E+02 -0.74801236221E+02  0.73803215462E+02  0.13385187856E+03  0.80092714870E+02 0.  0.
          5    1    5    5  501    0  0.60840498815E+02  0.80353313310E+01 -0.34409687286E+02  0.70514178892E+02  0.47000000000E+01 0. -1.
        -11    1    6    6    0    0 -0.10260976245E+02 -0.64497700647E+02  0.76298458958E+02  0.10043254384E+03  0.00000000000E+00 0.  1.
         12    1    6    6    0    0  0.31693261874E+02 -0.10303535574E+02 -0.24952434958E+01  0.33419334727E+02  0.00000000000E+00 0. -1.
         -5    1    3    3    0  503  0.35193082857E+02  0.33277029444E+02 -0.27005034006E+03  0.27439969012E+03  0.47000000000E+01 0.  1.
         11    1    4    4    0    0 -0.27320034559E+02  0.34648077533E+02 -0.19292821105E+03  0.19790949493E+03  0.00000000000E+00 0. -1.
        -12    1    4    4    0    0 -0.90145832742E+02 -0.11592020867E+01 -0.16723179112E+03  0.18998443850E+03  0.00000000000E+00 0.  1.
</event>
<event>
12    1  0.1565987E-001  0.1873894E+03  0.7818608E-02  0.1162524E+00
         21   -1    0    0  503  502  0.00000000000E+00  0.00000000000E+00  0.21707953025E+03  0.21707953025E+03  0.00000000000E+00 0. -1.
         21   -1    0    0  501  503 -0.00000000000E+00 -0.00000000000E+00 -0.81669444394E+03  0.81669444394E+03  0.00000000000E+00 0. -1.
          6    2    1    2  501    0 -0.39278692687E+02  0.41987385796E+02 -0.76595358686E+03  0.78854276378E+03  0.17835088118E+03 0.  0.
         24    2    3    3    0    0 -0.26200997000E+02  0.12792214362E+02 -0.74556998033E+03  0.75032018439E+03  0.79092670659E+02 0.  0.
         -6    2    1    2    0  502  0.39278692687E+02 -0.41987385796E+02  0.16633867317E+03  0.24523121041E+03  0.17077481109E+03 0.  0.
        -24    2    5    5    0    0  0.34900558529E+02 -0.50604212639E+02  0.19240340147E+03  0.21703763268E+03  0.79419328758E+02 0.  0.
          5    1    3    3  501    0 -0.13077695686E+02  0.29195171434E+02 -0.20383606534E+02  0.38222579385E+02  0.47000000000E+01 0. -1.
        -11    1    4    4    0    0  0.95632538165E+01 -0.17021266695E+02 -0.58451161113E+02  0.61625624369E+02  0.00000000000E+00 0.  1.
         12    1    4    4    0    0 -0.35764250817E+02  0.29813481057E+02 -0.68711881921E+03  0.68869456003E+03  0.00000000000E+00 0. -1.
         -5    1    5    5    0  502  0.43781341578E+01  0.86168268428E+01 -0.26064728304E+02  0.28193577728E+02  0.47000000000E+01 0.  1.
         13    1    6    6    0    0  0.42001385112E+02 -0.21074435863E+02  0.40222002050E+02  0.61855134364E+02  0.00000000000E+00 0. -1.
        -14    1    6    6    0    0 -0.71008265831E+01 -0.29529776775E+02  0.15218139942E+03  0.15518249832E+03  0.00000000000E+00 0.  1.
</event>
<event>
12    1  0.1565987E-001  0.2332923E+03  0.7818608E-02  0.1124349E+00
         21   -1    0    0  501  502  0.00000000000E+00  0.00000000000E+00  0.36541580456E+03  0.36541580456E+03  0.00000000000E+00 0.  1.
         21   -1    0    0  502  503 -0.00000000000E+00 -0.00000000000E+00 -0.22556024147E+03  0.22556024147E+03  0.00000000000E+00 0.  1.
         -6    2    1    2    0  503 -0.53249930566E+01 -0.15782167870E+03 -0.10231559499E+03  0.25471401547E+03  0.17168200512E+03 0.  0.
        -24    2    3    3    0    0  0.52292050501E+02 -0.99835684427E+02 -0.24670491022E+02  0.14187363524E+03  0.82570411281E+02 0.  0.
          6    2    1    2  501    0  0.53249930566E+01  0.15782167870E+03  0.24217115808E+03  0.33626203057E+03  0.17172433018E+03 0.  0.
         24    2    5    5    0    0  0.65287893254E+02  0.13115706652E+03  0.18612419464E+03  0.24983342967E+03  0.79434511670E+02 0.  0.
          5    1    5    5  501    0 -0.59962900198E+02  0.26664612187E+02  0.56046963435E+02  0.86428600899E+02  0.47000000000E+01 0. -1.
        -13    1    6    6    0    0  0.70772719488E+02  0.62869533905E+02  0.82265483260E+02  0.12541517393E+03  0.00000000000E+00 0.  1.
         14    1    6    6    0    0 -0.54848262334E+01  0.68287532611E+02  0.10385871138E+03  0.12441825573E+03  0.00000000000E+00 0. -1.
         -5    1    3    3    0  503 -0.57617043558E+02 -0.57985994276E+02 -0.77645103966E+02  0.11284038023E+03  0.47000000000E+01 0.  1.
         11    1    4    4    0    0  0.31647884031E+02 -0.76311608921E+01 -0.33822038975E+02  0.46944152997E+02  0.00000000000E+00 0. -1.
        -12    1    4    4    0    0  0.20644166470E+02 -0.92204523535E+02  0.91515479524E+01  0.94929482246E+02  0.00000000000E+00 0.  1.
</event>
<event>
12    1  0.1565987E-001  0.2125676E+03  0.7818608E-02  0.1139563E+00
         21   -1    0    0  503  502  0.00000000000E+00  0.00000000000E+00  0.27945614088E+03  0.27945614088E+03  0.00000000000E+00 0. -1.
         21   -1    0    0  501  503 -0.00000000000E+00 -0.00000000000E+00 -0.16206670502E+03  0.16206670502E+03  0.00000000000E+00 0.  1.
          6    2    1    2  501    0  0.85243657101E+02  0.90463540064E+02  0.47284753035E+02  0.21769337080E+03  0.17234971037E+03 0.  0.
         24    2    3    3    0    0 -0.16346670772E+02  0.72186657184E+02  0.29809756178E+02  0.11289783330E+03  0.79869719415E+02 0.  0.
         -6    2    1    2    0  502 -0.85243657101E+02 -0.90463540064E+02  0.70104682823E+02  0.22382947510E+03  0.17243791409E+03 0.  0.
        -24    2    5    5    0    0 -0.30345661035E+02  0.19755780637E+02  0.17566400500E+02  0.89872580033E+02  0.80357651801E+02 0.  0.
          5    1    3    3  501    0  0.10159032787E+03  0.18276882880E+02  0.17474996856E+02  0.10479553750E+03  0.47000000000E+01 0. -1.
        -11    1    4    4    0    0 -0.23438375286E+02  0.35321005793E+02 -0.22904029787E+02  0.48182211103E+02  0.00000000000E+00 0.  1.
         12    1    4    4    0    0  0.70917045146E+01  0.36865651391E+02  0.52713785966E+02  0.64715622196E+02  0.00000000000E+00 0. -1.
         -5    1    5    5    0  502 -0.54897996066E+02 -0.11021932070E+03  0.52538282323E+02  0.13395689507E+03  0.47000000000E+01 0.  1.
         13    1    6    6    0    0 -0.91274897421E+01  0.48695701222E+02  0.21026984049E+02  0.53821152391E+02  0.00000000000E+00 0. -1.
        -14    1    6    6    0    0 -0.21218171293E+02 -0.28939920585E+02 -0.34605835491E+01  0.36051427642E+02  0.00000000000E+00 0.  1.
</event>
<event>
12    1  0.1565987E-001  0.1969243E+03  0.7818608E-02  0.1153945E+00
         21   -1    0    0  501  502  0.00000000000E+00  0.00000000000E+00  0.32096292822E+02  0.32096292822E+02  0.00000000000E+00 0.  1.
         21   -1    0    0  502  503 -0.00000000000E+00 -0.00000000000E+00 -0.11753577548E+04  0.11753577548E+04  0.00000000000E+00 0.  1.
         -6    2    1    2    0  503 -0.78115211844E+02 -0.13174268725E+02 -0.64065087679E+03  0.67023334144E+03  0.18028765450E+03 0.  0.
        -24    2    3    3    0    0  0.21024302253E+02  0.65307586844E+01 -0.16665602529E+03  0.18555804744E+03  0.78567716724E+02 0.  0.
          6    2    1    2  501    0  0.78115211844E+02  0.13174268725E+02 -0.50261058522E+03  0.53722070621E+03  0.17237499567E+03 0.  0.
         24    2    5    5    0    0  0.42224994538E+02  0.36649678293E+02 -0.47704436539E+03  0.48707168679E+03  0.80878627835E+02 0.  0.
          5    1    5    5  501    0  0.35890217306E+02 -0.23475409568E+02 -0.25566219828E+02  0.50149019422E+02  0.47000000000E+01 0. -1.
        -11    1    6    6    0    0  0.41365295302E+02  0.16502326273E+02 -0.99769408431E+02  0.10925817721E+03  0.00000000000E+00 0.  1.
         12    1    6    6    0    0  0.85969923621E+00  0.20147352021E+02 -0.37727495696E+03  0.37781350959E+03  0.00000000000E+00 0. -1.
         -5    1    3    3    0  503 -0.99139514098E+02 -0.19705027409E+02 -0.47399485150E+03  0.48467529400E+03  0.47000000000E+01 0.  1.
         11    1    4    4    0    0  0.99578181019E+01 -0.26394633754E+02 -0.19342600698E+02  0.34204839338E+02  0.00000000000E+00 0. -1.
        -12    1    4    4    0    0  0.11066484151E+02  0.32925392439E+02 -0.14731342459E+03  0.15135320811E+03  0.00000000000E+00 0.  1.
</event>
<event>
12    1  0.1565987E-001  0.1987078E+03  0.7818608E-02  0.1151093E+00
         21   -1    0    0  501  502  0.00000000000E+00  0.00000000000E+00  0.16373449381E+04  0.16373449381E+04  0.00000000000E+00 0.  1.
         21   -1    0    0  502  503 -0.00000000000E+00 -0.00000000000E+00 -0.24752208441E+02  0.24752208441E+02  0.00000000000E+00 0.  1.
         -6    2    1    2    0  503 -0.84741966238E+02  0.48433780361E+02  0.66078632536E+03  0.69001693223E+03  0.17308312181E+03 0.  0.
        -24    2    3    3    0    0  0.18179811247E+02  0.40156370276E+02  0.23817876310E+03  0.25495297201E+03  0.79554101936E+02 0.  0.
          6    2    1    2  501    0  0.84741966238E+02 -0.48433780361E+02  0.95180640430E+03  0.97208021431E+03  0.17169006924E+03 0.  0.
         24    2    5    5    0    0  0.94953071825E+02  0.21839923150E+02  0.56110968527E+03  0.57495469720E+03  0.78966808460E+02 0.  0.
          5    1    5    5  501    0 -0.10211105587E+02 -0.70273703511E+02  0.39069671903E+03  0.39712551711E+03  0.47000000000E+01 0. -1.
        -13    1    6    6    0    0  0.12181975824E+02 -0.24994023320E+02  0.84752799402E+02  0.89197190220E+02  0.00000000000E+00 0.  1.
         14    1    6    6    0    0  0.82771096001E+02  0.46833946470E+02  0.47635688587E+03  0.48575750698E+03  0.00000000000E+00 0. -1.
         -5    1    3    3    0  503 -0.10292177749E+03  0.82774100846E+01  0.42260756226E+03  0.43506396022E+03  0.47000000000E+01 0.  1.
         11    1    4    4    0    0  0.15090098516E+02  0.10711249725E+02  0.21877062482E+03  0.21955188050E+03  0.00000000000E+00 0. -1.
        -12    1    4    4    0    0  0.30897127310E+01  0.29445120551E+02  0.19408138275E+02  0.35401091514E+02  0.00000000000E+00 0.  1.
</event>
<event>
12    1  0.1565987E-001  0.1768755E+03  0.7818608E-02  0.1171041E+00
         21   -1    0    0  503  502  0.00000000000E+00  0.00000000000E+00  0.27154518837E+03  0.27154518837E+03  0.00000000000E+00 0.  1.
         21   -1    0    0  501  503 -0.00000000000E+00 -0.00000000000E+00 -0.13044019157E+03  0.13044019157E+03  0.00000000000E+00 0.  1.
          6    2    1    2  501    0  0.26166125826E+02 -0.31181097638E+02  0.14015806109E+03  0.22510733599E+03  0.17138291525E+03 0.  0.
         24    2    3    3    0    0  0.18224209371E+02  0.43985168166E+02  0.43318892825E+02  0.10217257255E+03  0.79346652613E+02 0.  0.
         -6    2    1    2    0  502 -0.26166125826E+02  0.31181097638E+02  0.94693571815E+00  0.17687804395E+03  0.17212791393E+03 0.  0.
        -24    2    5    5    0    0  0.42304932332E+01  0.83670128564E+02  0.58015474746E+01  0.11584764109E+03  0.79802446738E+02 0.  0.
          5    1    3    3  501    0  0.79419164553E+01 -0.75166265804E+02  0.96839168265E+02  0.12293476344E+03  0.47000000000E+01 0. -1.
        -13    1    4    4    0    0  0.41155963243E+02  0.50173143850E+01  0.38711915031E+02  0.56723884912E+02  0.00000000000E+00 0.  1.
         14    1    4    4    0    0 -0.22931753873E+02  0.38967853781E+02  0.46069777937E+01  0.45448687642E+02  0.00000000000E+00 0. -1.
         -5    1    5    5    0  502 -0.30396619059E+02 -0.52489030927E+02 -0.48546117564E+01  0.61030402859E+02  0.47000000000E+01 0.  1.
         13    1    6    6    0    0 -0.39849353069E+01  0.59319992570E+02  0.41033424275E+02  0.72239069316E+02  0.00000000000E+00 0. -1.
        -14    1    6    6    0    0  0.82154285401E+01  0.24350135995E+02 -0.35231876800E+02  0.43608571771E+02  0.00000000000E+00 0.  1.
</event>
<event>
12    1  0.1565987E-001  0.2155591E+03  0.7818608E-02  0.1137844E+00
         21   -1    0    0  503  502  0.00000000000E+00  0.00000000000E+00  0.66584904901E+02  0.66584904901E+02  0.00000000000E+00 0. -1.
         21   -1    0    0  501  503 -0.00000000000E+00 -0.00000000000E+00 -0.98746150225E+03  0.98746150225E+03  0.00000000000E+00 0. -1.
          6    2    1    2  501    0 -0.55077313617E+02  0.11101220737E+03 -0.75315811677E+03  0.78339829082E+03  0.17637605432E+03 0.  0.
         24    2    3    3    0    0 -0.42817216603E+02  0.80283706238E+02 -0.23740000261E+03  0.26655878663E+03  0.80100174579E+02 0.  0.
         -6    2    1    2    0  502  0.55077313617E+02 -0.11101220737E+03 -0.16771848058E+03  0.27064811634E+03  0.17252157398E+03 0.  0.
        -24    2    5    5    0    0  0.64961493487E+02 -0.40508864118E+02 -0.27027236397E+02  0.11289978953E+03  0.78453344480E+02 0.  0.
          5    1    3    3  501    0 -0.12260097014E+02  0.30728501130E+02 -0.51575811416E+03  0.51683950419E+03  0.47000000000E+01 0. -1.
        -11    1    4    4    0    0 -0.15356678664E+02  0.69398976106E+02 -0.22229457663E+03  0.23338149940E+03  0.00000000000E+00 0.  1.
         12    1    4    4    0    0 -0.27460537939E+02  0.10884730132E+02 -0.15105425978E+02  0.33177287230E+02  0.00000000000E+00 0. -1.
         -5    1    5    5    0  502 -0.98841798697E+01 -0.70503343250E+02 -0.14069124419E+03  0.15774832681E+03  0.47000000000E+01 0.  1.
         13    1    6    6    0    0  0.80318491558E+02 -0.44376211950E+02 -0.14924149151E+02  0.92967943405E+02  0.00000000000E+00 0. -1.
        -14    1    6    6    0    0 -0.15356998070E+02  0.38673478320E+01 -0.12103087246E+02  0.19931846123E+02  0.00000000000E+00 0.  1.
</event>
<event>
12    1  0.1565987E-001  0.2156417E+03  0.7818608E-02  0.1137259E+00
         21   -1    0    0  501  502  0.00000000000E+00  0.00000000000E+00  0.60869343120E+02  0.60869343120E+02  0.00000000000E+00 0.  1.
         21   -1    0    0  502  503 -0.00000000000E+00 -0.00000000000E+00 -0.96291012959E+03  0.96291012959E+03  0.00000000000E+00 0.  1.
         -6    2    1    2    0  503  0.10614555774E+03  0.72696683678E+02 -0.68497164399E+03  0.71811384174E+03  0.17305966999E+03 0.  0.
        -24    2    3    3    0    0  0.13517112481E+03  0.36265762449E+02 -0.47315221793E+03  0.50118238984E+03  0.87888156475E+02 0.  0.
          6    2    1    2  501    0 -0.10614555774E+03 -0.72696683678E+02 -0.21706914248E+03  0.30566563097E+03  0.17251312441E+03 0.  0.
         24    2    5    5    0    0 -0.36164082293E+02 -0.75908717554E+02 -0.20151948109E+03  0.23375175167E+03  0.83425451142E+02 0.  0.
          5    1    5    5  501    0 -0.69981475451E+02  0.32120338761E+01 -0.15549661388E+02  0.71913879308E+02  0.47000000000E+01 0. -1.
        -13    1    6    6    0    0 -0.55486483543E+02 -0.66272846528E+02 -0.11094964525E+03  0.14064374791E+03  0.00000000000E+00 0.  1.
         14    1    6    6    0    0  0.19322401250E+02 -0.96358710262E+01 -0.90569835839E+02  0.93108003761E+02  0.00000000000E+00 0. -1.
         -5    1    3    3    0  503 -0.29025567063E+02  0.36430921229E+02 -0.21181942606E+03  0.21693145190E+03  0.47000000000E+01 0.  1.
         13    1    4    4    0    0  0.57557479972E+02 -0.25955145451E+02 -0.14182633517E+03  0.15524574849E+03  0.00000000000E+00 0. -1.
        -14    1    4    4    0    0  0.77613644834E+02  0.62220907900E+02 -0.33132588275E+03  0.34593664134E+03  0.00000000000E+00 0.  1.
</event>
<event>
12    1  0.1565987E-001  0.2505422E+03  0.7818608E-02  0.1113060E+00
         21   -1    0    0  501  502  0.00000000000E+00  0.00000000000E+00  0.17687666290E+04  0.17687666290E+04  0.00000000000E+00 0. -1.
         21   -1    0    0  502  503 -0.00000000000E+00 -0.00000000000E+00 -0.12181190663E+03  0.12181190663E+03  0.00000000000E+00 0.  1.
         -6    2    1    2    0  503  0.12674703550E+03  0.13032489807E+03  0.27608123401E+02  0.25205875039E+03  0.17240073987E+03 0.  0.
        -24    2    3    3    0    0  0.77296759934E+02  0.15489123752E+03  0.27430834391E+02  0.19664254140E+03  0.89161392182E+02 0.  0.
          6    2    1    2  501    0 -0.12674703550E+03 -0.13032489807E+03  0.16193465989E+04  0.16385197852E+04  0.17150594436E+03 0.  0.
         24    2    5    5    0    0 -0.14677579705E+03 -0.61399883687E+02  0.11673680857E+04  0.11808534490E+04  0.79709096774E+02 0.  0.
          5    1    5    5  501    0  0.20028761555E+02 -0.68925014379E+02  0.45197851318E+03  0.45766633618E+03  0.47000000000E+01 0. -1.
        -13    1    6    6    0    0 -0.67461264912E+02  0.10843632179E+02  0.36447066698E+03  0.37082000177E+03  0.00000000000E+00 0.  1.
         14    1    6    6    0    0 -0.79314532139E+02 -0.72243515865E+02  0.80289741876E+03  0.81003344724E+03  0.00000000000E+00 0. -1.
         -5    1    3    3    0  503  0.49450275561E+02 -0.24566339455E+02  0.17728901058E+00  0.55416208988E+02  0.47000000000E+01 0.  1.
         11    1    4    4    0    0  0.91144286345E+02  0.12652542286E+03  0.42558976466E+02  0.16163919710E+03  0.00000000000E+00 0. -1.
        -12    1    4    4    0    0 -0.13847526411E+02  0.28365814664E+02 -0.15128142076E+02  0.35003344296E+02  0.00000000000E+00 0.  1.
</event>
<event>
12    1  0.1565987E-001  0.1804830E+03  0.7818608E-02  0.1167645E+00
         21   -1    0    0  503  502  0.00000000000E+00  0.00000000000E+00  0.85793758152E+02  0.85793758152E+02  0.00000000000E+00 0. -1.
         21   -1    0    0  501  503 -0.00000000000E+00 -0.00000000000E+00 -0.38635500388E+03  0.38635500388E+03  0.00000000000E+00 0. -1.
          6    2    1    2  501    0  0.38874262673E+02 -0.36689103100E+02 -0.18648899225E+03  0.25863855429E+03  0.17105104195E+03 0.  0.
         24    2    3    3    0    0  0.58045567049E+02  0.20697233323E+02 -0.16768263675E+03  0.19510510226E+03  0.78427488423E+02 0.  0.
         -6    2    1    2    0  502 -0.38874262673E+02  0.36689103100E+02 -0.11407225348E+03  0.21351020774E+03  0.17238570478E+03 0.  0.
        -24    2    5    5    0    0 -0.50901320296E+02  0.64972585539E+02 -0.13431428381E+03  0.17640986696E+03  0.79169015702E+02 0.  0.
          5    1    3    3  501    0 -0.19171304376E+02 -0.57386336423E+02 -0.18806355498E+02  0.63533452028E+02  0.47000000000E+01 0. -1.
        -11    1    4    4    0    0 -0.15702485570E+02  0.19065377348E+02 -0.56671541631E+02  0.61820063873E+02  0.00000000000E+00 0.  1.
         12    1    4    4    0    0  0.73748052619E+02  0.16318559757E+01 -0.11101109512E+03  0.13328503839E+03  0.00000000000E+00 0. -1.
         -5    1    5    5    0  502  0.12027057623E+02 -0.28283482439E+02  0.20242030329E+02  0.37100340777E+02  0.47000000000E+01 0.  1.
         13    1    6    6    0    0 -0.52044777584E+02  0.54154607043E+02 -0.47395068130E+02  0.88812571299E+02  0.00000000000E+00 0. -1.
        -14    1    6    6    0    0  0.11434572872E+01  0.10817978496E+02 -0.86919215680E+02  0.87597295665E+02  0.00000000000E+00 0.  1.
</event>
<event>
12    1  0.1565987E-001  0.1901673E+03  0.7818608E-02  0.1158424E+00
         21   -1    0    0  501  502  0.00000000000E+00  0.00000000000E+00  0.40299676601E+03  0.40299676601E+03  0.00000000000E+00 0.  1.
         21   -1    0    0  502  503 -0.00000000000E+00 -0.00000000000E+00 -0.89778292779E+02  0.89778292779E+02  0.00000000000E+00 0. -1.
         -6    2    1    2    0  503 -0.83095136731E+00 -0.83666638185E+02  0.14307057645E+03  0.23797646739E+03  0.17077122814E+03 0.  0.
        -24    2    3    3    0    0  0.59071737090E+02 -0.30278831304E+02  0.51586595903E+02  0.11619798528E+03  0.80215442145E+02 0.  0.
          6    2    1    2  501    0  0.83095136731E+00  0.83666638185E+02  0.17014789679E+03  0.25479859141E+03  0.17020933751E+03 0.  0.
         24    2    5    5    0    0  0.60840900486E+02  0.33239109607E+02  0.12706666337E+03  0.16523178782E+03  0.79681573697E+02 0.  0.
          5    1    5    5  501    0 -0.60009949118E+02  0.50427528578E+02  0.43081233422E+02  0.89566803587E+02  0.47000000000E+01 0. -1.
        -11    1    6    6    0    0  0.33168310462E+02 -0.26729323167E+01  0.11294721120E+03  0.11774699106E+03  0.00000000000E+00 0.  1.
         12    1    6    6    0    0  0.27672590024E+02  0.35912041924E+02  0.14119452171E+02  0.47484796760E+02  0.00000000000E+00 0. -1.
         -5    1    3    3    0  503 -0.59902688458E+02 -0.53387806881E+02  0.91483980542E+02  0.12177848211E+03  0.47000000000E+01 0.  1.
         11    1    4    4    0    0  0.29207037806E+02 -0.30871683488E+02 -0.13494445668E+02  0.44589370513E+02  0.00000000000E+00 0. -1.
        -12    1    4    4    0    0  0.29864699284E+02  0.59285218499E+00  0.65081041572E+02  0.71608614769E+02  0.00000000000E+00 0.  1.
</event>
<event>
12    1  0.1565987E-001  0.1877869E+03  0.7818608E-02  0.1161059E+00
         21   -1    0    0  503  502  0.00000000000E+00  0.00000000000E+00  0.24996015997E+03  0.24996015997E+03  0.00000000000E+00 0. -1.
         21   -1    0    0  501  503 -0.00000000000E+00 -0.00000000000E+00 -0.17155254082E+03  0.17155254082E+03  0.00000000000E+00 0. -1.
          6    2    1    2  501    0  0.34974834489E+02 -0.62852322889E+02 -0.52569031928E+02  0.19256120121E+03  0.17071221266E+03 0.  0.
         24    2    3    3    0    0  0.16920272935E+02  0.21050356430E+02 -0.66602910980E+02  0.10547121010E+03  0.77193362842E+02 0.  0.
         -6    2    1    2    0  502 -0.34974834489E+02  0.62852322889E+02  0.13097665108E+03  0.22895149958E+03  0.17346542160E+03 0.  0.
        -24    2    5    5    0    0 -0.82494723458E+02  0.69959934616E+02  0.11454430444E+03  0.17795375445E+03  0.82748831976E+02 0.  0.
          5    1    3    3  501    0  0.18054561553E+02 -0.83902679319E+02  0.14033879052E+02  0.87089991107E+02  0.47000000000E+01 0. -1.
        -11    1    4    4    0    0  0.44200425980E+02  0.24325492870E+02 -0.26863586241E+02  0.57158197364E+02  0.00000000000E+00 0.  1.
         12    1    4    4    0    0 -0.27280153045E+02 -0.32751364401E+01 -0.39739324739E+02  0.48313012735E+02  0.00000000000E+00 0. -1.
         -5    1    5    5    0  502  0.47519888969E+02 -0.71076117268E+01  0.16432346635E+02  0.50997745127E+02  0.47000000000E+01 0.  1.
         11    1    6    6    0    0 -0.62425213007E+02  0.86767887146E+02  0.10568816818E+03  0.15031820366E+03  0.00000000000E+00 0. -1.
        -12    1    6    6    0    0 -0.20069510450E+02 -0.16807952530E+02  0.88561362609E+01  0.27635550789E+02  0.00000000000E+00 0.  1.
</event>
<event>
12    1  0.1565987E-001  0.1872364E+03  0.7818608E-02  0.1161457E+00
         21   -1    0    0  503  502  0.00000000000E+00  0.00000000000E+00  0.18971509574E+03  0.18971509574E+03  0.00000000000E+00 0.  1.
         21   -1    0    0  501  503 -0.00000000000E+00 -0.00000000000E+00 -0.20687740400E+03  0.20687740400E+03  0.00000000000E+00 0.  1.
          6    2    1    2  501    0 -0.62009997786E+02  0.34798749069E+02 -0.76254839527E+02  0.20025246282E+03  0.17096799569E+03 0.  0.
         24    2    3    3    0    0 -0.23774251673E+02  0.71285254729E+02 -0.46489047138E+01  0.11113042695E+03  0.81740790888E+02 0.  0.
         -6    2    1    2    0  502  0.62009997786E+02 -0.34798749069E+02  0.59092531268E+02  0.19634003692E+03  0.17320880487E+03 0.  0.
        -24    2    5    5    0    0  0.60484870438E+02  0.11793576194E+02  0.93476063185E+02  0.13822387691E+03  0.81058977100E+02 0.  0.
          5    1    3    3  501    0 -0.38235746113E+02 -0.36486505660E+02 -0.71605934814E+02  0.89122035864E+02  0.47000000000E+01 0. -1.
        -13    1    4    4    0    0 -0.10911897806E+02  0.40556770680E+02 -0.43152458067E+02  0.60216740189E+02  0.00000000000E+00 0.  1.
         14    1    4    4    0    0 -0.12862353867E+02  0.30728484049E+02  0.38503553353E+02  0.50913686763E+02  0.00000000000E+00 0. -1.
         -5    1    5    5    0  502  0.15251273485E+01 -0.46592325263E+02 -0.34383531917E+02  0.58116160007E+02  0.47000000000E+01 0.  1.
         13    1    6    6    0    0  0.12610422718E+02  0.42849834794E+02  0.38145300861E+02  0.58738361237E+02  0.00000000000E+00 0. -1.
        -14    1    6    6    0    0  0.47874447720E+02 -0.31056258600E+02  0.55330762324E+02  0.79485515675E+02  0.00000000000E+00 0.  1.
</event>
<event>
12    1  0.1565987E-001  0.1991337E+03  0.7818608E-02  0.1150513E+00
         21   -1    0    0  501  502  0.00000000000E+00  0.00000000000E+00  0.22589713888E+03  0.22589713888E+03  0.00000000000E+00 0.  1.
         21   -1    0    0  502  503 -0.00000000000E+00 -0.00000000000E+00 -0.40233297139E+03  0.40233297139E+03  0.00000000000E+00 0. -1.
         -6    2    1    2    0  503  0.35189562030E+01  0.10059293764E+03 -0.32416174825E+03  0.38044062614E+03  0.17182231763E+03 0.  0.
        -24    2    3    3    0    0 -0.62115403775E+02  0.65946092725E+02 -0.23743369861E+03  0.26619476116E+03  0.79231806107E+02 0.  0.
          6    2    1    2  501    0 -0.35189562030E+01 -0.10059293764E+03  0.14772591574E+03  0.24778948412E+03  0.17159650376E+03 0.  0.
         24    2    5    5    0    0 -0.54784051085E+02 -0.52431946932E+02  0.13597505607E+03  0.17632086386E+03  0.82761282296E+02 0.  0.
          5    1    5    5  501    0  0.51265094882E+02 -0.48160990711E+02  0.11750859678E+02  0.71468620266E+02  0.47000000000E+01 0. -1.
        -13    1    6    6    0    0  0.18000340622E+00  0.50067001045E+01  0.77425465889E+02  0.77587384383E+02  0.00000000000E+00 0.  1.
         14    1    6    6    0    0 -0.54964054491E+02 -0.57438647036E+02  0.58549590176E+02  0.98733479475E+02  0.00000000000E+00 0. -1.
         -5    1    3    3    0  503  0.65634359978E+02  0.34646844918E+02 -0.86728049637E+02  0.11424586499E+03  0.47000000000E+01 0.  1.
         11    1    4    4    0    0 -0.15610920076E+02 -0.42094992981E+01 -0.12343917825E+03  0.12449357990E+03  0.00000000000E+00 0. -1.
        -12    1    4    4    0    0 -0.46504483699E+02  0.70155592023E+02 -0.11399452036E+03  0.14170118125E+03  0.00000000000E+00 0.  1.
</event>
<event>
12    1  0.1565987E-001  0.2307882E+03  0.7818608E-02  0.1126114E+00
         21   -1    0    0  501  502  0.00000000000E+00  0.00000000000E+00  0.59293233179E+03  0.59293233179E+03  0.00000000000E+00 0. -1.
         21   -1    0    0  502  503 -0.00000000000E+00 -0.00000000000E+00 -0.14391018855E+03  0.14391018855E+03  0.00000000000E+00 0. -1.
         -6    2    1    2    0  503 -0.94538105073E+02  0.12053120250E+03 -0.14170515715E+01  0.23079254759E+03  0.17262087909E+03 0.  0.
        -24    2    3    3    0    0 -0.47840689019E+02 -0.67157657455E+01 -0.14609587766E+02  0.94525997744E+02  0.79924283916E+02 0.  0.
          6    2    1    2  501    0  0.94538105073E+02 -0.12053120250E+03  0.45043919482E+03  0.50604997275E+03  0.17241195609E+03 0.  0.
         24    2    5    5    0    0  0.25887024260E+02 -0.43198366682E+02  0.10010420408E+03  0.14074183688E+03  0.85153837649E+02 0.  0.
          5    1    5    5  501    0  0.68651080813E+02 -0.77332835822E+02  0.35033499074E+03  0.36530813587E+03  0.47000000000E+01 0. -1.
        -11    1    6    6    0    0  0.36644187877E+02 -0.26940215199E+02  0.74851616566E+01  0.46093376370E+02  0.00000000000E+00 0.  1.
         12    1    6    6    0    0 -0.10757163617E+02 -0.16258151483E+02  0.92619042421E+02  0.94648460514E+02  0.00000000000E+00 0. -1.
         -5    1    3    3    0  503 -0.46697416054E+02  0.12724696825E+03  0.13192536194E+02  0.13626654984E+03  0.47000000000E+01 0.  1.
         13    1    4    4    0    0 -0.47953823037E+02 -0.54340152730E+00  0.25245285272E+02  0.54195838009E+02  0.00000000000E+00 0. -1.
        -14    1    4    4    0    0  0.11313401762E+00 -0.61723642182E+01 -0.39854873038E+02  0.40330159735E+02  0.00000000000E+00 0.  1.
</event>
<event>
12    1  0.1565987E-001  0.1734582E+03  0.7818608E-02  0.1174852E+00
         21   -1    0    0  501  502  0.00000000000E+00  0.00000000000E+00  0.15815822719E+03  0.15815822719E+03  0.00000000000E+00 0. -1.
         21   -1    0    0  502  503 -0.00000000000E+00 -0.00000000000E+00 -0.31355703615E+03  0.31355703615E+03  0.00000000000E+00 0. -1.
         -6    2    1    2    0  503 -0.17065438442E+02  0.97615686308E+01 -0.22674980063E+03  0.28415538128E+03  0.17012434045E+03 0.  0.
        -24    2    3    3    0    0  0.10450262950E+02 -0.57226129426E+02 -0.10308806385E+03  0.14077204663E+03  0.76194371954E+02 0.  0.
          6    2    1    2  501    0  0.17065438442E+02 -0.97615686308E+01  0.71350991670E+02  0.18755988207E+03  0.17234044197E+03 0.  0.
         24    2    5    5    0    0  0.66140740969E+02 -0.43600661025E+02  0.58600282197E+02  0.12641955099E+03  0.79197819042E+02 0.  0.
          5    1    5    5  501    0 -0.49075302527E+02  0.33839092394E+02  0.12750709474E+02  0.61140331077E+02  0.47000000000E+01 0. -1.
        -13    1    6    6    0    0  0.33128380480E+01 -0.11592946137E+02  0.54468863809E+02  0.55787350006E+02  0.00000000000E+00 0.  1.
         14    1    6    6    0    0  0.62827902921E+02 -0.32007714887E+02  0.41314183875E+01  0.70632200982E+02  0.00000000000E+00 0. -1.
         -5    1    3    3    0  503 -0.27515701392E+02  0.66987698057E+02 -0.12366173677E+03  0.14338333465E+03  0.47000000000E+01 0.  1.
         11    1    4    4    0    0 -0.19781927084E+02 -0.15797574336E+02  0.34928883091E+00  0.25318175225E+02  0.00000000000E+00 0. -1.
        -12    1    4    4    0    0  0.30232190034E+02 -0.41428555090E+02 -0.10343735269E+03  0.11545387140E+03  0.00000000000E+00 0.  1.
</event>
<event>
12    1  0.1565987E-001  0.2520310E+03  0.7818608E-02  0.1112086E+00
         21   -1    0    0  501  502  0.00000000000E+00  0.00000000000E+00  0.98129174217E+03  0.98129174217E+03  0.00000000000E+00 0. -1.
         21   -1    0    0  502  503 -0.00000000000E+00 -0.00000000000E+00 -0.92436123100E+02  0.92436123100E+02  0.00000000000E+00 0.  1.
         -6    2    1    2    0  503  0.23696421264E+02  0.18241141921E+03  0.15023454326E+03  0.29341103583E+03  0.17229095077E+03 0.  0.
        -24    2    3    3    0    0  0.52542322055E+02  0.62879633586E+02  0.26793424821E+02  0.11911320598E+03  0.82191996566E+02 0.  0.
          6    2    1    2  501    0 -0.23696421264E+02 -0.18241141921E+03  0.73862107581E+03  0.78031682944E+03  0.17174927785E+03 0.  0.
         24    2    5    5    0    0  0.51423543714E+02 -0.67371146608E+02  0.44058740584E+03  0.45210434965E+03  0.55658139921E+02 0.  0.
          5    1    5    5  501    0 -0.75119964978E+02 -0.11504027260E+03  0.29803366997E+03  0.32821247979E+03  0.47000000000E+01 0. -1.
        -13    1    6    6    0    0  0.79155484667E+01 -0.26664088586E+02  0.51960554710E+02  0.58936650511E+02  0.00000000000E+00 0.  1.
         14    1    6    6    0    0  0.43507995247E+02 -0.40707058022E+02  0.38862685113E+03  0.39316769914E+03  0.00000000000E+00 0. -1.
         -5    1    3    3    0  503 -0.28845900791E+02  0.11953178562E+03  0.12344111844E+03  0.17429782984E+03  0.47000000000E+01 0.  1.
         13    1    4    4    0    0 -0.20148896228E+02  0.83089778624E+01  0.17099888039E+02  0.27702406092E+02  0.00000000000E+00 0. -1.
        -14    1    4    4    0    0  0.72691218283E+02  0.54570655723E+02  0.96935367814E+01  0.91410799892E+02  0.00000000000E+00 0.  1.
</event>
<event>
12    1  0.1565987E-001  0.3229408E+03  0.7818608E-02  0.1074366E+00
         21   -1    0    0  501  502  0.00000000000E+00  0.00000000000E+00  0.41972166282E+03  0.41972166282E+03  0.00000000000E+00 0.  1.
         21   -1    0    0  502  503 -0.00000000000E+00 -0.00000000000E+00 -0.35314110846E+03  0.35314110846E+03  0.00000000000E+00 0. -1.
         -6    2    1    2    0  503 -0.73942388175E+02 -0.26202410089E+03 -0.17752839697E+03  0.36804186931E+03  0.17266840945E+03 0.  0.
        -24    2    3    3    0    0 -0.77835521086E+02 -0.16970790874E+03 -0.18581169890E+03  0.27515409344E+03  0.79527637044E+02 0.  0.
          6    2    1    2  501    0  0.73942388175E+02  0.26202410089E+03  0.24410895133E+03  0.40482090196E+03  0.17368556741E+03 0.  0.
         24    2    5    5    0    0  0.48844935040E+02  0.50567549115E+02  0.79804476551E+02  0.13581940405E+03  0.84470416935E+02 0.  0.
          5    1    5    5  501    0  0.25097453136E+02  0.21145655177E+03  0.16430447478E+03  0.26900149791E+03  0.47000000000E+01 0. -1.
        -13    1    6    6    0    0 -0.23319287937E+02  0.18669720592E+02  0.13595522524E+02  0.32820510197E+02  0.00000000000E+00 0.  1.
         14    1    6    6    0    0  0.72164222977E+02  0.31897828523E+02  0.66208954026E+02  0.10299889386E+03  0.00000000000E+00 0. -1.
         -5    1    3    3    0  503  0.38931329105E+01 -0.92316192148E+02  0.82833019315E+01  0.92887775878E+02  0.47000000000E+01 0.  1.
         13    1    4    4    0    0 -0.55179338917E+02 -0.16503723744E+03 -0.18182742091E+03  0.25168086971E+03  0.00000000000E+00 0. -1.
        -14    1    4    4    0    0 -0.22656182169E+02 -0.46706713008E+01 -0.39842779957E+01  0.23473223725E+02  0.00000000000E+00 0.  1.
</event>
<event>
12    1  0.1565987E-001  0.1983265E+03  0.7818608E-02  0.1151454E+00
         21   -1    0    0  501  502  0.00000000000E+00  0.00000000000E+00  0.35325582710E+02  0.35325582710E+02  0.00000000000E+00 0. -1.
         21   -1    0    0  502  503 -0.00000000000E+00 -0.00000000000E+00 -0.19129450970E+04  0.19129450970E+04  0.00000000000E+00 0. -1.
         -6    2    1    2    0  503  0.78056341747E+02  0.62112504318E+02 -0.15697112424E+04  0.15820181683E+04  0.16981561918E+03 0.  0.
        -24    2    3    3    0    0  0.89292560743E+02 -0.15968481582E+01 -0.73523260926E+03  0.74502246136E+03  0.80720300298E+02 0.  0.
          6    2    1    2  501    0 -0.78056341747E+02 -0.62112504318E+02 -0.30790827184E+03  0.36625251139E+03  0.17141365919E+03 0.  0.
         24    2    5    5    0    0 -0.59081017061E+02  0.55226037339E+01 -0.26647997330E+03  0.28456429494E+03  0.80275750094E+02 0.  0.
          5    1    5    5  501    0 -0.18975324687E+02 -0.67635108052E+02 -0.41428298532E+02  0.81688216454E+02  0.47000000000E+01 0. -1.
        -13    1    6    6    0    0 -0.84101306842E+01 -0.25251738127E+02 -0.27223119584E+02  0.38072021439E+02  0.00000000000E+00 0.  1.
         14    1    6    6    0    0 -0.50670886376E+02  0.30774341861E+02 -0.23925685372E+03  0.24649227350E+03  0.00000000000E+00 0. -1.
         -5    1    3    3    0  503 -0.11236218996E+02  0.63709352476E+02 -0.83447863316E+03  0.83699570692E+03  0.47000000000E+01 0.  1.
         13    1    4    4    0    0 -0.30836037795E+00 -0.42656433870E+00 -0.33000678179E+03  0.33000720154E+03  0.00000000000E+00 0. -1.
        -14    1    4    4    0    0  0.89600921121E+02 -0.11702838195E+01 -0.40522582748E+03  0.41501525982E+03  0.00000000000E+00 0.  1.
</event>
<event>
12    1  0.1565987E-001  0.1747457E+03  0.7818608E-02  0.1173590E+00
         21   -1    0    0  501  502  0.00000000000E+00  0.00000000000E+00  0.46530894411E+03  0.46530894411E+03  0.00000000000E+00 0.  1.
         21   -1    0    0  502  503 -0.00000000000E+00 -0.00000000000E+00 -0.82721653288E+02  0.82721653288E+02  0.00000000000E+00 0.  1.
         -6    2    1    2    0  503  0.49707477366E+00  0.86462586573E+01  0.64548985598E+02  0.18628645304E+03  0.17453098915E+03 0.  0.
        -24    2    3    3    0    0 -0.59184810246E+02  0.50209058842E+01  0.81991424384E+01  0.10399146288E+03  0.84964387567E+02 0.  0.
          6    2    1    2  501    0 -0.49707477366E+00 -0.86462586573E+01  0.31803830523E+03  0.36174414436E+03  0.17214952081E+03 0.  0.
         24    2    5    5    0    0  0.33008151173E+02 -0.62736397055E+02  0.20072256970E+03  0.22820233428E+03  0.82227500411E+02 0.  0.
          5    1    5    5  501    0 -0.33505225947E+02  0.54090138398E+02  0.11731573552E+03  0.13354181008E+03  0.47000000000E+01 0. -1.
        -13    1    6    6    0    0  0.54735598620E+02 -0.66681094599E+02  0.16536902426E+03  0.18651881491E+03  0.00000000000E+00 0.  1.
         14    1    6    6    0    0 -0.21727447446E+02  0.39446975437E+01  0.35353545447E+02  0.41683519368E+02  0.00000000000E+00 0. -1.
         -5    1    3    3    0  503  0.59681885019E+02  0.36253527732E+01  0.56349843159E+02  0.82294990165E+02  0.47000000000E+01 0.  1.
         11    1    4    4    0    0  0.14030108038E+02  0.24080643975E+02 -0.20930924775E+00  0.27870506923E+02  0.00000000000E+00 0. -1.
        -12    1    4    4    0    0 -0.73214918284E+02 -0.19059738090E+02  0.84084516862E+01  0.76120955953E+02  0.00000000000E+00 0.  1.
</event>
<event>
12    1  0.1565987E-001  0.1762526E+03  0.7818608E-02  0.1172711E+00
         21   -1    0    0  503  502  0.00000000000E+00  0.00000000000E+00  0.99297821066E+03  0.99297821066E+03  0.00000000000E+00 0. -1.
         21   -1    0    0  501  503 -0.00000000000E+00 -0.00000000000E+00 -0.94954003853E+02  0.94954003853E+02  0.00000000000E+00 0.  1.
          6    2    1    2  501    0  0.27027070498E+02  0.14188168056E+02  0.26169906038E+01  0.17627204145E+03  0.17358922001E+03 0.  0.
         24    2    3    3    0    0  0.67522399175E+02  0.20893155448E+02  0.51472861711E+02  0.11228911684E+03  0.70452763838E+02 0.  0.
         -6    2    1    2    0  502 -0.27027070498E+02 -0.14188168056E+02  0.89540721620E+03  0.91166017306E+03  0.16863695225E+03 0.  0.
        -24    2    5    5    0    0  0.10987344605E+02 -0.35520928203E+02  0.81691332967E+03  0.82175153813E+03  0.80905773297E+02 0.  0.
          5    1    3    3  501    0 -0.40495328678E+02 -0.67049873921E+01 -0.48855871107E+02  0.63982924615E+02  0.47000000000E+01 0. -1.
        -11    1    4    4    0    0  0.57734589955E+02 -0.16894059623E+02  0.25107822511E+02  0.65185081722E+02  0.00000000000E+00 0.  1.
         12    1    4    4    0    0  0.97878092207E+01  0.37787215071E+02  0.26365039199E+02  0.47104035115E+02  0.00000000000E+00 0. -1.
         -5    1    5    5    0  502 -0.38014415103E+02  0.21332760147E+02  0.78493886532E+02  0.89908634925E+02  0.47000000000E+01 0.  1.
         13    1    6    6    0    0  0.36113602568E+02 -0.25673561922E+02  0.71351251885E+03  0.71488701109E+03  0.00000000000E+00 0. -1.
        -14    1    6    6    0    0 -0.25126257963E+02 -0.98473662809E+01  0.10340081082E+03  0.10686452704E+03  0.00000000000E+00 0.  1.
</event>
<event>
12    1  0.1565987E-001  0.2282857E+03  0.7818608E-02  0.1128194E+00
         21   -1    0    0  501  502  0.00000000000E+00  0.00000000000E+00  0.89261078802E+02  0.89261078802E+02  0.00000000000E+00 0. -1.
         21   -1    0    0  502  503 -0.00000000000E+00 -0.00000000000E+00 -0.57924154044E+03  0.57924154044E+03  0.00000000000E+00 0.  1.
         -6    2    1    2    0  503  0.69822516950E+01  0.15008747821E+03 -0.23659708329E+03  0.32744909657E+03  0.16932137511E+03 0.  0.
        -24    2    3    3    0    0  0.30343055816E+02  0.13085166587E+02 -0.71395381147E+02  0.11151148301E+03  0.79029031206E+02 0.  0.
          6    2    1    2  501    0 -0.69822516950E+01 -0.15008747821E+03 -0.25338337835E+03  0.34105352268E+03  0.17187020089E+03 0.  0.
         24    2    5    5    0    0 -0.27480825931E+02 -0.29110641280E+02 -0.17079137574E+03  0.19307002524E+03  0.80645616056E+02 0.  0.
          5    1    5    5  501    0  0.20498574236E+02 -0.12097683693E+03 -0.82592002608E+02  0.14798349743E+03  0.47000000000E+01 0. -1.
        -11    1    6    6    0    0  0.56297454472E+01 -0.49995421069E+02 -0.85090868075E+02  0.98851868932E+02  0.00000000000E+00 0.  1.
         12    1    6    6    0    0 -0.33110571378E+02  0.20884779789E+02 -0.85700507670E+02  0.94218156311E+02  0.00000000000E+00 0. -1.
         -5    1    3    3    0  503 -0.23360804121E+02  0.13700231162E+03 -0.16520170214E+03  0.21593761355E+03  0.47000000000E+01 0.  1.
         13    1    4    4    0    0  0.52040750372E+02  0.13197477342E+02 -0.22870625517E+02  0.58356478809E+02  0.00000000000E+00 0. -1.
        -14    1    4    4    0    0 -0.21697694556E+02 -0.11231075484E+00 -0.48524755630E+02  0.53155004202E+02  0.00000000000E+00 0.  1.
</event>
<event>
12    1  0.1565987E-001  0.2046684E+03  0.7818608E-02  0.1145880E+00
         21   -1    0    0  503  502  0.00000000000E+00  0.00000000000E+00  0.22763577468E+03  0.22763577468E+03  0.00000000000E+00 0.  1.
         21   -1    0    0  501  503 -0.00000000000E+00 -0.00000000000E+00 -0.57484733453E+03  0.57484733453E+03  0.00000000000E+00 0. -1.
          6    2    1    2  501    0  0.83152751711E+01 -0.10798889264E+03 -0.50447529206E+03  0.54437263580E+03  0.17353818479E+03 0.  0.
         24    2    3    3    0    0  0.15191189808E+02  0.22398772078E+02 -0.18851780208E+03  0.20246702487E+03  0.68712860674E+02 0.  0.
         -6    2    1    2    0  502 -0.83152751711E+01  0.10798889264E+03  0.15726373221E+03  0.25811047341E+03  0.17366171220E+03 0.  0.
        -24    2    5    5    0    0 -0.29132762441E+01 -0.14744832955E+02  0.55282056860E+02  0.98376002815E+02  0.79973963525E+02 0.  0.
          5    1    3    3  501    0 -0.68759146368E+01 -0.13038766471E+03 -0.31595748998E+03  0.34190561093E+03  0.47000000000E+01 0. -1.
        -13    1    4    4    0    0  0.11882477076E+02 -0.21480605417E+02 -0.34884259218E+02  0.42655846161E+02  0.00000000000E+00 0.  1.
         14    1    4    4    0    0  0.33087127318E+01  0.43879377496E+02 -0.15363354286E+03  0.15981117871E+03  0.00000000000E+00 0. -1.
         -5    1    5    5    0  502 -0.54019989270E+01  0.12273372559E+03  0.10198167535E+03  0.15973447060E+03  0.47000000000E+01 0.  1.
         13    1    6    6    0    0  0.14557287864E+02  0.26452150662E+02  0.42294746739E+01  0.30488019952E+02  0.00000000000E+00 0. -1.
        -14    1    6    6    0    0 -0.17470564108E+02 -0.41196983617E+02  0.51052582186E+02  0.67887982863E+02  0.00000000000E+00 0.  1.
</event>
<event>
12    1  0.1565987E-001  0.1818067E+03  0.7818608E-02  0.1166836E+00
         21   -1    0    0  501  502  0.00000000000E+00  0.00000000000E+00  0.42552412851E+03  0.42552412851E+03  0.00000000000E+00 0.  1.
         21   -1    0    0  502  503 -0.00000000000E+00 -0.00000000000E+00 -0.14586054017E+03  0.14586054017E+03  0.00000000000E+00 0.  1.
         -6    2    1    2    0  503  0.37554863571E+02 -0.40654413810E+02 -0.58078521935E+02  0.18781798739E+03  0.16982147254E+03 0.  0.
        -24    2    3    3    0    0 -0.11007736753E+01 -0.13767757823E+02  0.28999305776E+02  0.88713049869E+02  0.82693909228E+02 0.  0.
          6    2    1    2  501    0 -0.37554863571E+02  0.40654413810E+02  0.33774211028E+03  0.38356668130E+03  0.17317770297E+03 0.  0.
         24    2    5    5    0    0 -0.67753356726E+02 -0.11615830949E+02  0.28437093921E+03  0.30285299363E+03  0.78279370248E+02 0.  0.
          5    1    5    5  501    0  0.30198493155E+02  0.52270244759E+02  0.53371171071E+02  0.80713687671E+02  0.47000000000E+01 0. -1.
        -11    1    6    6    0    0 -0.27292440614E+02  0.37108457009E+01  0.23739704612E+03  0.23898955039E+03  0.00000000000E+00 0.  1.
         12    1    6    6    0    0 -0.40460916112E+02 -0.15326676650E+02  0.46973893085E+02  0.63863443231E+02  0.00000000000E+00 0. -1.
         -5    1    3    3    0  503  0.38655637246E+02 -0.26886655986E+02 -0.87077827712E+02  0.99104937516E+02  0.47000000000E+01 0.  1.
         11    1    4    4    0    0  0.23975403306E+02  0.24384493590E+02  0.26001698586E+02  0.42959420628E+02  0.00000000000E+00 0. -1.
        -12    1    4    4    0    0 -0.25076176981E+02 -0.38152251413E+02  0.29976071899E+01  0.45753629241E+02  0.00000000000E+00 0.  1.
</event>
<event>
12    1  0.1565987E-001  0.1959587E+03  0.7818608E-02  0.1153918E+00
         21   -1    0    0  501  502  0.00000000000E+00  0.00000000000E+00  0.11245888940E+03  0.11245888940E+03  0.00000000000E+00 0.  1.
         21   -1    0    0  502  503 -0.00000000000E+00 -0.00000000000E+00 -0.38017816174E+03  0.38017816174E+03  0.00000000000E+00 0. -1.
         -6    2    1    2    0  503 -0.15778054148E+02  0.91332847040E+02 -0.21910960874E+03  0.29395381172E+03  0.17265337193E+03 0.  0.
        -24    2    3    3    0    0  0.27552953917E+02  0.91367827530E+01 -0.16754043324E+03  0.18758069901E+03  0.79209063894E+02 0.  0.
          6    2    1    2  501    0  0.15778054148E+02 -0.91332847040E+02 -0.48609663594E+02  0.19868323942E+03  0.16888307876E+03 0.  0.
         24    2    5    5    0    0  0.38268809267E+02 -0.11953248703E+03 -0.14900690902E+01  0.13915677516E+03  0.60082198254E+02 0.  0.
          5    1    5    5  501    0 -0.22490755119E+02  0.28199639993E+02 -0.47119594503E+02  0.59526464264E+02  0.47000000000E+01 0. -1.
        -11    1    6    6    0    0  0.50227963859E+02 -0.59551989535E+02  0.15370884131E+01  0.77920796016E+02  0.00000000000E+00 0.  1.
         12    1    6    6    0    0 -0.11959154592E+02 -0.59980497499E+02 -0.30271575033E+01  0.61235979141E+02  0.00000000000E+00 0. -1.
         -5    1    3    3    0  503 -0.43331008065E+02  0.82196064287E+02 -0.51569175503E+02  0.10637311270E+03  0.47000000000E+01 0.  1.
         13    1    4    4    0    0 -0.26509721568E+02  0.40575615300E+01 -0.33184428922E+02  0.42666561451E+02  0.00000000000E+00 0. -1.
        -14    1    4    4    0    0  0.54062675484E+02  0.50792212230E+01 -0.13435600432E+03  0.14491413756E+03  0.00000000000E+00 0.  1.
</event>
<event>
12    1  0.1565987E-001  0.2139045E+03  0.7818608E-02  0.1138717E+00
         21   -1    0    0  503  502  0.00000000000E+00  0.00000000000E+00  0.52277778621E+03  0.52277778621E+03  0.00000000000E+00 0.  1.
         21   -1    0    0  501  503 -0.00000000000E+00 -0.00000000000E+00 -0.15775942434E+03  0.15775942434E+03  0.00000000000E+00 0.  1.
          6    2    1    2  501    0  0.86519368414E+02 -0.91557599293E+02 -0.44981767137E+02  0.21858290945E+03  0.17287780028E+03 0.  0.
         24    2    3    3    0    0  0.83360592725E+02 -0.11923515969E+03  0.12193151387E+01  0.16442891406E+03  0.76611809291E+02 0.  0.
         -6    2    1    2    0  502 -0.86519368414E+02  0.91557599293E+02  0.41000012900E+03  0.46195430110E+03  0.17156128767E+03 0.  0.
        -24    2    5    5    0    0 -0.67416351175E+02  0.29197799304E+01  0.30936212373E+03  0.32641210696E+03  0.79287139232E+02 0.  0.
          5    1    3    3  501    0  0.31587756890E+01  0.27677560400E+02 -0.46201082276E+02  0.54153995393E+02  0.47000000000E+01 0. -1.
        -11    1    4    4    0    0  0.46653069832E+02 -0.11867446430E+03  0.43030091458E+01  0.12758782579E+03  0.00000000000E+00 0.  1.
         12    1    4    4    0    0  0.36707522893E+02 -0.56069539300E+00 -0.30836940071E+01  0.36841088271E+02  0.00000000000E+00 0. -1.
         -5    1    5    5    0  502 -0.19103017239E+02  0.88637819363E+02  0.10063800527E+03  0.13554219415E+03  0.47000000000E+01 0.  1.
         13    1    6    6    0    0 -0.53860430840E+02 -0.34055558603E+02  0.16845366038E+03  0.18010375559E+03  0.00000000000E+00 0. -1.
        -14    1    6    6    0    0 -0.13555920335E+02  0.36975338533E+02  0.14090846335E+03  0.14630835137E+03  0.00000000000E+00 0.  1.
</event>
<event>
12    1  0.1565987E-001  0.1723568E+03  0.7818608E-02  0.1175476E+00
         21   -1    0    0  503  502  0.00000000000E+00  0.00000000000E+00  0.29657029206E+03  0.29657029206E+03  0.00000000000E+00 0.  1.
         21   -1    0    0  501  503 -0.00000000000E+00 -0.00000000000E+00 -0.10031892839E+03  0.10031892839E+03  0.00000000000E+00 0.  1.
          6    2    1    2  501    0  0.10483091135E+02  0.19023149395E+01  0.87283690518E+02  0.19297543238E+03  0.17177764951E+03 0.  0.
         24    2    3    3    0    0 -0.41522581208E+02 -0.34259654638E+02  0.79432175306E+02  0.12897532073E+03  0.86181866993E+02 0.  0.
         -6    2    1    2    0  502 -0.10483091135E+02 -0.19023149395E+01  0.10896767315E+03  0.20391378808E+03  0.17202722219E+03 0.  0.
        -24    2    5    5    0    0  0.12785052831E+02 -0.18559374556E+02 -0.10656559726E+02  0.80824750183E+02  0.76884133715E+02 0.  0.
          5    1    3    3  501    0  0.52005672343E+02  0.36161969577E+02  0.78515152122E+01  0.64000111646E+02  0.47000000000E+01 0. -1.
        -11    1    4    4    0    0 -0.22378837645E+02 -0.59943246165E+02  0.31483427718E+02  0.71310667898E+02  0.00000000000E+00 0.  1.
         12    1    4    4    0    0 -0.19143743562E+02  0.25683591528E+02  0.47948747588E+02  0.57664652835E+02  0.00000000000E+00 0. -1.
         -5    1    5    5    0  502 -0.23268143966E+02  0.16657059617E+02  0.11962423288E+03  0.12308903790E+03  0.47000000000E+01 0.  1.
         13    1    6    6    0    0  0.43943279010E+00 -0.47825940552E+02 -0.18548181001E+01  0.47863911677E+02  0.00000000000E+00 0. -1.
        -14    1    6    6    0    0  0.12345620041E+02  0.29266565996E+02 -0.88017416254E+01  0.32960838506E+02  0.00000000000E+00 0.  1.
</event>
<event>
12    1  0.1565987E-001  0.1924897E+03  0.7818608E-02  0.1156821E+00
         21   -1    0    0  501  502  0.00000000000E+00  0.00000000000E+00  0.43355891923E+03  0.43355891923E+03  0.00000000000E+00 0.  1.
         21   -1    0    0  502  503 -0.00000000000E+00 -0.00000000000E+00 -0.84702368393E+02  0.84702368393E+02  0.00000000000E+00 0.  1.
         -6    2    1    2    0  503 -0.79700894036E+02  0.25449578893E+02  0.19348505164E+03  0.27292625200E+03  0.17335616588E+03 0.  0.
        -24    2    3    3    0    0 -0.55724934411E+02 -0.14016551939E+01  0.21123706174E+03  0.23251512390E+03  0.79592421978E+02 0.  0.
          6    2    1    2  501    0  0.79700894036E+02 -0.25449578893E+02  0.15537149920E+03  0.24533503562E+03  0.17043785778E+03 0.  0.
         24    2    5    5    0    0  0.21431441713E+02  0.34333832969E+02  0.28569007319E+02  0.93445775452E+02  0.79232606863E+02 0.  0.
          5    1    5    5  501    0  0.58269452323E+02 -0.59783411863E+02  0.12680249188E+03  0.15188926017E+03  0.47000000000E+01 0. -1.
        -11    1    6    6    0    0  0.13628530188E+02 -0.22298415080E+02  0.25002428450E+02  0.36167355150E+02  0.00000000000E+00 0.  1.
         12    1    6    6    0    0  0.78029115246E+01  0.56632248050E+02  0.35665788695E+01  0.57278420302E+02  0.00000000000E+00 0. -1.
         -5    1    3    3    0  503 -0.23975959625E+02  0.26851234087E+02 -0.17752010102E+02  0.40411128104E+02  0.47000000000E+01 0.  1.
         13    1    4    4    0    0 -0.34921483642E+02 -0.32189797636E+02  0.58648469535E+02  0.75467450404E+02  0.00000000000E+00 0. -1.
        -14    1    4    4    0    0 -0.20803450768E+02  0.30788142442E+02  0.15258859220E+03  0.15704767349E+03  0.00000000000E+00 0.  1.
</event>
<event>
12    1  0.1565987E-001  0.2239274E+03  0.7818608E-02  0.1132210E+00
         21   -1    0    0  503  502  0.00000000000E+00  0.00000000000E+00  0.46587362153E+03  0.46587362153E+03  0.00000000000E+00 0. -1.
         21   -1    0    0  501  503 -0.00000000000E+00 -0.00000000000E+00 -0.18119748978E+03  0.18119748978E+03  0.00000000000E+00 0. -1.
          6    2    1    2  501    0  0.19165415095E+02  0.13231310779E+03  0.35161109255E+03  0.41335384699E+03  0.17133876032E+03 0.  0.
         24    2    3    3    0    0  0.24972390113E+02  0.42412166796E+02  0.28862688884E+03  0.30333112175E+03  0.79258288548E+02 0.  0.
         -6    2    1    2    0  502 -0.19165415095E+02 -0.13231310779E+03 -0.66934960808E+02  0.23371726432E+03  0.17963685321E+03 0.  0.
        -24    2    5    5    0    0  0.54065407720E+02 -0.55428221602E+02 -0.11789027729E+02  0.11397920408E+03  0.82806531903E+02 0.  0.
          5    1    3    3  501    0 -0.58069750186E+01  0.89900940998E+02  0.62984203716E+02  0.11002272524E+03  0.47000000000E+01 0. -1.
        -11    1    4    4    0    0  0.40160481013E+02  0.57566895504E+02  0.24258001976E+03  0.25253094401E+03  0.00000000000E+00 0.  1.
         12    1    4    4    0    0 -0.15188090900E+02 -0.15154728708E+02  0.46046869077E+02  0.50800177748E+02  0.00000000000E+00 0. -1.
         -5    1    5    5    0  502 -0.73230822815E+02 -0.76884886192E+02 -0.55145933079E+02  0.11973806024E+03  0.47000000000E+01 0.  1.
         11    1    6    6    0    0 -0.67898939158E+00 -0.57590009322E+02 -0.13539899704E+02  0.59164170612E+02  0.00000000000E+00 0. -1.
        -12    1    6    6    0    0  0.54744397111E+02  0.21617877198E+01  0.17508719746E+01  0.54815033466E+02  0.00000000000E+00 0.  1.
</event>
<event>
12    1  0.1565987E-001  0.2827374E+03  0.7818608E-02  0.1094575E+00
         21   -1    0    0  501  502  0.00000000000E+00  0.00000000000E+00  0.25271208398E+03  0.25271208398E+03  0.00000000000E+00 0.  1.
         21   -1    0    0  502  503 -0.00000000000E+00 -0.00000000000E+00 -0.31798938513E+03  0.31798938513E+03  0.00000000000E+00 0. -1.
         -6    2    1    2    0  503 -0.18047308732E+03  0.13423321250E+03 -0.67251030680E+02  0.28795719926E+03  0.16675598007E+03 0.  0.
        -24    2    3    3    0    0 -0.17919374787E+03  0.15740970969E+03 -0.50902715246E+02  0.25917970547E+03  0.87720107896E+02 0.  0.
          6    2    1    2  501    0  0.18047308732E+03 -0.13423321250E+03  0.19737295289E+01  0.28274426985E+03  0.17132231594E+03 0.  0.
         24    2    5    5    0    0  0.43386199668E+02 -0.71302754780E+02 -0.45850534796E+02  0.12443347573E+03  0.80093527710E+02 0.  0.
          5    1    5    5  501    0  0.13708688766E+03 -0.62930457722E+02  0.47824264325E+02  0.15831079412E+03  0.47000000000E+01 0. -1.
        -13    1    6    6    0    0 -0.15496581209E+02 -0.27110186222E+02  0.91453709929E+01  0.32538347173E+02  0.00000000000E+00 0.  1.
         14    1    6    6    0    0  0.58882780877E+02 -0.44192568559E+02 -0.54995905789E+02  0.91895128561E+02  0.00000000000E+00 0. -1.
         -5    1    3    3    0  503 -0.12793394542E+01 -0.23176497184E+02 -0.16348315434E+02  0.28777493787E+02  0.47000000000E+01 0.  1.
         11    1    4    4    0    0 -0.97498678092E+02  0.34956602274E+02 -0.41808595709E+02  0.11169563531E+03  0.00000000000E+00 0. -1.
        -12    1    4    4    0    0 -0.81695069778E+02  0.12245310741E+03 -0.90941195372E+01  0.14748407016E+03  0.00000000000E+00 0.  1.
</event>
<event>
12    1  0.1565987E-001  0.3020554E+03  0.7818608E-02  0.1084275E+00
         21   -1    0    0  501  502  0.00000000000E+00  0.00000000000E+00  0.55523520145E+03  0.55523520145E+03  0.00000000000E+00 0. -1.
         21   -1    0    0  502  503 -0.00000000000E+00 -0.00000000000E+00 -0.29593471348E+03  0.29593471348E+03  0.00000000000E+00 0. -1.
         -6    2    1    2    0  503 -0.12396475147E+03  0.21464672536E+03 -0.15449390228E+03  0.33885825312E+03  0.17180242591E+03 0.  0.
        -24    2    3    3    0    0 -0.13805320244E+03  0.14338856146E+03 -0.15368521496E+03  0.26606433614E+03  0.86902930955E+02 0.  0.
          6    2    1    2  501    0  0.12396475147E+03 -0.21464672536E+03  0.41379439024E+03  0.51231166181E+03  0.17261797448E+03 0.  0.
         24    2    5    5    0    0  0.13065535233E+03 -0.23007652788E+03  0.41018443521E+03  0.49448009652E+03  0.79077589706E+02 0.  0.
          5    1    5    5  501    0 -0.66906008573E+01  0.15429802515E+02  0.36099550375E+01  0.17831565295E+02  0.47000000000E+01 0. -1.
        -11    1    6    6    0    0  0.30819343479E+02 -0.12789028057E+03  0.22442166409E+03  0.26013619339E+03  0.00000000000E+00 0.  1.
         12    1    6    6    0    0  0.99836008848E+02 -0.10218624731E+03  0.18576277112E+03  0.23434390313E+03  0.00000000000E+00 0. -1.
         -5    1    3    3    0  503  0.14088450968E+02  0.71258163903E+02 -0.80868731919E+00  0.72793916976E+02  0.47000000000E+01 0.  1.
         13    1    4    4    0    0 -0.11555658559E+03  0.14781254958E+03 -0.11205059867E+03  0.21853423290E+03  0.00000000000E+00 0. -1.
        -14    1    4    4    0    0 -0.22496616850E+02 -0.44239881233E+01 -0.41634616289E+02  0.47530103242E+02  0.00000000000E+00 0.  1.
</event>
<event>
12    1  0.1565987E-001  0.2070686E+03  0.7818608E-02  0.1144065E+00
         21   -1    0    0  503  502  0.00000000000E+00  0.00000000000E+00  0.69379867276E+03  0.69379867276E+03  0.00000000000E+00 0. -1.
         21   -1    0    0  501  503 -0.00000000000E+00 -0.00000000000E+00 -0.68134123824E+02  0.68134123824E+02  0.00000000000E+00 0.  1.
          6    2    1    2  501    0 -0.11497342431E+03  0.16727557288E+01  0.19511416595E+03  0.28451179666E+03  0.17220841522E+03 0.  0.
         24    2    3    3    0    0 -0.68903793626E+02  0.54639184598E+02  0.61723129073E+02  0.13370360000E+03  0.79584764384E+02 0.  0.
         -6    2    1    2    0  502  0.11497342431E+03 -0.16727557288E+01  0.43055038298E+03  0.47742099992E+03  0.17127607092E+03 0.  0.
        -24    2    5    5    0    0  0.12414686212E+03  0.40236464216E+02  0.38728070952E+03  0.41630725909E+03  0.79334542126E+02 0.  0.
          5    1    3    3  501    0 -0.46069630686E+02 -0.52966428869E+02  0.13339103688E+03  0.15080819665E+03  0.47000000000E+01 0. -1.
        -13    1    4    4    0    0  0.43284778005E+01  0.36975421687E+02  0.15006107673E+01  0.37258144904E+02  0.00000000000E+00 0.  1.
         14    1    4    4    0    0 -0.73232271427E+02  0.17663762910E+02  0.60222518306E+02  0.96445455100E+02  0.00000000000E+00 0. -1.
         -5    1    5    5    0  502 -0.91734378049E+01 -0.41909219945E+02  0.43269673457E+02  0.61113740833E+02  0.47000000000E+01 0.  1.
         11    1    6    6    0    0 -0.90176877649E+01  0.13742107264E+02  0.53504191353E+02  0.55971981357E+02  0.00000000000E+00 0. -1.
        -12    1    6    6    0    0  0.13316454988E+03  0.26494356952E+02  0.33377651817E+03  0.36033527773E+03  0.00000000000E+00 0.  1.
</event>
<event>
12    1  0.1565987E-001  0.1950237E+03  0.7818608E-02  0.1154536E+00
         21   -1    0    0  503  502  0.00000000000E+00  0.00000000000E+00  0.27670789081E+04  0.27670789081E+04  0.00000000000E+00 0. -1.
         21   -1    0    0  501  503 -0.00000000000E+00 -0.00000000000E+00 -0.24754866579E+02  0.24754866579E+02  0.00000000000E+00 0. -1.
          6    2    1    2  501    0  0.79685646372E+02 -0.45697918773E+02  0.42843326267E+03  0.46973885975E+03  0.16929688059E+03 0.  0.
         24    2    3    3    0    0  0.83783408519E+02 -0.18521654603E+02  0.42592202095E+03  0.44174355079E+03  0.79781485980E+02 0.  0.
         -6    2    1    2    0  502 -0.79685646372E+02  0.45697918773E+02  0.23138907788E+04  0.23220949149E+04  0.17203533205E+03 0.  0.
        -24    2    5    5    0    0  0.12661389535E+00  0.64158006956E+02  0.16494391339E+04  0.16525959603E+04  0.79420940179E+02 0.  0.
          5    1    3    3  501    0 -0.40977621467E+01 -0.27176264170E+02  0.25112417265E+01  0.27995308961E+02  0.47000000000E+01 0. -1.
        -13    1    4    4    0    0  0.58267075436E+02 -0.40120069059E+02  0.17743627020E+03  0.19101911423E+03  0.00000000000E+00 0.  1.
         14    1    4    4    0    0  0.25516333083E+02  0.21598414455E+02  0.24848575075E+03  0.25072443656E+03  0.00000000000E+00 0. -1.
         -5    1    5    5    0  502 -0.79812260268E+02 -0.18460088182E+02  0.66445164492E+03  0.66949895458E+03  0.47000000000E+01 0.  1.
         13    1    6    6    0    0 -0.33570124064E+02  0.55244999146E+01  0.62759719195E+03  0.62851866216E+03  0.00000000000E+00 0. -1.
        -14    1    6    6    0    0  0.33696737960E+02  0.58633507041E+02  0.10218419419E+04  0.10240772982E+04  0.00000000000E+00 0.  1.
</event>
<event>
12    1  0.1565987E-001  0.1837123E+03  0.7818608E-02  0.1164485E+00
         21   -1    0    0  503  502  0.00000000000E+00  0.00000000000E+00  0.18951920628E+03  0.18951920628E+03  0.00000000000E+00 0. -1.
         21   -1    0    0  501  503 -0.00000000000E+00 -0.00000000000E+00 -0.17718649573E+03  0.17718649573E+03  0.00000000000E+00 0. -1.
          6    2    1    2  501    0  0.62683501880E+02  0.54266594402E+01  0.86569547541E+01  0.18391614939E+03  0.17260225115E+03 0.  0.
         24    2    3    3    0    0  0.59155425869E+01  0.65897174513E+02  0.32272839854E+01  0.10066438833E+03  0.75798894868E+02 0.  0.
         -6    2    1    2    0  502 -0.62683501880E+02 -0.54266594402E+01  0.36757557971E+01  0.18278955262E+03  0.17158041650E+03 0.  0.
        -24    2    5    5    0    0 -0.47446943738E+02 -0.61506472773E+02 -0.10881409961E+02  0.12269713011E+03  0.94349997311E+02 0.  0.
          5    1    3    3  501    0  0.56767959293E+02 -0.60470515073E+02  0.54296707687E+01  0.83251761064E+02  0.47000000000E+01 0. -1.
        -13    1    4    4    0    0 -0.12265917230E+02  0.23774857801E+02  0.35587382012E+02  0.44521436943E+02  0.00000000000E+00 0.  1.
         14    1    4    4    0    0  0.18181459817E+02  0.42122316712E+02 -0.32360098027E+02  0.56142951388E+02  0.00000000000E+00 0. -1.
         -5    1    5    5    0  502 -0.15236558142E+02  0.56079813333E+02  0.14557165759E+02  0.60092422504E+02  0.47000000000E+01 0.  1.
         11    1    6    6    0    0 -0.10591322839E+02 -0.60383534478E+02  0.29483019563E+02  0.68026434554E+02  0.00000000000E+00 0. -1.
        -12    1    6    6    0    0 -0.36855620899E+02 -0.11229382946E+01 -0.40364429524E+02  0.54670695561E+02  0.00000000000E+00 0.  1.
</event>
<event>
12    1  0.1565987E-001  0.2669020E+03  0.7818608E-02  0.1103446E+00
         21   -1    0    0  501  502  0.00000000000E+00  0.00000000000E+00  0.94243467183E+02  0.94243467183E+02  0.00000000000E+00 0.  1.
         21   -1    0    0  502  503 -0.00000000000E+00 -0.00000000000E+00 -0.84684854901E+03  0.84684854901E+03  0.00000000000E+00 0. -1.
         -6    2    1    2    0  503 -0.11701961169E+03  0.16410952793E+03 -0.53500368085E+03  0.59672728857E+03  0.17096488448E+03 0.  0.
        -24    2    3    3    0    0 -0.13479690625E+02  0.92298001832E+02 -0.36346976637E+03  0.38383439449E+03  0.80733810297E+02 0.  0.
          6    2    1    2  501    0  0.11701961169E+03 -0.16410952793E+03 -0.21760140098E+03  0.34436472763E+03  0.17496047910E+03 0.  0.
         24    2    5    5    0    0  0.85430536327E+02 -0.36359025521E+02 -0.48453389360E+02  0.13000241661E+03  0.77022997287E+02 0.  0.
          5    1    5    5  501    0  0.31589075360E+02 -0.12775050241E+03 -0.16914801162E+03  0.21436231101E+03  0.47000000000E+01 0. -1.
        -13    1    6    6    0    0  0.51534164452E+02 -0.43143954852E+02  0.38359617603E+01  0.67319280661E+02  0.00000000000E+00 0.  1.
         14    1    6    6    0    0  0.33896371875E+02  0.67849293318E+01 -0.52289351121E+02  0.62683135954E+02  0.00000000000E+00 0. -1.
         -5    1    3    3    0  503 -0.10353992106E+03  0.71811526096E+02 -0.17153391448E+03  0.21289289408E+03  0.47000000000E+01 0.  1.
         13    1    4    4    0    0 -0.31172689519E+02  0.92291781176E+02 -0.34399729208E+03  0.35752432981E+03  0.00000000000E+00 0. -1.
        -14    1    4    4    0    0  0.17692998894E+02  0.62206558349E-02 -0.19472474286E+02  0.26310064679E+02  0.00000000000E+00 0.  1.
</event>
<event>
12    1  0.1565987E-001  0.1948396E+03  0.7818608E-02  0.1156134E+00
         21   -1    0    0  503  502  0.00000000000E+00  0.00000000000E+00  0.18031696676E+04  0.18031696676E+04  0.00000000000E+00 0. -1.
         21   -1    0    0  501  503 -0.00000000000E+00 -0.00000000000E+00 -0.45242322667E+02  0.45242322667E+02  0.00000000000E+00 0. -1.
          6    2    1    2  501    0 -0.51585913873E+02 -0.48956333085E+02  0.18124599141E+03  0.25973751849E+03  0.17191753852E+03 0.  0.
         24    2    3    3    0    0 -0.73527352776E+02 -0.74139494821E+02  0.83379370684E+02  0.15622141429E+03  0.80932530726E+02 0.  0.
         -6    2    1    2    0  502  0.51585913873E+02  0.48956333085E+02  0.15766813535E+04  0.15886744718E+04  0.18139641028E+03 0.  0.
        -24    2    5    5    0    0  0.19120355444E+01  0.23627796135E+01  0.28851886751E+03  0.29870426523E+03  0.77277827009E+02 0.  0.
          5    1    3    3  501    0  0.21941438903E+02  0.25183161737E+02  0.97866620724E+02  0.10351610420E+03  0.47000000000E+01 0. -1.
        -11    1    4    4    0    0 -0.49020348789E+02 -0.30534838197E+02  0.88779526403E+02  0.10591116677E+03  0.00000000000E+00 0.  1.
         12    1    4    4    0    0 -0.24507003987E+02 -0.43604656625E+02 -0.54001557183E+01  0.50310247520E+02  0.00000000000E+00 0. -1.
         -5    1    5    5    0  502  0.49673878329E+02  0.46593553471E+02  0.12881624860E+04  0.12899702066E+04  0.47000000000E+01 0.  1.
         13    1    6    6    0    0 -0.30978943837E+02  0.78167089894E+01  0.22210938255E+03  0.22439557419E+03  0.00000000000E+00 0. -1.
        -14    1    6    6    0    0  0.32890979382E+02 -0.54539293759E+01  0.66409484962E+02  0.74308691034E+02  0.00000000000E+00 0.  1.
</event>
<event>
12    1  0.1565987E-001  0.2213111E+03  0.7818608E-02  0.1133267E+00
         21   -1    0    0  501  502  0.00000000000E+00  0.00000000000E+00  0.76403524420E+02  0.76403524420E+02  0.00000000000E+00 0. -1.
         21   -1    0    0  502  503 -0.00000000000E+00 -0.00000000000E+00 -0.65394945794E+03  0.65394945794E+03  0.00000000000E+00 0.  1.
         -6    2    1    2    0  503 -0.11616667881E+03 -0.79376530926E+02 -0.22618219045E+03  0.31509994654E+03  0.16832784115E+03 0.  0.
        -24    2    3    3    0    0 -0.31097612241E+02  0.40601261865E+01 -0.15888456463E+03  0.17817119763E+03  0.74277349687E+02 0.  0.
          6    2    1    2  501    0  0.11616667881E+03  0.79376530926E+02 -0.35136374307E+03  0.41525303582E+03  0.17083112388E+03 0.  0.
         24    2    5    5    0    0  0.35261148364E+02 -0.23083945044E+02 -0.16435047776E+03  0.18713046922E+03  0.78933616826E+02 0.  0.
          5    1    5    5  501    0  0.80905530447E+02  0.10246047597E+03 -0.18701326531E+03  0.22812256660E+03  0.47000000000E+01 0. -1.
        -11    1    6    6    0    0  0.24257708208E+02 -0.25474949839E+02 -0.16504388167E+02  0.38856200349E+02  0.00000000000E+00 0.  1.
         12    1    6    6    0    0  0.11003440156E+02  0.23910047950E+01 -0.14784608960E+03  0.14827426887E+03  0.00000000000E+00 0. -1.
         -5    1    3    3    0  503 -0.85069066570E+02 -0.83436657113E+02 -0.67297625824E+02  0.13692874891E+03  0.47000000000E+01 0.  1.
         13    1    4    4    0    0  0.15118596674E+02  0.17594633875E+02 -0.18238623872E+02  0.29509159719E+02  0.00000000000E+00 0. -1.
        -14    1    4    4    0    0 -0.46216208915E+02 -0.13534507689E+02 -0.14064594075E+03  0.14866203791E+03  0.00000000000E+00 0.  1.
</event>
<event>
12    1  0.1565987E-001  0.2032801E+03  0.7818608E-02  0.1147052E+00
         21   -1    0    0  503  502  0.00000000000E+00  0.00000000000E+00  0.34249436266E+03  0.34249436266E+03  0.00000000000E+00 0. -1.
         21   -1    0    0  501  503 -0.00000000000E+00 -0.00000000000E+00 -0.28159914845E+03  0.28159914845E+03  0.00000000000E+00 0.  1.
          6    2    1    2  501    0  0.10829397915E+03  0.64643287816E+01 -0.20557789413E+03  0.28893574153E+03  0.17161648730E+03 0.  0.
         24    2    3    3    0    0 -0.59341082204E+01  0.92348886463E+01 -0.13252864742E+03  0.15323749397E+03  0.76140596023E+02 0.  0.
         -6    2    1    2    0  502 -0.10829397915E+03 -0.64643287816E+01  0.26647310833E+03  0.33515776958E+03  0.17191113861E+03 0.  0.
        -24    2    5    5    0    0 -0.68933064924E+02 -0.65259121323E+02  0.21026901681E+03  0.24467517953E+03  0.81500697482E+02 0.  0.
          5    1    3    3  501    0  0.11422808737E+03 -0.27705598647E+01 -0.73049246701E+02  0.13569824756E+03  0.47000000000E+01 0. -1.
        -11    1    4    4    0    0  0.25602087205E+02  0.23903820543E+02 -0.98649859915E+02  0.10468359168E+03  0.00000000000E+00 0.  1.
         12    1    4    4    0    0 -0.31536195425E+02 -0.14668931897E+02 -0.33878787509E+02  0.48553902294E+02  0.00000000000E+00 0. -1.
         -5    1    5    5    0  502 -0.39360914225E+02  0.58794792542E+02  0.56204091516E+02  0.90482590048E+02  0.47000000000E+01 0.  1.
         13    1    6    6    0    0 -0.37237323978E+02 -0.47692397101E+01  0.14652220625E+03  0.15125515154E+03  0.00000000000E+00 0. -1.
        -14    1    6    6    0    0 -0.31695740946E+02 -0.60489881613E+02  0.63746810567E+02  0.93420027988E+02  0.00000000000E+00 0.  1.
</event>
<event>
12    1  0.1565987E-001  0.1903915E+03  0.7818608E-02  0.1158542E+00
         21   -1    0    0  503  502  0.00000000000E+00  0.00000000000E+00  0.46726423902E+02  0.46726423902E+02  0.00000000000E+00 0.  1.
         21   -1    0    0  501  503 -0.00000000000E+00 -0.00000000000E+00 -0.90186095406E+03  0.90186095406E+03  0.00000000000E+00 0.  1.
          6    2    1    2  501    0 -0.72344530905E+02 -0.39855609546E+02 -0.60846186181E+03  0.63698456008E+03  0.16941455587E+03 0.  0.
         24    2    3    3    0    0 -0.39865246457E+02 -0.82170255660E+02 -0.25141113800E+03  0.27594059798E+03  0.67782479409E+02 0.  0.
         -6    2    1    2    0  502  0.72344530905E+02  0.39855609546E+02 -0.24667266835E+03  0.31160281788E+03  0.17154215236E+03 0.  0.
        -24    2    5    5    0    0  0.94665782680E+02 -0.25218748341E+02 -0.16615673812E+03  0.20559425523E+03  0.71157153410E+02 0.  0.
          5    1    3    3  501    0 -0.32479284448E+02  0.42314646114E+02 -0.35705072381E+03  0.36104396210E+03  0.47000000000E+01 0. -1.
        -13    1    4    4    0    0 -0.40404396004E+01 -0.16750350537E+02 -0.14484066480E+03  0.14586198125E+03  0.00000000000E+00 0.  1.
         14    1    4    4    0    0 -0.35824806856E+02 -0.65419905124E+02 -0.10657047320E+03  0.13007861673E+03  0.00000000000E+00 0. -1.
         -5    1    5    5    0  502 -0.22321251775E+02  0.65074357887E+02 -0.80515930224E+02  0.10600856265E+03  0.47000000000E+01 0.  1.
         11    1    6    6    0    0  0.48959982490E+01  0.16509676654E+02 -0.79467015581E+01  0.18965502570E+02  0.00000000000E+00 0. -1.
        -12    1    6    6    0    0  0.89769784431E+02 -0.41728424995E+02 -0.15821003656E+03  0.18662875266E+03  0.00000000000E+00 0.  1.
</event>
<event>
12    1  0.1565987E-001  0.2171972E+03  0.7818608E-02  0.1138385E+00
         21   -1    0    0  501  502  0.00000000000E+00  0.00000000000E+00  0.22563270184E+03  0.22563270184E+03  0.00000000000E+00 0. -1.
         21   -1    0    0  502  503 -0.00000000000E+00 -0.00000000000E+00 -0.20987084395E+03  0.20987084395E+03  0.00000000000E+00 0. -1.
         -6    2    1    2    0  503 -0.78654927413E+02 -0.78717238213E+02 -0.44856838991E+02  0.22178084978E+03  0.18652508713E+03 0.  0.
        -24    2    3    3    0    0 -0.10405681914E+03 -0.58136333738E+02  0.24201062438E+02  0.14523077805E+03  0.79363924805E+02 0.  0.
          6    2    1    2  501    0  0.78654927413E+02  0.78717238213E+02  0.60618696878E+02  0.21372269601E+03  0.17210393133E+03 0.  0.
         24    2    5    5    0    0  0.62107873355E+02  0.51912024622E+02 -0.30225287489E+02  0.11745720910E+03  0.79563696071E+02 0.  0.
          5    1    5    5  501    0  0.16547054057E+02  0.26805213592E+02  0.90843984367E+02  0.96265486907E+02  0.47000000000E+01 0. -1.
        -13    1    6    6    0    0 -0.16377335718E+02  0.17090112456E+02  0.57551516008E+01  0.24360025430E+02  0.00000000000E+00 0.  1.
         14    1    6    6    0    0  0.78485209073E+02  0.34821912165E+02 -0.35980439090E+02  0.93097183670E+02  0.00000000000E+00 0. -1.
         -5    1    3    3    0  503  0.25401891726E+02 -0.20580904475E+02 -0.69057901429E+02  0.76550071731E+02  0.47000000000E+01 0.  1.
         13    1    4    4    0    0 -0.15363439731E+02 -0.50142973889E+02 -0.17523857826E+01  0.52473078495E+02  0.00000000000E+00 0. -1.
        -14    1    4    4    0    0 -0.88693379408E+02 -0.79933598491E+01  0.25953448220E+02  0.92757699556E+02  0.00000000000E+00 0.  1.
</event>
<event>
12    1  0.1565987E-001  0.1786872E+03  0.7818608E-02  0.1169271E+00
         21   -1    0    0  503  502  0.00000000000E+00  0.00000000000E+00  0.72507989065E+02  0.72507989065E+02  0.00000000000E+00 0. -1.
         21   -1    0    0  501  503 -0.00000000000E+00 -0.00000000000E+00 -0.44276948995E+03  0.44276948995E+03  0.00000000000E+00 0. -1.
          6    2    1    2  501    0  0.36001957152E+02  0.25798297212E+02 -0.21022668997E+03  0.27540196059E+03  0.17230579114E+03 0.  0.
         24    2    3    3    0    0 -0.13347711644E+02  0.98873840767E+01 -0.20756341293E+03  0.22327010841E+03  0.80567047571E+02 0.  0.
         -6    2    1    2    0  502 -0.36001957152E+02 -0.25798297212E+02 -0.16003481092E+03  0.23987551843E+03  0.17311103541E+03 0.  0.
        -24    2    5    5    0    0 -0.78816569858E+02 -0.33929737178E+02 -0.62740330556E+02  0.13316320759E+03  0.80204812992E+02 0.  0.
          5    1    3    3  501    0  0.49349668795E+02  0.15910913135E+02 -0.26632770489E+01  0.52131852179E+02  0.47000000000E+01 0. -1.
        -11    1    4    4    0    0 -0.23637035906E+02  0.34213151243E+01 -0.10936927308E+02  0.26268445758E+02  0.00000000000E+00 0.  1.
         12    1    4    4    0    0  0.10289324262E+02  0.64660689523E+01 -0.19662648562E+03  0.19700166265E+03  0.00000000000E+00 0. -1.
         -5    1    5    5    0  502  0.42814612706E+02  0.81314399663E+01 -0.97294480360E+02  0.10671231084E+03  0.47000000000E+01 0.  1.
         11    1    6    6    0    0 -0.37148705923E+02 -0.50985593638E+02 -0.10087344223E+02  0.63885143999E+02  0.00000000000E+00 0. -1.
        -12    1    6    6    0    0 -0.41667863935E+02  0.17055856459E+02 -0.52652986333E+02  0.69278063586E+02  0.00000000000E+00 0.  1.
</event>
<event>
12    1  0.1565987E-001  0.2110133E+03  0.7818608E-02  0.1141008E+00
         21   -1    0    0  501  502  0.00000000000E+00  0.00000000000E+00  0.35173045341E+03  0.35173045341E+03  0.00000000000E+00 0. -1.
         21   -1    0    0  502  503 -0.00000000000E+00 -0.00000000000E+00 -0.20188022497E+03  0.20188022497E+03  0.00000000000E+00 0.  1.
         -6    2    1    2    0  503  0.93830432397E+02 -0.78312537917E+02  0.24492348966E+03  0.32328644323E+03  0.17201629268E+03 0.  0.
        -24    2    3    3    0    0  0.11730316397E+03 -0.10342155290E+03  0.21308232190E+03  0.27619736036E+03  0.80155199960E+02 0.  0.
          6    2    1    2  501    0 -0.93830432397E+02  0.78312537917E+02 -0.95073261228E+02  0.23032423516E+03  0.17050901636E+03 0.  0.
         24    2    5    5    0    0 -0.10719843176E+03 -0.35350831702E+01 -0.38414993378E+02  0.12977581001E+03  0.62145382455E+02 0.  0.
          5    1    5    5  501    0  0.13367999368E+02  0.81847621088E+02 -0.56658267849E+02  0.10054842515E+03  0.47000000000E+01 0. -1.
        -13    1    6    6    0    0 -0.20538442091E+02  0.15059914839E+02 -0.32019194479E+02  0.40912803052E+02  0.00000000000E+00 0.  1.
         14    1    6    6    0    0 -0.86659989674E+02 -0.18594998010E+02 -0.63957988999E+01  0.88863006954E+02  0.00000000000E+00 0. -1.
         -5    1    3    3    0  503 -0.23472731577E+02  0.25109014981E+02  0.31841167767E+02  0.47089082872E+02  0.47000000000E+01 0.  1.
         11    1    4    4    0    0  0.61847021182E+02 -0.62521827864E+02  0.54938058869E+02  0.10369292792E+03  0.00000000000E+00 0. -1.
        -12    1    4    4    0    0  0.55456142792E+02 -0.40899725034E+02  0.15814426303E+03  0.17250443244E+03  0.00000000000E+00 0.  1.
</event>
<event>
12    1  0.1565987E-001  0.2123935E+03  0.7818608E-02  0.1140096E+00
         21   -1    0    0  501  502  0.00000000000E+00  0.00000000000E+00  0.27761146600E+03  0.27761146600E+03  0.00000000000E+00 0. -1.
         21   -1    0    0  502  503 -0.00000000000E+00 -0.00000000000E+00 -0.16103052122E+03  0.16103052122E+03  0.00000000000E+00 0. -1.
         -6    2    1    2    0  503  0.10812423814E+03  0.52216284469E+02  0.64903462910E+02  0.22208888241E+03  0.17519595018E+03 0.  0.
        -24    2    3    3    0    0  0.54374732938E+02 -0.32760086515E+02  0.66278685188E+02  0.12142124029E+03  0.79501060576E+02 0.  0.
          6    2    1    2  501    0 -0.10812423814E+03 -0.52216284469E+02  0.51677481872E+02  0.21655310481E+03  0.17264788975E+03 0.  0.
         24    2    5    5    0    0 -0.94647461981E+01  0.24983443397E+02  0.30112975875E+02  0.89350073202E+02  0.79767727814E+02 0.  0.
          5    1    5    5  501    0 -0.98659491938E+02 -0.77199727866E+02  0.21564505997E+02  0.12720303161E+03  0.47000000000E+01 0. -1.
        -11    1    6    6    0    0 -0.39973868437E+02 -0.33317504169E+01  0.42299354299E+01  0.40334886543E+02  0.00000000000E+00 0.  1.
         12    1    6    6    0    0  0.30509122239E+02  0.28315193814E+02  0.25883040445E+02  0.49015186659E+02  0.00000000000E+00 0. -1.
         -5    1    3    3    0  503  0.53749505198E+02  0.84976370984E+02 -0.13752222784E+01  0.10066764212E+03  0.47000000000E+01 0.  1.
         13    1    4    4    0    0  0.34117140907E+02  0.23830266228E+02  0.26138073328E+02  0.49143257619E+02  0.00000000000E+00 0. -1.
        -14    1    4    4    0    0  0.20257592032E+02 -0.56590352743E+02  0.40140611860E+02  0.72277982671E+02  0.00000000000E+00 0.  1.
</event>
<event>
12    1  0.1565987E-001  0.1898475E+03  0.7818608E-02  0.1158699E+00
         21   -1    0    0  501  502  0.00000000000E+00  0.00000000000E+00  0.14732122819E+04  0.14732122819E+04  0.00000000000E+00 0. -1.
         21   -1    0    0  502  503 -0.00000000000E+00 -0.00000000000E+00 -0.66788307951E+02  0.66788307951E+02  0.00000000000E+00 0. -1.
         -6    2    1    2    0  503 -0.28281271817E+02 -0.73074260128E+02  0.89540039493E+02  0.20950241715E+03  0.17243597737E+03 0.  0.
        -24    2    3    3    0    0 -0.35090569431E+02  0.24943357156E+02  0.35034263196E+02  0.97044471762E+02  0.79603459552E+02 0.  0.
          6    2    1    2  501    0  0.28281271817E+02  0.73074260128E+02  0.13168839344E+04  0.13304981727E+04  0.17292314158E+03 0.  0.
         24    2    5    5    0    0 -0.33531411608E+02  0.10801569521E+01  0.82966475901E+03  0.83410259088E+03  0.79107505769E+02 0.  0.
          5    1    5    5  501    0  0.61812683425E+02  0.71994103176E+02  0.48721917543E+03  0.49639558180E+03  0.47000000000E+01 0. -1.
        -11    1    6    6    0    0 -0.42879268899E+02 -0.10680925528E+02  0.22758294355E+03  0.23183336703E+03  0.00000000000E+00 0.  1.
         12    1    6    6    0    0  0.93478572907E+01  0.11761082480E+02  0.60208181545E+03  0.60226922385E+03  0.00000000000E+00 0. -1.
         -5    1    3    3    0  503  0.68092976140E+01 -0.98017617284E+02  0.54505776297E+02  0.11245794539E+03  0.47000000000E+01 0.  1.
         11    1    4    4    0    0 -0.55900137657E+02  0.31043156297E+02  0.11365311715E+02  0.64943615955E+02  0.00000000000E+00 0. -1.
        -12    1    4    4    0    0  0.20809568226E+02 -0.60997991414E+01  0.23668951481E+02  0.32100855807E+02  0.00000000000E+00 0.  1.
</event>
<event>
12    1  0.1565987E-001  0.1848747E+03  0.7818608E-02  0.1163182E+00
         21   -1    0    0  501  502  0.00000000000E+00  0.00000000000E+00  0.91230542000E+02  0.91230542000E+02  0.00000000000E+00 0.  1.
         21   -1    0    0  502  503 -0.00000000000E+00 -0.00000000000E+00 -0.91510508225E+03  0.91510508225E+03  0.00000000000E+00 0.  1.
         -6    2    1    2    0  503  0.65943910082E+02  0.13152459949E+02 -0.79864247263E+03  0.81974701649E+03  0.17214466442E+03 0.  0.
        -24    2    3    3    0    0 -0.18736763083E+02 -0.20661254738E+02 -0.25302021573E+03  0.26653826662E+03  0.79028249821E+02 0.  0.
          6    2    1    2  501    0 -0.65943910082E+02 -0.13152459949E+02 -0.25232067620E+02  0.18658860775E+03  0.17221226677E+03 0.  0.
         24    2    5    5    0    0 -0.61500000306E+02 -0.63072625839E+02 -0.52030374202E+02  0.12956220569E+03  0.79490874542E+02 0.  0.
          5    1    5    5  501    0 -0.44439097767E+01  0.49920165890E+02  0.26798306583E+02  0.57026402063E+02  0.47000000000E+01 0. -1.
        -13    1    6    6    0    0 -0.35935550358E+02  0.59119164876E+01  0.46183237274E+01  0.36710263553E+02  0.00000000000E+00 0.  1.
         14    1    6    6    0    0 -0.25564449948E+02 -0.68984542327E+02 -0.56648697930E+02  0.92851942135E+02  0.00000000000E+00 0. -1.
         -5    1    3    3    0  503  0.84680673166E+02  0.33813714688E+02 -0.54562225690E+03  0.55320874987E+03  0.47000000000E+01 0.  1.
         13    1    4    4    0    0 -0.16934420064E+02  0.17755235771E+01 -0.23986152129E+03  0.24046512526E+03  0.00000000000E+00 0. -1.
        -14    1    4    4    0    0 -0.18023430195E+01 -0.22436778315E+02 -0.13158694431E+02  0.26073141365E+02  0.00000000000E+00 0.  1.
</event>
<event>
12    1  0.1565987E-001  0.2109279E+03  0.7818608E-02  0.1141544E+00
         21   -1    0    0  503  502  0.00000000000E+00  0.00000000000E+00  0.17534542412E+03  0.17534542412E+03  0.00000000000E+00 0.  1.
         21   -1    0    0  501  503 -0.00000000000E+00 -0.00000000000E+00 -0.26304703267E+03  0.26304703267E+03  0.00000000000E+00 0. -1.
          6    2    1    2  501    0 -0.78854463857E+01  0.12184486633E+03 -0.94044583096E+02  0.23094361126E+03  0.17199481463E+03 0.  0.
         24    2    3    3    0    0 -0.32785329234E+01  0.70518347788E+02 -0.13223320188E+03  0.16663112599E+03  0.72778611681E+02 0.  0.
         -6    2    1    2    0  502  0.78854463857E+01 -0.12184486633E+03  0.63429745552E+01  0.20744884553E+03  0.16759009060E+03 0.  0.
        -24    2    5    5    0    0  0.49340704851E+02 -0.62297113211E+02 -0.43614532472E+02  0.11923141038E+03  0.77449766356E+02 0.  0.
          5    1    3    3  501    0 -0.46069134623E+01  0.51326518540E+02  0.38188618782E+02  0.64312485270E+02  0.47000000000E+01 0. -1.
        -11    1    4    4    0    0  0.10803151837E+02 -0.12854494644E+02 -0.20064134759E+02  0.26163249526E+02  0.00000000000E+00 0.  1.
         12    1    4    4    0    0 -0.14081684760E+02  0.83372842432E+02 -0.11216906712E+03  0.14046787647E+03  0.00000000000E+00 0. -1.
         -5    1    5    5    0  502 -0.41455258465E+02 -0.59547753117E+02  0.49957507027E+02  0.88217435148E+02  0.47000000000E+01 0.  1.
         13    1    6    6    0    0  0.31497837469E+01 -0.95468946770E+01 -0.47939866843E+02  0.48982600672E+02  0.00000000000E+00 0. -1.
        -14    1    6    6    0    0  0.46190921104E+02 -0.52750218534E+02  0.43253343715E+01  0.70248809707E+02  0.00000000000E+00 0.  1.
</event>
<event>
12    1  0.1565987E-001  0.2126137E+03  0.7818608E-02  0.1140649E+00
         21   -1    0    0  501  502  0.00000000000E+00  0.00000000000E+00  0.46017845951E+02  0.46017845951E+02  0.00000000000E+00 0. -1.
         21   -1    0    0  502  503 -0.00000000000E+00 -0.00000000000E+00 -0.11689820845E+04  0.11689820845E+04  0.00000000000E+00 0.  1.
         -6    2    1    2    0  503 -0.11221976627E+03  0.40651037086E+02 -0.82707810234E+03  0.85396883006E+03  0.17595110849E+03 0.  0.
        -24    2    3    3    0    0 -0.60700638123E+02 -0.26295968539E+02 -0.64306944534E+03  0.65144130606E+03  0.80382947667E+02 0.  0.
          6    2    1    2  501    0  0.11221976627E+03 -0.40651037086E+02 -0.29588613624E+03  0.36103110043E+03  0.16896469187E+03 0.  0.
         24    2    5    5    0    0  0.65995359193E+02  0.36149870033E+02 -0.16970965477E+03  0.20618385434E+03  0.89711840529E+02 0.  0.
          5    1    5    5  501    0  0.46224407076E+02 -0.76800907118E+02 -0.12617648147E+03  0.15484724608E+03  0.47000000000E+01 0. -1.
        -11    1    6    6    0    0 -0.20584834041E+02  0.26932338565E+01 -0.14449353535E+02  0.25293728841E+02  0.00000000000E+00 0.  1.
         12    1    6    6    0    0  0.86580193233E+02  0.33456636176E+02 -0.15526030124E+03  0.18089012550E+03  0.00000000000E+00 0. -1.
         -5    1    3    3    0  503 -0.51519128146E+02  0.66947005625E+02 -0.18400865700E+03  0.20252752400E+03  0.47000000000E+01 0.  1.
         11    1    4    4    0    0 -0.29327648848E+02 -0.36974442142E+02 -0.14976155296E+03  0.15702147338E+03  0.00000000000E+00 0. -1.
        -12    1    4    4    0    0 -0.31372989275E+02  0.10678473603E+02 -0.49330789238E+03  0.49441983267E+03  0.00000000000E+00 0.  1.
</event>
<event>
12    1  0.1565987E-001  0.1734078E+03  0.7818608E-02  0.1174445E+00
         21   -1    0    0  501  502  0.00000000000E+00  0.00000000000E+00  0.10465738114E+03  0.10465738114E+03  0.00000000000E+00 0. -1.
         21   -1    0    0  502  503 -0.00000000000E+00 -0.00000000000E+00 -0.29526345686E+03  0.29526345686E+03  0.00000000000E+00 0. -1.
         -6    2    1    2    0  503  0.19484166857E+02  0.13234564414E+02 -0.12937252645E+03  0.21601916446E+03  0.17138331995E+03 0.  0.
        -24    2    3    3    0    0  0.50187939699E+02  0.66772635772E+02 -0.61352176471E+02  0.12405229671E+03  0.68172344702E+02 0.  0.
          6    2    1    2  501    0 -0.19484166857E+02 -0.13234564414E+02 -0.61233549270E+02  0.18390167354E+03  0.17180073201E+03 0.  0.
         24    2    5    5    0    0 -0.42833388110E+02  0.50806156299E+02 -0.39142741468E+02  0.11209294265E+03  0.81343155382E+02 0.  0.
          5    1    5    5  501    0  0.23349221253E+02 -0.64040720712E+02 -0.22090807802E+02  0.71808730889E+02  0.47000000000E+01 0. -1.
        -11    1    6    6    0    0  0.76775893129E+01  0.20488511672E+02  0.19252387517E+02  0.29144105979E+02  0.00000000000E+00 0.  1.
         12    1    6    6    0    0 -0.50510977423E+02  0.30317644627E+02 -0.58395128985E+02  0.82948836671E+02  0.00000000000E+00 0. -1.
         -5    1    3    3    0  503 -0.30703772842E+02 -0.53538071358E+02 -0.68020349982E+02  0.91966867747E+02  0.47000000000E+01 0.  1.
         11    1    4    4    0    0  0.26201479535E+02  0.72360724829E+02 -0.62873745272E+02  0.99376555948E+02  0.00000000000E+00 0. -1.
        -12    1    4    4    0    0  0.23986460165E+02 -0.55880890567E+01  0.15215688013E+01  0.24675740762E+02  0.00000000000E+00 0.  1.
</event>
<event>
12    1  0.1565987E-001  0.1940944E+03  0.7818608E-02  0.1155554E+00
         21   -1    0    0  503  502  0.00000000000E+00  0.00000000000E+00  0.37957299955E+02  0.37957299955E+02  0.00000000000E+00 0. -1.
         21   -1    0    0  501  503 -0.00000000000E+00 -0.00000000000E+00 -0.16610486266E+04  0.16610486266E+04  0.00000000000E+00 0.  1.
          6    2    1    2  501    0 -0.33966139626E+02 -0.82952049306E+02 -0.13613555325E+04  0.13751223636E+04  0.17215657968E+03 0.  0.
         24    2    3    3    0    0 -0.14490216069E+02  0.26266401641E+02 -0.62118833586E+03  0.62667226468E+03  0.77092726551E+02 0.  0.
         -6    2    1    2    0  502  0.33966139626E+02  0.82952049306E+02 -0.26173579412E+03  0.32388356291E+03  0.16840485526E+03 0.  0.
        -24    2    5    5    0    0  0.65718326692E+02  0.37490278432E+02 -0.88163988739E+02  0.14160839835E+03  0.80966845880E+02 0.  0.
          5    1    3    3  501    0 -0.19475923557E+02 -0.10921845095E+03 -0.74016719664E+03  0.74845009894E+03  0.47000000000E+01 0. -1.
        -11    1    4    4    0    0 -0.35051394192E+02  0.40774604664E+02 -0.50104130335E+03  0.50391820396E+03  0.00000000000E+00 0.  1.
         12    1    4    4    0    0  0.20561178123E+02 -0.14508203024E+02 -0.12014703251E+03  0.12275406071E+03  0.00000000000E+00 0. -1.
         -5    1    5    5    0  502 -0.31752187066E+02  0.45461770874E+02 -0.17357180538E+03  0.18227516456E+03  0.47000000000E+01 0.  1.
         11    1    6    6    0    0  0.43500119435E+02  0.44643064761E+02 -0.98110291027E+02  0.11623636620E+03  0.00000000000E+00 0. -1.
        -12    1    6    6    0    0  0.22218207257E+02 -0.71527863290E+01  0.99463022881E+01  0.25372032146E+02  0.00000000000E+00 0.  1.
</event>
<event>
12    1  0.1565987E-001  0.1997476E+03  0.7818608E-02  0.1150015E+00
         21   -1    0    0  501  502  0.00000000000E+00  0.00000000000E+00  0.28319676600E+03  0.28319676600E+03  0.00000000000E+00 0.  1.
         21   -1    0    0  502  503 -0.00000000000E+00 -0.00000000000E+00 -0.15414018946E+03  0.15414018946E+03  0.00000000000E+00 0. -1.
         -6    2    1    2    0  503  0.94747101529E+02  0.32858976463E+02 -0.46896681241E-01  0.19974764919E+03  0.17274951686E+03 0.  0.
        -24    2    3    3    0    0  0.91596392605E+02 -0.37000380943E+02  0.15994301069E+02  0.12784725414E+03  0.79562399386E+02 0.  0.
          6    2    1    2  501    0 -0.94747101529E+02 -0.32858976463E+02  0.12910347321E+03  0.23758930627E+03  0.17240721004E+03 0.  0.
         24    2    5    5    0    0 -0.11743098821E+03 -0.25250067798E+02  0.14841609357E+03  0.20648429845E+03  0.78618227915E+02 0.  0.
          5    1    5    5  501    0  0.22683886684E+02 -0.76089086648E+01 -0.19312620355E+02  0.31105007814E+02  0.47000000000E+01 0. -1.
        -11    1    6    6    0    0 -0.49133379092E+02 -0.63411304478E+01  0.12055519215E+03  0.13033745905E+03  0.00000000000E+00 0.  1.
         12    1    6    6    0    0 -0.68297609121E+02 -0.18908937350E+02  0.27860901416E+02  0.76146839403E+02  0.00000000000E+00 0. -1.
         -5    1    3    3    0  503  0.31507089247E+01  0.69859357406E+02 -0.16041197750E+02  0.71900395055E+02  0.47000000000E+01 0.  1.
         11    1    4    4    0    0 -0.44291855247E+01  0.15571991006E+02 -0.37196225415E+01  0.16611447262E+02  0.00000000000E+00 0. -1.
        -12    1    4    4    0    0  0.96025578129E+02 -0.52572371949E+02  0.19713923610E+02  0.11123580688E+03  0.00000000000E+00 0.  1.
</event>
<event>
12    1  0.1565987E-001  0.2076606E+03  0.7818608E-02  0.1143543E+00
         21   -1    0    0  501  502  0.00000000000E+00  0.00000000000E+00  0.12763215648E+03  0.12763215648E+03  0.00000000000E+00 0. -1.
         21   -1    0    0  502  503 -0.00000000000E+00 -0.00000000000E+00 -0.34998170085E+03  0.34998170085E+03  0.00000000000E+00 0. -1.
         -6    2    1    2    0  503 -0.57548871834E+02  0.98744202449E+02 -0.15736282537E+03  0.26054940898E+03  0.17338006098E+03 0.  0.
        -24    2    3    3    0    0 -0.74186523943E+02  0.47442743322E+02 -0.16728704421E+03  0.20551095610E+03  0.80593695070E+02 0.  0.
          6    2    1    2  501    0  0.57548871834E+02 -0.98744202449E+02 -0.64986719008E+02  0.21706444835E+03  0.17271772035E+03 0.  0.
         24    2    5    5    0    0 -0.78752751433E+00  0.42584011541E+01 -0.58373158222E+02  0.98411589035E+02  0.79111699992E+02 0.  0.
          5    1    5    5  501    0  0.58336399349E+02 -0.10300260360E+03 -0.66135607857E+01  0.11865285932E+03  0.47000000000E+01 0. -1.
        -13    1    6    6    0    0  0.50610533581E+01  0.35119343450E+02 -0.41183109781E+01  0.35720344774E+02  0.00000000000E+00 0.  1.
         14    1    6    6    0    0 -0.58485808724E+01 -0.30860942296E+02 -0.54254847244E+02  0.62691244261E+02  0.00000000000E+00 0. -1.
         -5    1    3    3    0  503  0.16637652109E+02  0.51301459126E+02  0.99242188439E+01  0.55038452884E+02  0.47000000000E+01 0.  1.
         13    1    4    4    0    0 -0.47688697318E+02  0.13404716373E+02 -0.22449492665E+02  0.54386376914E+02  0.00000000000E+00 0. -1.
        -14    1    4    4    0    0 -0.26497826626E+02  0.34038026949E+02 -0.14483755155E+03  0.15112457918E+03  0.00000000000E+00 0.  1.
</event>
<event>
12    1  0.1565987E-001  0.1760591E+03  0.7818608E-02  0.1171825E+00
         21   -1    0    0  503  502  0.00000000000E+00  0.00000000000E+00  0.52041308014E+02  0.52041308014E+02  0.00000000000E+00 0.  1.
         21   -1    0    0  501  503 -0.00000000000E+00 -0.00000000000E+00 -0.66216822941E+03  0.66216822941E+03  0.00000000000E+00 0.  1.
          6    2    1    2  501    0 -0.36857949767E+02  0.14340452833E+02 -0.42048498593E+03  0.45585569380E+03  0.17155941572E+03 0.  0.
         24    2    3    3    0    0 -0.92430991054E+02  0.28025124341E+01 -0.28499937481E+03  0.30888655483E+03  0.75066090415E+02 0.  0.
         -6    2    1    2    0  502  0.36857949767E+02 -0.14340452833E+02 -0.18964193546E+03  0.25835384363E+03  0.17093416213E+03 0.  0.
        -24    2    5    5    0    0 -0.16725647031E+02 -0.56313085654E+01 -0.31291712908E+02  0.90890611775E+02  0.83489359246E+02 0.  0.
          5    1    3    3  501    0  0.55573041287E+02  0.11537940399E+02 -0.13548561112E+03  0.14696913896E+03  0.47000000000E+01 0. -1.
        -11    1    4    4    0    0 -0.43110675952E+02  0.33777160274E+02 -0.18732392198E+03  0.19516577232E+03  0.00000000000E+00 0.  1.
         12    1    4    4    0    0 -0.49320315102E+02 -0.30974647840E+02 -0.97675452830E+02  0.11372078252E+03  0.00000000000E+00 0. -1.
         -5    1    5    5    0  502  0.53583596798E+02 -0.87091442674E+01 -0.15835022255E+03  0.16746323185E+03  0.47000000000E+01 0.  1.
         11    1    6    6    0    0  0.12096546300E+02  0.77124322170E+01 -0.51356381443E+02  0.53322471417E+02  0.00000000000E+00 0. -1.
        -12    1    6    6    0    0 -0.28822193331E+02 -0.13343740782E+02  0.20064668535E+02  0.37568140357E+02  0.00000000000E+00 0.  1.
</event>
<event>
12    1  0.1565987E-001  0.1986370E+03  0.7818608E-02  0.1151032E+00
         21   -1    0    0  501  502  0.00000000000E+00  0.00000000000E+00  0.17447502144E+03  0.17447502144E+03  0.00000000000E+00 0.  1.
         21   -1    0    0  502  503 -0.00000000000E+00 -0.00000000000E+00 -0.24076930529E+03  0.24076930529E+03  0.00000000000E+00 0.  1.
         -6    2    1    2    0  503  0.99874625280E+02 -0.76210399584E+00 -0.85636376606E+02  0.21631056430E+03  0.17170075613E+03 0.  0.
        -24    2    3    3    0    0  0.30478681071E+02  0.23306708517E+02  0.16865632002E+02  0.90120800151E+02  0.79781930381E+02 0.  0.
          6    2    1    2  501    0 -0.99874625280E+02  0.76210399584E+00  0.19342092764E+02  0.19893376243E+03  0.17095322080E+03 0.  0.
         24    2    5    5    0    0 -0.76729021403E+02 -0.56960938096E+02 -0.16041149281E+02  0.12722788830E+03  0.82448322577E+02 0.  0.
          5    1    5    5  501    0 -0.23145603877E+02  0.57723042092E+02  0.35383242046E+02  0.71705874130E+02  0.47000000000E+01 0. -1.
        -11    1    6    6    0    0 -0.75138217744E+02 -0.40293107685E+02  0.19923215371E+02  0.87556957481E+02  0.00000000000E+00 0.  1.
         12    1    6    6    0    0 -0.15908036593E+01 -0.16667830411E+02 -0.35964364652E+02  0.39670930815E+02  0.00000000000E+00 0. -1.
         -5    1    3    3    0  503  0.69395944209E+02 -0.24068812513E+02 -0.10250200861E+03  0.12618976415E+03  0.47000000000E+01 0.  1.
         13    1    4    4    0    0  0.51005867175E+00 -0.26323130374E+02  0.18406325156E+02  0.32124136693E+02  0.00000000000E+00 0. -1.
        -14    1    4    4    0    0  0.29968622400E+02  0.49629838891E+02 -0.15406931539E+01  0.57996663458E+02  0.00000000000E+00 0.  1.
</event>
<event>
12    1  0.1565987E-001  0.1944537E+03  0.7818608E-02  0.1154718E+00
         21   -1    0    0  501  502  0.00000000000E+00  0.00000000000E+00  0.21378969833E+02  0.21378969833E+02  0.00000000000E+00 0. -1.
         21   -1    0    0  502  503 -0.00000000000E+00 -0.00000000000E+00 -0.20043671275E+04  0.20043671275E+04  0.00000000000E+00 0.  1.
         -6    2    1    2    0  503  0.24629326238E+02 -0.86865478340E+02 -0.13474472112E+04  0.13614059742E+04  0.17222086001E+03 0.  0.
        -24    2    3    3    0    0  0.85048808370E+01 -0.11548590855E+03 -0.75355343327E+03  0.76658580288E+03  0.80010551261E+02 0.  0.
          6    2    1    2  501    0 -0.24629326238E+02  0.86865478340E+02 -0.63554094650E+03  0.66434012314E+03  0.17112360886E+03 0.  0.
         24    2    5    5    0    0  0.50920318970E+02  0.57474354973E+02 -0.32781892709E+03  0.34608469389E+03  0.80082370232E+02 0.  0.
          5    1    5    5  501    0 -0.75549645208E+02  0.29391123367E+02 -0.30772201940E+03  0.31825542925E+03  0.47000000000E+01 0. -1.
        -11    1    6    6    0    0 -0.68660214957E+01  0.10588742901E+02 -0.18142303333E+03  0.18186143283E+03  0.00000000000E+00 0.  1.
         12    1    6    6    0    0  0.57786340466E+02  0.46885612072E+02 -0.14639589376E+03  0.16422326106E+03  0.00000000000E+00 0. -1.
         -5    1    3    3    0  503  0.16124445401E+02  0.28620430209E+02 -0.59389377790E+03  0.59482017131E+03  0.47000000000E+01 0.  1.
         11    1    4    4    0    0 -0.35435032072E+02 -0.48374088805E+02 -0.28865591165E+03  0.29481846837E+03  0.00000000000E+00 0. -1.
        -12    1    4    4    0    0  0.43939912909E+02 -0.67111819743E+02 -0.46489752162E+03  0.47176733451E+03  0.00000000000E+00 0.  1.
</event>
<event>
12    1  0.1565987E-001  0.2201980E+03  0.7818608E-02  0.1133744E+00
         21   -1    0    0  501  502  0.00000000000E+00  0.00000000000E+00  0.18554503832E+03  0.18554503832E+03  0.00000000000E+00 0.  1.
         21   -1    0    0  502  503 -0.00000000000E+00 -0.00000000000E+00 -0.52334093632E+03  0.52334093632E+03  0.00000000000E+00 0. -1.
         -6    2    1    2    0  503  0.59332495158E+02  0.12293817046E+03 -0.41971025848E+03  0.47394533375E+03  0.17272330350E+03 0.  0.
        -24    2    3    3    0    0  0.10424384667E+03  0.67083364848E+02 -0.27550623433E+03  0.31284387694E+03  0.81244376888E+02 0.  0.
          6    2    1    2  501    0 -0.59332495158E+02 -0.12293817046E+03  0.81914360478E+02  0.23494064089E+03  0.17278021748E+03 0.  0.
         24    2    5    5    0    0 -0.67784929684E+02 -0.69092353049E+02 -0.12839194282E+02  0.12552792755E+03  0.78891480797E+02 0.  0.
          5    1    5    5  501    0  0.84524345255E+01 -0.53845817413E+02  0.94753554761E+02  0.10941271335E+03  0.47000000000E+01 0. -1.
        -11    1    6    6    0    0 -0.16848012342E+02 -0.64457086954E+01  0.29333423918E+02  0.34436208258E+02  0.00000000000E+00 0.  1.
         12    1    6    6    0    0 -0.50936917342E+02 -0.62646644353E+02 -0.42172618200E+02  0.91091719288E+02  0.00000000000E+00 0. -1.
         -5    1    3    3    0  503 -0.44911351513E+02  0.55854805613E+02 -0.14420402415E+03  0.16110145681E+03  0.47000000000E+01 0.  1.
         13    1    4    4    0    0  0.86499253088E+01  0.50093998042E+02 -0.10409684301E+03  0.11584637488E+03  0.00000000000E+00 0. -1.
        -14    1    4    4    0    0  0.95593921363E+02  0.16989366806E+02 -0.17140939132E+03  0.19699750206E+03  0.00000000000E+00 0.  1.
</event>
<event>
12    1  0.1565987E-001  0.1962769E+03  0.7818608E-02  0.1154456E+00
         21   -1    0    0  501  502  0.00000000000E+00  0.00000000000E+00  0.13736049613E+04  0.13736049613E+04  0.00000000000E+00 0. -1.
         21   -1    0    0  502  503 -0.00000000000E+00 -0.00000000000E+00 -0.37759182551E+02  0.37759182551E+02  0.00000000000E+00 0. -1.
         -6    2    1    2    0  503 -0.47015081126E+01 -0.79110913737E+02  0.10348877213E+04  0.10520587444E+04  0.17191383071E+03 0.  0.
        -24    2    3    3    0    0  0.79061170776E+01  0.63097907868E+01  0.75226100830E+03  0.75649894021E+03  0.79320248209E+02 0.  0.
          6    2    1    2  501    0  0.47015081126E+01  0.79110913737E+02  0.30095805742E+03  0.35930539939E+03  0.17956607935E+03 0.  0.
         24    2    5    5    0    0 -0.53905884056E+02  0.80938441506E+02  0.17580528193E+03  0.22101775176E+03  0.92111203382E+02 0.  0.
          5    1    5    5  501    0  0.58607392169E+02 -0.18275277687E+01  0.12515277549E+03  0.13828764763E+03  0.47000000000E+01 0. -1.
        -13    1    6    6    0    0  0.73678422319E+00  0.33473358867E+02  0.13251719541E+03  0.13668143869E+03  0.00000000000E+00 0.  1.
         14    1    6    6    0    0 -0.54642668279E+02  0.47465082639E+02  0.43288086525E+02  0.84336313066E+02  0.00000000000E+00 0. -1.
         -5    1    3    3    0  503 -0.12607625190E+02 -0.85420704524E+02  0.28262671301E+03  0.29555980424E+03  0.47000000000E+01 0.  1.
         13    1    4    4    0    0 -0.24463614407E+01  0.85466369081E+01  0.74094973648E+03  0.74100306456E+03  0.00000000000E+00 0. -1.
        -14    1    4    4    0    0  0.10352478518E+02 -0.22368461213E+01  0.11311271819E+02  0.15495875652E+02  0.00000000000E+00 0.  1.
</event>
<event>
12    1  0.1565987E-001  0.2197791E+03  0.7818608E-02  0.1134080E+00
         21   -1    0    0  503  502  0.00000000000E+00  0.00000000000E+00  0.63639986710E+02  0.63639986710E+02  0.00000000000E+00 0.  1.
         21   -1    0    0  501  503 -0.00000000000E+00 -0.00000000000E+00 -0.76238283826E+03  0.76238283826E+03  0.00000000000E+00 0.  1.
          6    2    1    2  501    0 -0.13601763986E+03 -0.16437317070E+02 -0.37909314012E+03  0.43810685914E+03  0.17162467013E+03 0.  0.
         24    2    3    3    0    0 -0.15646081585E+03 -0.32148549830E+02 -0.36978288034E+03  0.41029432210E+03  0.78029071523E+02 0.  0.
         -6    2    1    2    0  502  0.13601763986E+03  0.16437317070E+02 -0.31964971143E+03  0.38791596583E+03  0.17184840640E+03 0.  0.
        -24    2    5    5    0    0  0.18734355438E+01  0.23249096647E+02 -0.14374008835E+03  0.16653992063E+03  0.80810283452E+02 0.  0.
          5    1    3    3  501    0  0.20443175991E+02  0.15711232760E+02 -0.93102597746E+01  0.27812537038E+02  0.47000000000E+01 0. -1.
        -13    1    4    4    0    0 -0.61845520920E+02  0.14876286265E+02 -0.82341889001E+02  0.10404979113E+03  0.00000000000E+00 0.  1.
         14    1    4    4    0    0 -0.94615294928E+02 -0.47024836096E+02 -0.28744099134E+03  0.30624453097E+03  0.00000000000E+00 0. -1.
         -5    1    5    5    0  502  0.13414420431E+03 -0.68117795763E+01 -0.17590962309E+03  0.22137604519E+03  0.47000000000E+01 0.  1.
         11    1    6    6    0    0 -0.16469369568E+02 -0.24847388272E+02 -0.33305881052E+02  0.44698037435E+02  0.00000000000E+00 0. -1.
        -12    1    6    6    0    0  0.18342805112E+02  0.48096484918E+02 -0.11043420729E+03  0.12184188320E+03  0.00000000000E+00 0.  1.
</event>
<event>
12    1  0.1565987E-001  0.2747034E+03  0.7818608E-02  0.1098925E+00
         21   -1    0    0  503  502  0.00000000000E+00  0.00000000000E+00  0.13188162260E+04  0.13188162260E+04  0.00000000000E+00 0.  1.
         21   -1    0    0  501  503 -0.00000000000E+00 -0.00000000000E+00 -0.19634161076E+03  0.19634161076E+03  0.00000000000E+00 0. -1.
          6    2    1    2  501    0 -0.13865001104E+03  0.15812451843E+03 -0.78156028574E+02  0.28350207430E+03  0.17331437459E+03 0.  0.
         24    2    3    3    0    0 -0.14093488939E+03  0.10819883581E+03 -0.48316891454E+01  0.19464070358E+03  0.79322299200E+02 0.  0.
         -6    2    1    2    0  502  0.13865001104E+03 -0.15812451843E+03  0.12006306439E+04  0.12316557625E+04  0.17673365681E+03 0.  0.
        -24    2    5    5    0    0  0.42339897764E+02 -0.35160127370E+01  0.30695490124E+03  0.31959334639E+03  0.78189298317E+02 0.  0.
          5    1    3    3  501    0  0.22848783519E+01  0.49925682614E+02 -0.73324339429E+02  0.88861370720E+02  0.47000000000E+01 0. -1.
        -11    1    4    4    0    0 -0.34809506269E+02  0.20702279365E+02  0.32716571694E+02  0.52064000625E+02  0.00000000000E+00 0.  1.
         12    1    4    4    0    0 -0.10612538312E+03  0.87496556448E+02 -0.37548260840E+02  0.14257670295E+03  0.00000000000E+00 0. -1.
         -5    1    5    5    0  502  0.96310113273E+02 -0.15460850569E+03  0.89367574262E+03  0.91206241612E+03  0.47000000000E+01 0.  1.
         13    1    6    6    0    0 -0.10815615493E+02  0.25057386297E+02  0.12303302453E+03  0.12602370916E+03  0.00000000000E+00 0. -1.
        -14    1    6    6    0    0  0.53155513256E+02 -0.28573399034E+02  0.18392187671E+03  0.19356963722E+03  0.00000000000E+00 0.  1.
</event>
<event>
12    1  0.1565987E-001  0.2868436E+03  0.7818608E-02  0.1092138E+00
         21   -1    0    0  503  502  0.00000000000E+00  0.00000000000E+00  0.45581840780E+03  0.45581840780E+03  0.00000000000E+00 0.  1.
         21   -1    0    0  501  503 -0.00000000000E+00 -0.00000000000E+00 -0.17990522418E+03  0.17990522418E+03  0.00000000000E+00 0. -1.
          6    2    1    2  501    0  0.20364168916E+03 -0.10321001897E+03  0.13558384403E+03  0.31639374271E+03  0.17204585459E+03 0.  0.
         24    2    3    3    0    0  0.17975123479E+03 -0.23656515915E+02  0.68177115306E+02  0.20931773822E+03  0.79345190979E+02 0.  0.
         -6    2    1    2    0  502 -0.20364168916E+03  0.10321001897E+03  0.14032933958E+03  0.31932988928E+03  0.17365773538E+03 0.  0.
        -24    2    5    5    0    0 -0.18173195825E+03  0.10464841060E+03  0.17036448748E+03  0.28182915077E+03  0.80161194725E+02 0.  0.
          5    1    3    3  501    0  0.23890454375E+02 -0.79553503051E+02  0.67406728727E+02  0.10707600448E+03  0.47000000000E+01 0. -1.
        -11    1    4    4    0    0 -0.71986653805E+01  0.15859128587E+01  0.89450765006E+01  0.11590957530E+02  0.00000000000E+00 0.  1.
         12    1    4    4    0    0  0.18694990017E+03 -0.25242428773E+02  0.59232038806E+02  0.19772678069E+03  0.00000000000E+00 0. -1.
         -5    1    5    5    0  502 -0.21909730915E+02 -0.14383916386E+01 -0.30035147897E+02  0.37500738506E+02  0.47000000000E+01 0.  1.
         11    1    6    6    0    0 -0.42930972934E+02  0.68839120655E+02  0.59264455590E+02  0.10046974005E+03  0.00000000000E+00 0. -1.
        -12    1    6    6    0    0 -0.13880098531E+03  0.35809289948E+02  0.11110003189E+03  0.18135941072E+03  0.00000000000E+00 0.  1.
</event>
<event>
12    1  0.1565987E-001  0.1902157E+03  0.7818608E-02  0.1158375E+00
         21   -1    0    0  503  502  0.00000000000E+00  0.00000000000E+00  0.35006477794E+03  0.35006477794E+03  0.00000000000E+00 0.  1.
         21   -1    0    0  501  503 -0.00000000000E+00 -0.00000000000E+00 -0.10556099864E+03  0.10556099864E+03  0.00000000000E+00 0.  1.
          6    2    1    2  501    0  0.19599719657E+02 -0.77452487535E+02  0.87300674754E+02  0.20885703406E+03  0.17209536899E+03 0.  0.
         24    2    3    3    0    0  0.76589042162E+02 -0.38441316467E+02  0.35330554041E+02  0.12229700983E+03  0.79779034674E+02 0.  0.
         -6    2    1    2    0  502 -0.19599719657E+02  0.77452487535E+02  0.15720310455E+03  0.24676874252E+03  0.17262375088E+03 0.  0.
        -24    2    5    5    0    0  0.65945741742E+01  0.10979679068E+03  0.79253202297E+02  0.15827822192E+03  0.81682934614E+02 0.  0.
          5    1    3    3  501    0 -0.56989322506E+02 -0.39011171068E+02  0.51970120713E+02  0.86560024230E+02  0.47000000000E+01 0. -1.
        -13    1    4    4    0    0  0.10667722539E+02 -0.40472643908E+02  0.37659344286E+02  0.56303298492E+02  0.00000000000E+00 0.  1.
         14    1    4    4    0    0  0.65921319624E+02  0.20313274419E+01 -0.23287902446E+01  0.65993711338E+02  0.00000000000E+00 0. -1.
         -5    1    5    5    0  502 -0.26194293831E+02 -0.32344303141E+02  0.77949902253E+02  0.88490520601E+02  0.47000000000E+01 0.  1.
         11    1    6    6    0    0  0.31850988106E+02  0.11869176185E+02  0.90725659888E+01  0.35180594655E+02  0.00000000000E+00 0. -1.
        -12    1    6    6    0    0 -0.25256413932E+02  0.97927614491E+02  0.70180636308E+02  0.12309762726E+03  0.00000000000E+00 0.  1.
</event>
<event>
12    1  0.1565987E-001  0.1775692E+03  0.7818608E-02  0.1170209E+00
         21   -1    0    0  503  502  0.00000000000E+00  0.00000000000E+00  0.32160698052E+02  0.32160698052E+02  0.00000000000E+00 0.  1.
         21   -1    0    0  501  503 -0.00000000000E+00 -0.00000000000E+00 -0.16226658470E+04  0.16226658470E+04  0.00000000000E+00 0.  1.
          6    2    1    2  501    0  0.16087330307E+02  0.42466516561E+02 -0.13159167404E+04  0.13278256081E+04  0.17152775468E+03 0.  0.
         24    2    3    3    0    0 -0.11967730521E+02 -0.40069944337E+02 -0.61252688360E+03  0.61903880343E+03  0.79189835264E+02 0.  0.
         -6    2    1    2    0  502 -0.16087330307E+02 -0.42466516561E+02 -0.27458840859E+03  0.32700093700E+03  0.17166424043E+03 0.  0.
        -24    2    5    5    0    0  0.58063240143E+01  0.28963314166E+02 -0.21230927521E+03  0.22962366413E+03  0.82335969182E+02 0.  0.
          5    1    3    3  501    0  0.28055060828E+02  0.82536460898E+02 -0.70338985679E+03  0.70878680465E+03  0.47000000000E+01 0. -1.
        -11    1    4    4    0    0 -0.81339972530E+01 -0.40344908223E+02 -0.61365459699E+03  0.61503320068E+03  0.00000000000E+00 0.  1.
         12    1    4    4    0    0 -0.38337332684E+01  0.27496388566E+00  0.11277133913E+01  0.40056027517E+01  0.00000000000E+00 0. -1.
         -5    1    5    5    0  502 -0.21893654321E+02 -0.71429830726E+02 -0.62279133378E+02  0.97377272869E+02  0.47000000000E+01 0.  1.
         13    1    6    6    0    0 -0.26296085257E+02 -0.12375668107E+02 -0.12038106782E+03  0.12383958475E+03  0.00000000000E+00 0. -1.
        -14    1    6    6    0    0  0.32102409271E+02  0.41338982273E+02 -0.91928207390E+02  0.10578407938E+03  0.00000000000E+00 0.  1.
</event>
<event>
12    1  0.1565987E-001  0.2139613E+03  0.7818608E-02  0.1139909E+00
         21   -1    0    0  501  502  0.00000000000E+00  0.00000000000E+00  0.49285993218E+03  0.49285993218E+03  0.00000000000E+00 0. -1.
         21   -1    0    0  502  503 -0.00000000000E+00 -0.00000000000E+00 -0.91847979866E+02  0.91847979866E+02  0.00000000000E+00 0.  1.
         -6    2    1    2    0  503  0.12699908989E+02  0.12546103859E+03  0.24145343218E+03  0.31780278040E+03  0.16369815951E+03 0.  0.
        -24    2    3    3    0    0 -0.14562203232E+02  0.14814179171E+03  0.20512462779E+03  0.26681737706E+03  0.83410740086E+02 0.  0.
          6    2    1    2  501    0 -0.12699908989E+02 -0.12546103859E+03  0.15955852014E+03  0.26690513165E+03  0.17285157813E+03 0.  0.
         24    2    5    5    0    0  0.43512078225E+01 -0.13801708059E+03  0.69531806859E+02  0.17430224898E+03  0.80491951716E+02 0.  0.
          5    1    5    5  501    0 -0.17051116811E+02  0.12556041997E+02  0.90026713284E+02  0.92602882675E+02  0.47000000000E+01 0. -1.
        -13    1    6    6    0    0 -0.24051663805E+02 -0.11288012129E+03  0.29434785087E+02  0.11910839974E+03  0.00000000000E+00 0.  1.
         14    1    6    6    0    0  0.28402871628E+02 -0.25136959295E+02  0.40097021772E+02  0.55193849243E+02  0.00000000000E+00 0. -1.
         -5    1    3    3    0  503  0.27262112221E+02 -0.22680753124E+02  0.36328804386E+02  0.50985403334E+02  0.47000000000E+01 0.  1.
         13    1    4    4    0    0  0.81786304133E+01  0.85203222021E+02  0.17205774494E+03  0.19217270002E+03  0.00000000000E+00 0. -1.
        -14    1    4    4    0    0 -0.22740833646E+02  0.62938569692E+02  0.33066882850E+02  0.74644677045E+02  0.00000000000E+00 0.  1.
</event>
<event>
12    1  0.1565987E-001  0.2322168E+03  0.7818608E-02  0.1127055E+00
         21   -1    0    0  501  502  0.00000000000E+00  0.00000000000E+00  0.17419681663E+03  0.17419681663E+03  0.00000000000E+00 0. -1.
         21   -1    0    0  502  503 -0.00000000000E+00 -0.00000000000E+00 -0.29531598536E+03  0.29531598536E+03  0.00000000000E+00 0. -1.
         -6    2    1    2    0  503 -0.24131051974E+02  0.13701452370E+03 -0.69176266694E+02  0.24230146704E+03  0.18592836707E+03 0.  0.
        -24    2    3    3    0    0  0.50210815295E+02  0.11824155083E+03 -0.63761326644E+02  0.16529140720E+03  0.82179998819E+02 0.  0.
          6    2    1    2  501    0  0.24131051974E+02 -0.13701452370E+03 -0.51942902035E+02  0.22721133496E+03  0.17196406103E+03 0.  0.
         24    2    5    5    0    0  0.61977969378E+02 -0.14020119301E+03 -0.68085403807E+02  0.18567563487E+03  0.79637779761E+02 0.  0.
          5    1    5    5  501    0 -0.37846917403E+02  0.31866693060E+01  0.16142501772E+02  0.41535700086E+02  0.47000000000E+01 0. -1.
        -13    1    6    6    0    0  0.12108726039E+02  0.91998931100E+01 -0.50160835214E+01  0.16013131281E+02  0.00000000000E+00 0.  1.
         14    1    6    6    0    0  0.49869243338E+02 -0.14940108612E+03 -0.63069320285E+02  0.16966250359E+03  0.00000000000E+00 0. -1.
         -5    1    3    3    0  503 -0.74341867269E+02  0.18772972874E+02 -0.54149400507E+01  0.77010059832E+02  0.47000000000E+01 0.  1.
         11    1    4    4    0    0 -0.15552636522E+02  0.10719677747E+01  0.19664250968E+01  0.15713066071E+02  0.00000000000E+00 0. -1.
        -12    1    4    4    0    0  0.65763451816E+02  0.11716958305E+03 -0.65727751741E+02  0.14957834113E+03  0.00000000000E+00 0.  1.
</event>
<event>
12    1  0.1565987E-001  0.2573709E+03  0.7818608E-02  0.1108870E+00
         21   -1    0    0  503  502  0.00000000000E+00  0.00000000000E+00  0.12160848558E+03  0.12160848558E+03  0.00000000000E+00 0. -1.
         21   -1    0    0  501  503 -0.00000000000E+00 -0.00000000000E+00 -0.74796599896E+03  0.74796599896E+03  0.00000000000E+00 0. -1.
          6    2    1    2  501    0 -0.17091778355E+03  0.86566172054E+02 -0.54128881345E+03  0.59936080561E+03  0.17185227626E+03 0.  0.
         24    2    3    3    0    0 -0.95566988886E+02  0.87884494806E+02 -0.21164527873E+03  0.26117974432E+03  0.81020991369E+02 0.  0.
         -6    2    1    2    0  502  0.17091778355E+03 -0.86566172054E+02 -0.85068699925E+02  0.27021367893E+03  0.17050559432E+03 0.  0.
        -24    2    5    5    0    0  0.19787953834E+03 -0.80397393085E+02 -0.78628515641E+02  0.24142902974E+03  0.80532480512E+02 0.  0.
          5    1    3    3  501    0 -0.75350794666E+02 -0.13183227524E+01 -0.32964353472E+03  0.33818106129E+03  0.47000000000E+01 0. -1.
        -13    1    4    4    0    0 -0.10533349308E+03  0.55968397345E+02 -0.15743018906E+03  0.19751422909E+03  0.00000000000E+00 0.  1.
         14    1    4    4    0    0  0.97665041966E+01  0.31916097461E+02 -0.54215089666E+02  0.63665515225E+02  0.00000000000E+00 0. -1.
         -5    1    5    5    0  502 -0.26961754793E+02 -0.61687789685E+01 -0.64401842843E+01  0.28784649191E+02  0.47000000000E+01 0.  1.
         13    1    6    6    0    0  0.88605432735E+02 -0.67507701069E+02 -0.10207339801E+02  0.11185884945E+03  0.00000000000E+00 0. -1.
        -14    1    6    6    0    0  0.10927410561E+03 -0.12889692016E+02 -0.68421175840E+02  0.12957018029E+03  0.00000000000E+00 0.  1.
</event>
<event>
12    1  0.1565987E-001  0.2299394E+03  0.7818608E-02  0.1127027E+00
         21   -1    0    0  501  502  0.00000000000E+00  0.00000000000E+00  0.45077890905E+03  0.45077890905E+03  0.00000000000E+00 0. -1.
         21   -1    0    0  502  503 -0.00000000000E+00 -0.00000000000E+00 -0.12717799514E+03  0.12717799514E+03  0.00000000000E+00 0. -1.
         -6    2    1    2    0  503  0.14797632883E+03 -0.17168555978E+02  0.76650940118E+02  0.24053070693E+03  0.17259171807E+03 0.  0.
        -24    2    3    3    0    0  0.14978407343E+03 -0.31628827493E+02  0.11226871307E+02  0.17333869719E+03  0.80527075717E+02 0.  0.
          6    2    1    2  501    0 -0.14797632883E+03  0.17168555978E+02  0.24694997378E+03  0.33742619726E+03  0.17515820231E+03 0.  0.
         24    2    5    5    0    0 -0.17088455326E+02  0.45745467509E+02  0.11956558287E+03  0.15250148730E+03  0.81093229802E+02 0.  0.
          5    1    5    5  501    0 -0.13088787351E+03 -0.28576911532E+02  0.12738439092E+03  0.18492470996E+03  0.47000000000E+01 0. -1.
        -13    1    6    6    0    0 -0.11785103123E+02 -0.17712345017E+02  0.56769719017E+01  0.22019169639E+02  0.00000000000E+00 0.  1.
         14    1    6    6    0    0 -0.53033522037E+01  0.63457812526E+02  0.11388861096E+03  0.13048231766E+03  0.00000000000E+00 0. -1.
         -5    1    3    3    0  503 -0.18077445964E+01  0.14460271515E+02  0.65424068811E+02  0.67192009738E+02  0.47000000000E+01 0.  1.
         13    1    4    4    0    0  0.77722640772E+02  0.20436916638E+02 -0.12483698041E+02  0.81328464679E+02  0.00000000000E+00 0. -1.
        -14    1    4    4    0    0  0.72061432658E+02 -0.52065744131E+02  0.23710569348E+02  0.92010232515E+02  0.00000000000E+00 0.  1.
</event>
<event>
12    1  0.1565987E-001  0.1946133E+03  0.7818608E-02  0.1155095E+00
         21   -1    0    0  503  502  0.00000000000E+00  0.00000000000E+00  0.13104293744E+03  0.13104293744E+03  0.00000000000E+00 0.  1.
         21   -1    0    0  501  503 -0.00000000000E+00 -0.00000000000E+00 -0.29818468850E+03  0.29818468850E+03  0.00000000000E+00 0.  1.
          6    2    1    2  501    0  0.90753388502E+00 -0.87192765021E+02 -0.36296317689E+02  0.19471776529E+03  0.17027678512E+03 0.  0.
         24    2    3    3    0    0 -0.40887309063E+02 -0.11137461431E+03 -0.27911328469E+02  0.14548394788E+03  0.79438404301E+02 0.  0.
         -6    2    1    2    0  502 -0.90753388502E+00  0.87192765021E+02 -0.13084543337E+03  0.23450986065E+03  0.17398547474E+03 0.  0.
        -24    2    5    5    0    0 -0.47586218474E+02  0.10723109239E+02 -0.21397635708E+02  0.92991599417E+02  0.76224310347E+02 0.  0.
          5    1    3    3  501    0  0.41794842948E+02  0.24181849293E+02 -0.83849892192E+01  0.49233817408E+02  0.47000000000E+01 0. -1.
        -13    1    4    4    0    0 -0.35620469278E+01 -0.10325912008E+03 -0.28857719732E+02  0.10727489010E+03  0.00000000000E+00 0.  1.
         14    1    4    4    0    0 -0.37325262136E+02 -0.81154942371E+01  0.94639126286E+00  0.38209057782E+02  0.00000000000E+00 0. -1.
         -5    1    5    5    0  502  0.46678684589E+02  0.76469655782E+02 -0.10944779766E+03  0.14151826124E+03  0.47000000000E+01 0.  1.
         13    1    6    6    0    0  0.11362462195E+01 -0.23623753530E+02  0.99277333689E+01  0.25650198365E+02  0.00000000000E+00 0. -1.
        -14    1    6    6    0    0 -0.48722464694E+02  0.34346862769E+02 -0.31325369077E+02  0.67341401052E+02  0.00000000000E+00 0.  1.
</event>
<event>
12    1  0.1565987E-001  0.2002008E+03  0.7818608E-02  0.1150358E+00
         21   -1    0    0  503  502  0.00000000000E+00  0.00000000000E+00  0.29010550834E+03  0.29010550834E+03  0.00000000000E+00 0. -1.
         21   -1    0    0  501  503 -0.00000000000E+00 -0.00000000000E+00 -0.21899483004E+03  0.21899483004E+03  0.00000000000E+00 0.  1.
          6    2    1    2  501    0 -0.85374194833E+02  0.40243287923E+02 -0.12130412188E+03  0.23408345294E+03  0.17655621651E+03 0.  0.
         24    2    3    3    0    0 -0.64345246197E+02  0.95443430356E+02 -0.10379632395E+03  0.17229441351E+03  0.75245790274E+02 0.  0.
         -6    2    1    2    0  502  0.85374194833E+02 -0.40243287923E+02  0.19241480017E+03  0.27501688544E+03  0.17234429665E+03 0.  0.
        -24    2    5    5    0    0  0.42350670969E+02 -0.31064868897E+02  0.20716461033E+03  0.22838091348E+03  0.80511244276E+02 0.  0.
          5    1    3    3  501    0 -0.21028948635E+02 -0.55200142433E+02 -0.17507797930E+02  0.61789039430E+02  0.47000000000E+01 0. -1.
        -13    1    4    4    0    0 -0.38124660817E+02  0.66974310504E+02 -0.19434785086E+02  0.79478040371E+02  0.00000000000E+00 0.  1.
         14    1    4    4    0    0 -0.26220585381E+02  0.28469119853E+02 -0.84361538862E+02  0.92816373135E+02  0.00000000000E+00 0. -1.
         -5    1    5    5    0  502  0.43023523864E+02 -0.91784190262E+01 -0.14749810160E+02  0.46635971966E+02  0.47000000000E+01 0.  1.
         13    1    6    6    0    0  0.25151887099E+02  0.41934595597E+01  0.17717763325E+03  0.17900311799E+03  0.00000000000E+00 0. -1.
        -14    1    6    6    0    0  0.17198783870E+02 -0.35258328457E+02  0.29986977085E+02  0.49377795484E+02  0.00000000000E+00 0.  1.
</event>
<event>
12    1  0.1565987E-001  0.1774063E+03  0.7818608E-02  0.1170369E+00
         21   -1    0    0  503  502  0.00000000000E+00  0.00000000000E+00  0.32211992149E+03  0.32211992149E+03  0.00000000000E+00 0. -1.
         21   -1    0    0  501  503 -0.00000000000E+00 -0.00000000000E+00 -0.97890647278E+02  0.97890647278E+02  0.00000000000E+00 0. -1.
          6    2    1    2  501    0  0.42387972392E+02 -0.10700932676E+02  0.12289422154E+03  0.21581468693E+03  0.17193527632E+03 0.  0.
         24    2    3    3    0    0 -0.99724079949E+00  0.18237999289E+02 -0.19151511476E+02  0.64425061215E+02  0.58738309590E+02 0.  0.
         -6    2    1    2    0  502 -0.42387972392E+02  0.10700932676E+02  0.10133505267E+03  0.20419588184E+03  0.17180196476E+03 0.  0.
        -24    2    5    5    0    0 -0.41200084528E+02 -0.58838025788E+02  0.68498302659E+02  0.12714122608E+03  0.79457621778E+02 0.  0.
          5    1    3    3  501    0  0.43385213192E+02 -0.28938931965E+02  0.14204573301E+03  0.15138962571E+03  0.47000000000E+01 0. -1.
        -13    1    4    4    0    0 -0.17393769299E+01 -0.21436114925E+02 -0.36019554328E+01  0.21806112403E+02  0.00000000000E+00 0.  1.
         14    1    4    4    0    0  0.74213613039E+00  0.39674114214E+02 -0.15549556043E+02  0.42618948812E+02  0.00000000000E+00 0. -1.
         -5    1    5    5    0  502 -0.11878878640E+01  0.69538958464E+02  0.32836750014E+02  0.77054655754E+02  0.47000000000E+01 0.  1.
         11    1    6    6    0    0  0.13293285023E+02 -0.32223665358E+02 -0.10394130505E+01  0.34873434235E+02  0.00000000000E+00 0. -1.
        -12    1    6    6    0    0 -0.54493369552E+02 -0.26614360429E+02  0.69537715710E+02  0.92267791847E+02  0.00000000000E+00 0.  1.
</event>
<event>
12    1  0.1565987E-001  0.2128344E+03  0.7818608E-02  0.1139388E+00
         21   -1    0    0  501  502  0.00000000000E+00  0.00000000000E+00  0.73534600624E+03  0.73534600624E+03  0.00000000000E+00 0.  1.
         21   -1    0    0  502  503 -0.00000000000E+00 -0.00000000000E+00 -0.23601827031E+03  0.23601827031E+03  0.00000000000E+00 0. -1.
         -6    2    1    2    0  503 -0.11401383164E+03 -0.52806427134E+02 -0.16789914531E+03  0.27108783634E+03  0.17178713417E+03 0.  0.
        -24    2    3    3    0    0 -0.24081958488E+02 -0.65563737507E+02 -0.14270994807E+03  0.17671052745E+03  0.77342981803E+02 0.  0.
          6    2    1    2  501    0  0.11401383164E+03  0.52806427134E+02  0.66722688123E+03  0.70027644021E+03  0.17148676077E+03 0.  0.
         24    2    5    5    0    0  0.87481593049E+02  0.56291991959E+02  0.24505933805E+03  0.27723550441E+03  0.77353915591E+02 0.  0.
          5    1    5    5  501    0  0.26532238590E+02 -0.34855648249E+01  0.42216754318E+03  0.42304093580E+03  0.47000000000E+01 0. -1.
        -11    1    6    6    0    0 -0.95663519907E+01 -0.85969548544E+01  0.22543003739E+02  0.25953992771E+02  0.00000000000E+00 0.  1.
         12    1    6    6    0    0  0.97047945040E+02  0.64888946814E+02  0.22251633431E+03  0.25128151163E+03  0.00000000000E+00 0. -1.
         -5    1    3    3    0  503 -0.89931873151E+02  0.12757310373E+02 -0.25189197242E+02  0.94377308894E+02  0.47000000000E+01 0.  1.
         13    1    4    4    0    0 -0.36722283334E+02 -0.20168774862E+02 -0.11418206839E+03  0.12162586203E+03  0.00000000000E+00 0. -1.
        -14    1    4    4    0    0  0.12640324846E+02 -0.45394962645E+02 -0.28527879678E+02  0.55084665422E+02  0.00000000000E+00 0.  1.
</event>
<event>
12    1  0.1565987E-001  0.2370609E+03  0.7818608E-02  0.1122026E+00
         21   -1    0    0  501  502  0.00000000000E+00  0.00000000000E+00  0.50546771724E+03  0.50546771724E+03  0.00000000000E+00 0. -1.
         21   -1    0    0  502  503 -0.00000000000E+00 -0.00000000000E+00 -0.22198733198E+03  0.22198733198E+03  0.00000000000E+00 0.  1.
         -6    2    1    2    0  503 -0.13336987316E+03  0.89888045504E+02  0.39977361801E+03  0.46477608300E+03  0.17415647528E+03 0.  0.
        -24    2    3    3    0    0 -0.12287103342E+03  0.18355759211E+01  0.27119756779E+03  0.30851555143E+03  0.80827374755E+02 0.  0.
          6    2    1    2  501    0  0.13336987316E+03 -0.89888045504E+02 -0.11629323275E+03  0.26267896623E+03  0.17207190219E+03 0.  0.
         24    2    5    5    0    0  0.12372443100E+03 -0.75536191436E+02 -0.15151399458E+03  0.22316185178E+03  0.76362755929E+02 0.  0.
          5    1    5    5  501    0  0.96454421593E+01 -0.14351854068E+02  0.35220761837E+02  0.39517114444E+02  0.47000000000E+01 0. -1.
        -13    1    6    6    0    0  0.84356143771E+02 -0.88291423886E+02 -0.10667452130E+03  0.16214434316E+03  0.00000000000E+00 0.  1.
         14    1    6    6    0    0  0.39368287231E+02  0.12755232450E+02 -0.44839473289E+02  0.61017508628E+02  0.00000000000E+00 0. -1.
         -5    1    3    3    0  503 -0.10498839743E+02  0.88052469583E+02  0.12857605022E+03  0.15626053156E+03  0.47000000000E+01 0.  1.
         11    1    4    4    0    0 -0.12208522875E+03  0.24345785240E+02  0.23301307680E+03  0.26418291825E+03  0.00000000000E+00 0. -1.
        -12    1    4    4    0    0 -0.78580467006E+00 -0.22510209319E+02  0.38184490988E+02  0.44332633179E+02  0.00000000000E+00 0.  1.
</event>
<event>
12    1  0.1565987E-001  0.3101704E+03  0.7818608E-02  0.1080433E+00
         21   -1    0    0  503  502  0.00000000000E+00  0.00000000000E+00  0.37274927585E+03  0.37274927585E+03  0.00000000000E+00 0. -1.
         21   -1    0    0  501  503 -0.00000000000E+00 -0.00000000000E+00 -0.40611621765E+03  0.40611621765E+03  0.00000000000E+00 0.  1.
          6    2    1    2  501    0  0.12730932730E+03 -0.22249345138E+03 -0.25269420416E+03  0.39898379882E+03  0.17211249282E+03 0.  0.
         24    2    3    3    0    0 -0.38441235464E+01 -0.55654440753E+02 -0.91502661509E+02  0.13244808535E+03  0.77830355183E+02 0.  0.
         -6    2    1    2    0  502 -0.12730932730E+03  0.22249345138E+03  0.21932726236E+03  0.37988169468E+03  0.17462718349E+03 0.  0.
        -24    2    5    5    0    0 -0.63956624932E+02  0.21847271698E+03  0.14368275132E+03  0.28101859109E+03  0.80659392345E+02 0.  0.
          5    1    3    3  501    0  0.13115345084E+03 -0.16683901063E+03 -0.16119154265E+03  0.26653571347E+03  0.47000000000E+01 0. -1.
        -11    1    4    4    0    0  0.87128373981E+01 -0.68379016787E+02 -0.44214098942E+02  0.81893162215E+02  0.00000000000E+00 0.  1.
         12    1    4    4    0    0 -0.12556960944E+02  0.12724576034E+02 -0.47288562568E+02  0.50554923134E+02  0.00000000000E+00 0. -1.
         -5    1    5    5    0  502 -0.63352702364E+02  0.40207344030E+01  0.75644511034E+02  0.98863103590E+02  0.47000000000E+01 0.  1.
         11    1    6    6    0    0 -0.55035766430E+02  0.16895083471E+03  0.14696795225E+03  0.23059249581E+03  0.00000000000E+00 0. -1.
        -12    1    6    6    0    0 -0.89208585016E+01  0.49521882268E+02 -0.32852009282E+01  0.50426095277E+02  0.00000000000E+00 0.  1.
</event>
<event>
12    1  0.1565987E-001  0.2162799E+03  0.7818608E-02  0.1136903E+00
         21   -1    0    0  501  502  0.00000000000E+00  0.00000000000E+00  0.31281593240E+03  0.31281593240E+03  0.00000000000E+00 0. -1.
         21   -1    0    0  502  503 -0.00000000000E+00 -0.00000000000E+00 -0.15282281114E+03  0.15282281114E+03  0.00000000000E+00 0.  1.
         -6    2    1    2    0  503 -0.10767533572E+03  0.74207954171E+02  0.11777286789E+03  0.24527641429E+03  0.17084868337E+03 0.  0.
        -24    2    3    3    0    0  0.19336775492E+01  0.16156781157E+01  0.20665262427E+02  0.81765707082E+02  0.79071032994E+02 0.  0.
          6    2    1    2  501    0  0.10767533572E+03 -0.74207954171E+02  0.42220253360E+02  0.22036232925E+03  0.17226783791E+03 0.  0.
         24    2    5    5    0    0 -0.14158138449E+02 -0.50720128097E+01  0.24745359047E+02  0.79115609837E+02  0.73625869959E+02 0.  0.
          5    1    5    5  501    0  0.12183347416E+03 -0.69135941361E+02  0.17474894314E+02  0.14124671942E+03  0.47000000000E+01 0. -1.
        -11    1    6    6    0    0  0.56068821785E+01  0.22180324642E+02 -0.14748909222E+02  0.27220107498E+02  0.00000000000E+00 0.  1.
         12    1    6    6    0    0 -0.19765020627E+02 -0.27252337451E+02  0.39494268268E+02  0.51895502339E+02  0.00000000000E+00 0. -1.
         -5    1    3    3    0  503 -0.10960901326E+03  0.72592276055E+02  0.97107605466E+02  0.16351070721E+03  0.47000000000E+01 0.  1.
         13    1    4    4    0    0  0.17672675671E+02  0.25626234621E+02  0.37301759572E+02  0.48584448473E+02  0.00000000000E+00 0. -1.
        -14    1    4    4    0    0 -0.15738998122E+02 -0.24010556506E+02 -0.16636497145E+02  0.33181258609E+02  0.00000000000E+00 0.  1.
</event>
<event>
12    1  0.1565987E-001  0.2046558E+03  0.7818608E-02  0.1146065E+00
         21   -1    0    0  501  502  0.00000000000E+00  0.00000000000E+00  0.42289399155E+03  0.42289399155E+03  0.00000000000E+00 0.  1.
         21   -1    0    0  502  503 -0.00000000000E+00 -0.00000000000E+00 -0.16824039041E+03  0.16824039041E+03  0.00000000000E+00 0.  1.
         -6    2    1    2    0  503  0.20967947709E+02  0.10949063152E+03 -0.62687179046E+02  0.21404128680E+03  0.17162790221E+03 0.  0.
        -24    2    3    3    0    0 -0.41760339854E+02  0.10956238387E+03 -0.41041440537E+02  0.14751707163E+03  0.79555292951E+02 0.  0.
          6    2    1    2  501    0 -0.20967947709E+02 -0.10949063152E+03  0.31734078018E+03  0.37709309516E+03  0.17048805948E+03 0.  0.
         24    2    5    5    0    0 -0.41610332802E+02 -0.41423519894E+02  0.27854988498E+03  0.29593853091E+03  0.80884163213E+02 0.  0.
          5    1    5    5  501    0  0.20642385093E+02 -0.68067111624E+02  0.38790895199E+02  0.81154564243E+02  0.47000000000E+01 0. -1.
        -11    1    6    6    0    0 -0.38800883221E+02 -0.52396295252E+02  0.11658024012E+03  0.13357332324E+03  0.00000000000E+00 0.  1.
         12    1    6    6    0    0 -0.28094495816E+01  0.10972775358E+02  0.16196964486E+03  0.16236520767E+03  0.00000000000E+00 0. -1.
         -5    1    3    3    0  503  0.62728287564E+02 -0.71752348071E-01 -0.21645738509E+02  0.66524215175E+02  0.47000000000E+01 0.  1.
         11    1    4    4    0    0 -0.24945523996E+02  0.38569794684E+02 -0.56626640970E+02  0.72914228357E+02  0.00000000000E+00 0. -1.
        -12    1    4    4    0    0 -0.16814815858E+02  0.70992589182E+02  0.15585200433E+02  0.74602843268E+02  0.00000000000E+00 0.  1.
</event>
<event>
12    1  0.1565987E-001  0.2077114E+03  0.7818608E-02  0.1143802E+00
         21   -1    0    0  501  502  0.00000000000E+00  0.00000000000E+00  0.24933611121E+03  0.24933611121E+03  0.00000000000E+00 0. -1.
         21   -1    0    0  502  503 -0.00000000000E+00 -0.00000000000E+00 -0.35030669984E+03  0.35030669984E+03  0.00000000000E+00 0.  1.
         -6    2    1    2    0  503 -0.68634970361E+02 -0.89178335667E+02 -0.26466174988E+03  0.33518331646E+03  0.17215829656E+03 0.  0.
        -24    2    3    3    0    0  0.28349915889E+02 -0.55375988128E+02 -0.15340974017E+03  0.18369811414E+03  0.79625567281E+02 0.  0.
          6    2    1    2  501    0  0.68634970361E+02  0.89178335667E+02  0.16369116125E+03  0.26445949458E+03  0.17458663550E+03 0.  0.
         24    2    5    5    0    0 -0.12036091121E+02  0.47653789415E+01  0.27668790117E+02  0.85134251315E+02  0.79465102243E+02 0.  0.
          5    1    5    5  501    0  0.80671061482E+02  0.84412956726E+02  0.13602237114E+03  0.17932524327E+03  0.47000000000E+01 0. -1.
        -11    1    6    6    0    0 -0.36137526341E+02  0.22124437568E+02 -0.29514433772E+01  0.42474963988E+02  0.00000000000E+00 0.  1.
         12    1    6    6    0    0  0.24101435220E+02 -0.17359058627E+02  0.30620233495E+02  0.42659287328E+02  0.00000000000E+00 0. -1.
         -5    1    3    3    0  503 -0.96984886250E+02 -0.33802347540E+02 -0.11125200971E+03  0.15148520233E+03  0.47000000000E+01 0.  1.
         11    1    4    4    0    0  0.22325089099E+01 -0.10482951751E+02 -0.12309528982E+03  0.12356102439E+03  0.00000000000E+00 0. -1.
        -12    1    4    4    0    0  0.26117406979E+02 -0.44893036376E+02 -0.30314450355E+02  0.60137089742E+02  0.00000000000E+00 0.  1.
</event>
<event>
12    1  0.1565987E-001  0.1904757E+03  0.7818608E-02  0.1158164E+00
         21   -1    0    0  501  502  0.00000000000E+00  0.00000000000E+00  0.50545505089E+03  0.50545505089E+03  0.00000000000E+00 0. -1.
         21   -1    0    0  502  503 -0.00000000000E+00 -0.00000000000E+00 -0.86880897935E+02  0.86880897935E+02  0.00000000000E+00 0. -1.
         -6    2    1    2    0  503 -0.71346552286E+02  0.39478732129E+02  0.33392559474E+03  0.38443113674E+03  0.17213975502E+03 0.  0.
        -24    2    3    3    0    0 -0.10009396505E+03 -0.82285777304E+01  0.17979340852E+03  0.22047619785E+03  0.78724664133E+02 0.  0.
          6    2    1    2  501    0  0.71346552286E+02 -0.39478732129E+02  0.84648558211E+02  0.20790481208E+03  0.17149382399E+03 0.  0.
         24    2    5    5    0    0  0.58816188957E+02  0.35921353092E+02  0.77887318049E+02  0.13102837080E+03  0.79701392391E+02 0.  0.
          5    1    5    5  501    0  0.12530363329E+02 -0.75400085221E+02  0.67612401622E+01  0.76876441288E+02  0.47000000000E+01 0. -1.
        -11    1    6    6    0    0  0.13952027064E+02  0.47426875545E+02  0.12663520596E+02  0.51032659514E+02  0.00000000000E+00 0.  1.
         12    1    6    6    0    0  0.44864161893E+02 -0.11505522453E+02  0.65223797453E+02  0.79995711282E+02  0.00000000000E+00 0. -1.
         -5    1    3    3    0  503  0.28747412764E+02  0.47707309859E+02  0.15413218622E+03  0.16395493888E+03  0.47000000000E+01 0.  1.
         11    1    4    4    0    0 -0.60708578854E+02 -0.18932454664E+02  0.16539158689E+03  0.17719578550E+03  0.00000000000E+00 0. -1.
        -12    1    4    4    0    0 -0.39385386195E+02  0.10703876933E+02  0.14401821629E+02  0.43280412353E+02  0.00000000000E+00 0.  1.
</event>
<event>
12    1  0.1565987E-001  0.2028519E+03  0.7818608E-02  0.1147806E+00
         21   -1    0    0  503  502  0.00000000000E+00  0.00000000000E+00  0.63133158490E+03  0.63133158490E+03  0.00000000000E+00 0.  1.
         21   -1    0    0  501  503 -0.00000000000E+00 -0.00000000000E+00 -0.80511936471E+02  0.80511936471E+02  0.00000000000E+00 0. -1.
          6    2    1    2  501    0  0.10526167928E+03  0.25315732597E+02  0.11542591046E+03  0.23151385991E+03  0.16898112049E+03 0.  0.
         24    2    3    3    0    0  0.68718418594E+02 -0.74972808854E+01  0.14187583893E+03  0.17553357346E+03  0.76843031337E+02 0.  0.
         -6    2    1    2    0  502 -0.10526167928E+03 -0.25315732597E+02  0.43539373797E+03  0.48032966146E+03  0.17154582239E+03 0.  0.
        -24    2    5    5    0    0 -0.12108826051E+02  0.39005800271E+02  0.24342764240E+03  0.25742208981E+03  0.73082413159E+02 0.  0.
          5    1    3    3  501    0  0.36543260685E+02  0.32813013483E+02 -0.26449928462E+02  0.55980286449E+02  0.47000000000E+01 0. -1.
        -11    1    4    4    0    0  0.80812826112E+02 -0.22151833546E+02  0.12230524974E+03  0.14825650308E+03  0.00000000000E+00 0.  1.
         12    1    4    4    0    0 -0.12094407519E+02  0.14654552661E+02  0.19570589190E+02  0.27277070373E+02  0.00000000000E+00 0. -1.
         -5    1    5    5    0  502 -0.93152853227E+02 -0.64321532869E+02  0.19196609556E+03  0.22290757165E+03  0.47000000000E+01 0.  1.
         11    1    6    6    0    0 -0.36651922471E+02  0.45051421007E+02  0.18025604659E+03  0.18938119307E+03  0.00000000000E+00 0. -1.
        -12    1    6    6    0    0  0.24543096420E+02 -0.60456207354E+01  0.63171595814E+02  0.68040896743E+02  0.00000000000E+00 0.  1.
</event>
<event>
12    1  0.1565987E-001  0.1823630E+03  0.7818608E-02  0.1165866E+00
         21   -1    0    0  503  502  0.00000000000E+00  0.00000000000E+00  0.40701394600E+03  0.40701394600E+03  0.00000000000E+00 0. -1.
         21   -1    0    0  501  503 -0.00000000000E+00 -0.00000000000E+00 -0.84367067131E+02  0.84367067131E+02  0.00000000000E+00 0. -1.
          6    2    1    2  501    0  0.26783507219E+02 -0.47784115612E+02  0.20915911824E+03  0.27658872343E+03  0.17249089026E+03 0.  0.
         24    2    3    3    0    0  0.74553064946E+01 -0.98398057577E+02  0.14492187522E+03  0.19242303057E+03  0.79287536513E+02 0.  0.
         -6    2    1    2    0  502 -0.26783507219E+02  0.47784115612E+02  0.11348776063E+03  0.21479228970E+03  0.17394130601E+03 0.  0.
        -24    2    5    5    0    0 -0.64326976234E+02  0.13960081001E+02  0.12522218831E+03  0.16270232736E+03  0.80365459930E+02 0.  0.
          5    1    3    3  501    0  0.19328200724E+02  0.50613941965E+02  0.64237243023E+02  0.84165692867E+02  0.47000000000E+01 0. -1.
        -11    1    4    4    0    0  0.23369610606E+02 -0.61754498073E+02  0.33469287044E+02  0.74026683752E+02  0.00000000000E+00 0.  1.
         12    1    4    4    0    0 -0.15914304112E+02 -0.36643559504E+02  0.11145258817E+03  0.11839634682E+03  0.00000000000E+00 0. -1.
         -5    1    5    5    0  502  0.37543469016E+02  0.33824034611E+02 -0.11734427684E+02  0.52089962336E+02  0.47000000000E+01 0.  1.
         11    1    6    6    0    0 -0.74842285795E+02  0.29013610676E+02  0.77531956573E+02  0.11159911128E+03  0.00000000000E+00 0. -1.
        -12    1    6    6    0    0  0.10515309561E+02 -0.15053529674E+02  0.47690231740E+02  0.51103216085E+02  0.00000000000E+00 0.  1.
</event>
<event>
12    1  0.1565987E-001  0.2269042E+03  0.7818608E-02  0.1128953E+00
         21   -1    0    0  503  502  0.00000000000E+00  0.00000000000E+00  0.31449770481E+03  0.31449770481E+03  0.00000000000E+00 0. -1.
         21   -1    0    0  501  503 -0.00000000000E+00 -0.00000000000E+00 -0.16462771840E+03  0.16462771840E+03  0.00000000000E+00 0. -1.
          6    2    1    2  501    0  0.66576206820E+02  0.13128614995E+03  0.53085535749E+02  0.23303134591E+03  0.17267625657E+03 0.  0.
         24    2    3    3    0    0 -0.22124874352E+02  0.10526353023E+03  0.33962781406E+02  0.13851770524E+03  0.80397532809E+02 0.  0.
         -6    2    1    2    0  502 -0.66576206820E+02 -0.13128614995E+03  0.96784450659E+02  0.24609407730E+03  0.17183311819E+03 0.  0.
        -24    2    5    5    0    0 -0.19328801727E+02 -0.76302296443E+00  0.61655442022E+02  0.10282949265E+03  0.79989538360E+02 0.  0.
          5    1    3    3  501    0  0.88701081173E+02  0.26022619723E+02  0.19122754344E+02  0.94513640667E+02  0.47000000000E+01 0. -1.
        -13    1    4    4    0    0  0.24777177204E+02  0.58620838673E+02 -0.11027197086E+01  0.63651608209E+02  0.00000000000E+00 0.  1.
         14    1    4    4    0    0 -0.46902051556E+02  0.46642691559E+02  0.35065501114E+02  0.74866097029E+02  0.00000000000E+00 0. -1.
         -5    1    5    5    0  502 -0.47247405093E+02 -0.13052312699E+03  0.35129008637E+02  0.14326458465E+03  0.47000000000E+01 0.  1.
         13    1    6    6    0    0 -0.40492985243E+02 -0.36731442329E+01  0.34242450826E+01  0.40803177533E+02  0.00000000000E+00 0. -1.
        -14    1    6    6    0    0  0.21164183516E+02  0.29101212685E+01  0.58231196939E+02  0.62026315114E+02  0.00000000000E+00 0.  1.
</event>
<event>
12    1  0.1565987E-001  0.1880495E+03  0.7818608E-02  0.1160671E+00
         21   -1    0    0  501  502  0.00000000000E+00  0.00000000000E+00  0.77379765454E+03  0.77379765454E+03  0.00000000000E+00 0.  1.
         21   -1    0    0  502  503 -0.00000000000E+00 -0.00000000000E+00 -0.10581648190E+03  0.10581648190E+03  0.00000000000E+00 0.  1.
         -6    2    1    2    0  503  0.16600264288E+02  0.77629574132E+02  0.19484736791E+01  0.18805958535E+03  0.17047196702E+03 0.  0.
        -24    2    3    3    0    0 -0.31160152423E+02  0.42495025255E+02 -0.47718828753E+02  0.11057136134E+03  0.84688588728E+02 0.  0.
          6    2    1    2  501    0 -0.16600264288E+02 -0.77629574132E+02  0.66603269897E+03  0.69155455108E+03  0.16836336145E+03 0.  0.
         24    2    5    5    0    0 -0.57407212642E+02 -0.91938620406E+02  0.38772196767E+03  0.40986516720E+03  0.76894948363E+02 0.  0.
          5    1    5    5  501    0  0.40806948354E+02  0.14309046274E+02  0.27831073129E+03  0.28168938388E+03  0.47000000000E+01 0. -1.
        -13    1    6    6    0    0 -0.66143811125E+02 -0.34804479148E+02  0.20366447372E+03  0.21694601488E+03  0.00000000000E+00 0.  1.
         14    1    6    6    0    0  0.87365984830E+01 -0.57134141259E+02  0.18405749396E+03  0.19291915232E+03  0.00000000000E+00 0. -1.
         -5    1    3    3    0  503  0.47760416711E+02  0.35134548877E+02  0.49667302433E+02  0.77488224010E+02  0.47000000000E+01 0.  1.
         13    1    4    4    0    0 -0.44647510702E+02  0.50051912082E+02 -0.75074823285E+01  0.67490417141E+02  0.00000000000E+00 0. -1.
        -14    1    4    4    0    0  0.13487358279E+02 -0.75568868267E+01 -0.40211346425E+02  0.43080944200E+02  0.00000000000E+00 0.  1.
</event>
<event>
12    1  0.1565987E-001  0.1956439E+03  0.7818608E-02  0.1153633E+00
         21   -1    0    0  503  502  0.00000000000E+00  0.00000000000E+00  0.31539618148E+03  0.31539618148E+03  0.00000000000E+00 0.  1.
         21   -1    0    0  501  503 -0.00000000000E+00 -0.00000000000E+00 -0.17085605292E+03  0.17085605292E+03  0.00000000000E+00 0.  1.
          6    2    1    2  501    0  0.86476617615E+02  0.34558404715E+02 -0.59110315373E+02  0.20437849553E+03  0.17205827885E+03 0.  0.
         24    2    3    3    0    0  0.53455751582E+02  0.68309535400E+02  0.13675596288E+02  0.11749123897E+03  0.78060612967E+02 0.  0.
         -6    2    1    2    0  502 -0.86476617615E+02 -0.34558404715E+02  0.20365044393E+03  0.28187373888E+03  0.17119232642E+03 0.  0.
        -24    2    5    5    0    0 -0.11237510814E+03 -0.27375318754E+02  0.21163674531E+03  0.25344488830E+03  0.77888551353E+02 0.  0.
          5    1    3    3  501    0  0.33020866033E+02 -0.33751130685E+02 -0.72785911661E+02  0.86887256559E+02  0.47000000000E+01 0. -1.
        -11    1    4    4    0    0  0.24190229666E+02  0.21336711399E+02 -0.32221568455E+02  0.45592235505E+02  0.00000000000E+00 0.  1.
         12    1    4    4    0    0  0.29265521915E+02  0.46972824001E+02  0.45897164743E+02  0.71899003463E+02  0.00000000000E+00 0. -1.
         -5    1    5    5    0  502  0.25898490528E+02 -0.71830859618E+01 -0.79863013801E+01  0.28428850580E+02  0.47000000000E+01 0.  1.
         11    1    6    6    0    0  0.64678704337E+01  0.11961313038E+02  0.14152741109E+02  0.19626676704E+02  0.00000000000E+00 0. -1.
        -12    1    6    6    0    0 -0.11884297858E+03 -0.39336631792E+02  0.19748400420E+03  0.23381821159E+03  0.00000000000E+00 0.  1.
</event>
<event>
12    1  0.1565987E-001  0.2078819E+03  0.7818608E-02  0.1143915E+00
         21   -1    0    0  503  502  0.00000000000E+00  0.00000000000E+00  0.28784953220E+03  0.28784953220E+03  0.00000000000E+00 0.  1.
         21   -1    0    0  501  503 -0.00000000000E+00 -0.00000000000E+00 -0.14837521223E+03  0.14837521223E+03  0.00000000000E+00 0.  1.
          6    2    1    2  501    0  0.98730939453E+02 -0.59097254975E+02  0.83003005346E+02  0.22080908311E+03  0.16919476451E+03 0.  0.
         24    2    3    3    0    0  0.52130570694E+02 -0.87496667334E+02  0.10119982245E+03  0.16309136362E+03  0.77357130414E+02 0.  0.
         -6    2    1    2    0  502 -0.98730939453E+02  0.59097254975E+02  0.56471314620E+02  0.21541566132E+03  0.17313178165E+03 0.  0.
        -24    2    5    5    0    0 -0.34144087491E+02  0.96463051882E+02  0.52010972031E+02  0.14051807204E+03  0.81050899246E+02 0.  0.
          5    1    3    3  501    0  0.46600368759E+02  0.28399412359E+02 -0.18196817108E+02  0.57717719495E+02  0.47000000000E+01 0. -1.
        -13    1    4    4    0    0 -0.44326848686E+01  0.39340186221E+01  0.37832630177E+02  0.38294034833E+02  0.00000000000E+00 0.  1.
         14    1    4    4    0    0  0.56563255562E+02 -0.91430685957E+02  0.63367192277E+02  0.12479732878E+03  0.00000000000E+00 0. -1.
         -5    1    5    5    0  502 -0.64586851962E+02 -0.37365796907E+02  0.44603425897E+01  0.74897589286E+02  0.47000000000E+01 0.  1.
         13    1    6    6    0    0 -0.55563947798E+02  0.93692067160E+02  0.42736880630E+02  0.11701280575E+03  0.00000000000E+00 0. -1.
        -14    1    6    6    0    0  0.21419860307E+02  0.27709847217E+01  0.92740914001E+01  0.23505266287E+02  0.00000000000E+00 0.  1.
</event>
<event>
12    1  0.1565987E-001  0.2363234E+03  0.7818608E-02  0.1122397E+00
         21   -1    0    0  503  502  0.00000000000E+00  0.00000000000E+00  0.15177265333E+03  0.15177265333E+03  0.00000000000E+00 0.  1.
         21   -1    0    0  501  503 -0.00000000000E+00 -0.00000000000E+00 -0.40907090885E+03  0.40907090885E+03  0.00000000000E+00 0. -1.
          6    2    1    2  501    0 -0.15331950509E+03 -0.39695915982E+02 -0.21862357660E+03  0.32137645522E+03  0.17436720259E+03 0.  0.
         24    2    3    3    0    0 -0.10149898664E+03  0.24867692481E+02 -0.18827490966E+03  0.23307607439E+03  0.89199598804E+02 0.  0.
         -6    2    1    2    0  502  0.15331950509E+03  0.39695915982E+02 -0.38674678922E+02  0.23946710696E+03  0.17540275979E+03 0.  0.
        -24    2    5    5    0    0  0.32779527893E+02 -0.36279923961E+02 -0.16663749109E+02  0.95214601303E+02  0.79983807333E+02 0.  0.
          5    1    3    3  501    0 -0.51820518450E+02 -0.64563608463E+02 -0.30348666944E+02  0.88300380835E+02  0.47000000000E+01 0. -1.
        -11    1    4    4    0    0 -0.25167332256E+02  0.42600617611E+02 -0.33986940946E+02  0.60027655198E+02  0.00000000000E+00 0.  1.
         12    1    4    4    0    0 -0.76331654386E+02 -0.17732925130E+02 -0.15428796871E+03  0.17304841919E+03  0.00000000000E+00 0. -1.
         -5    1    5    5    0  502  0.12053997720E+03  0.75975839943E+02 -0.22010929813E+02  0.14425250566E+03  0.47000000000E+01 0.  1.
         11    1    6    6    0    0  0.40361275083E+02 -0.39351607437E+01 -0.38128253844E+02  0.55662211217E+02  0.00000000000E+00 0. -1.
        -12    1    6    6    0    0 -0.75817471901E+01 -0.32344763217E+02  0.21464504734E+02  0.39552390086E+02  0.00000000000E+00 0.  1.
</event>
<event>
12    1  0.1565987E-001  0.1786394E+03  0.7818608E-02  0.1169575E+00
         21   -1    0    0  501  502  0.00000000000E+00  0.00000000000E+00  0.32927944695E+03  0.32927944695E+03  0.00000000000E+00 0. -1.
         21   -1    0    0  502  503 -0.00000000000E+00 -0.00000000000E+00 -0.28744219420E+03  0.28744219420E+03  0.00000000000E+00 0. -1.
         -6    2    1    2    0  503 -0.30629805936E+02 -0.35389939092E+02 -0.23081699318E+03  0.29075790741E+03  0.17050819212E+03 0.  0.
        -24    2    3    3    0    0 -0.42959786063E+02 -0.13620601046E+01 -0.23695501986E+03  0.25374857981E+03  0.79957875717E+02 0.  0.
          6    2    1    2  501    0  0.30629805936E+02  0.35389939092E+02  0.27265424593E+03  0.32596373374E+03  0.17239891267E+03 0.  0.
         24    2    5    5    0    0  0.18852571941E+02  0.60603469799E+02  0.78504184607E+02  0.12977310786E+03  0.81547240927E+02 0.  0.
          5    1    5    5  501    0  0.11777233995E+02 -0.25213530707E+02  0.19415006132E+03  0.19619062588E+03  0.47000000000E+01 0. -1.
        -13    1    6    6    0    0  0.99553092028E+01 -0.19502051810E+02  0.10336615715E+02  0.24213298630E+02  0.00000000000E+00 0.  1.
         14    1    6    6    0    0  0.88972627384E+01  0.80105521609E+02  0.68167568892E+02  0.10555980923E+03  0.00000000000E+00 0. -1.
         -5    1    3    3    0  503  0.12329980127E+02 -0.34027878988E+02  0.61380266795E+01  0.37009327606E+02  0.47000000000E+01 0.  1.
         11    1    4    4    0    0 -0.20241769918E+02 -0.40363844528E+02 -0.13163013620E+03  0.13915984317E+03  0.00000000000E+00 0. -1.
        -12    1    4    4    0    0 -0.22718016146E+02  0.39001784424E+02 -0.10532488366E+03  0.11458873664E+03  0.00000000000E+00 0.  1.
</event>
<event>
12    1  0.1565987E-001  0.1843295E+03  0.7818608E-02  0.1164308E+00
         21   -1    0    0  501  502  0.00000000000E+00  0.00000000000E+00  0.12055908500E+03  0.12055908500E+03  0.00000000000E+00 0. -1.
         21   -1    0    0  502  503 -0.00000000000E+00 -0.00000000000E+00 -0.42347413431E+03  0.42347413431E+03  0.00000000000E+00 0.  1.
         -6    2    1    2    0  503 -0.27001706532E+02 -0.50611620040E+02 -0.31173883931E+03  0.36215807077E+03  0.17517629991E+03 0.  0.
        -24    2    3    3    0    0 -0.32037092862E+02  0.15172444290E+02 -0.26490385525E+03  0.28111176322E+03  0.87138926502E+02 0.  0.
          6    2    1    2  501    0  0.27001706532E+02  0.50611620040E+02  0.88237900023E+01  0.18187514854E+03  0.17236612819E+03 0.  0.
         24    2    5    5    0    0  0.41124153885E+02  0.23377063952E+02  0.67639149540E+02  0.11537326073E+03  0.80611733568E+02 0.  0.
          5    1    5    5  501    0 -0.14122447354E+02  0.27234556088E+02 -0.58815359537E+02  0.66501887808E+02  0.47000000000E+01 0. -1.
        -13    1    6    6    0    0  0.57542350639E+01  0.31669703860E+02 -0.64760270644E+01  0.32833219311E+02  0.00000000000E+00 0.  1.
         14    1    6    6    0    0  0.35369918821E+02 -0.82926399086E+01  0.74115176604E+02  0.82540041417E+02  0.00000000000E+00 0. -1.
         -5    1    3    3    0  503  0.50353863302E+01 -0.65784064330E+02 -0.46834984063E+02  0.81046307550E+02  0.47000000000E+01 0.  1.
         11    1    4    4    0    0 -0.46104134008E+02 -0.14496739201E+02 -0.81182833323E+02  0.94479622387E+02  0.00000000000E+00 0. -1.
        -12    1    4    4    0    0  0.14067041146E+02  0.29669183491E+02 -0.18372102192E+03  0.18663214083E+03  0.00000000000E+00 0.  1.
</event>
<event>
12    1  0.1565987E-001  0.2095254E+03  0.7818608E-02  0.1143980E+00
         21   -1    0    0  503  502  0.00000000000E+00  0.00000000000E+00  0.33765152494E+03  0.33765152494E+03  0.00000000000E+00 0. -1.
         21   -1    0    0  501  503 -0.00000000000E+00 -0.00000000000E+00 -0.13354550929E+03  0.13354550929E+03  0.00000000000E+00 0. -1.
          6    2    1    2  501    0  0.66224334104E+02  0.76823807274E+02  0.36405643619E+02  0.20282362432E+03  0.17182692427E+03 0.  0.
         24    2    3    3    0    0  0.20757962892E+02  0.69379907642E+02 -0.38773581775E+02  0.11452521842E+03  0.79800817058E+02 0.  0.
         -6    2    1    2    0  502 -0.66224334104E+02 -0.76823807274E+02  0.16770037204E+03  0.26837340991E+03  0.18333933722E+03 0.  0.
        -24    2    5    5    0    0  0.50316395851E+01 -0.21715710544E+02  0.15669407141E+03  0.17750237621E+03  0.80356530928E+02 0.  0.
          5    1    3    3  501    0  0.45466371211E+02  0.74438996327E+01  0.75179225395E+02  0.88298405896E+02  0.47000000000E+01 0. -1.
        -11    1    4    4    0    0  0.28705503201E+02 -0.76405576838E+01 -0.53182187949E+01  0.30177267717E+02  0.00000000000E+00 0.  1.
         12    1    4    4    0    0 -0.79475403086E+01  0.77020465326E+02 -0.33455362981E+02  0.84347950705E+02  0.00000000000E+00 0. -1.
         -5    1    5    5    0  502 -0.71255973689E+02 -0.55108096730E+02  0.11006300621E+02  0.90871033696E+02  0.47000000000E+01 0.  1.
         13    1    6    6    0    0  0.79534175670E+01  0.14947364018E+02  0.39708691574E+00  0.16936298890E+02  0.00000000000E+00 0. -1.
        -14    1    6    6    0    0 -0.29217779819E+01 -0.36663074562E+02  0.15629698450E+03  0.16056607732E+03  0.00000000000E+00 0.  1.
</event>
<event>
12    1  0.1565987E-001  0.2582786E+03  0.7818608E-02  0.1108298E+00
         21   -1    0    0  501  502  0.00000000000E+00  0.00000000000E+00  0.15322039329E+03  0.15322039329E+03  0.00000000000E+00 0. -1.
         21   -1    0    0  502  503 -0.00000000000E+00 -0.00000000000E+00 -0.56895454148E+03  0.56895454148E+03  0.00000000000E+00 0.  1.
         -6    2    1    2    0  503  0.67546998015E+01  0.19196102985E+03 -0.38343686459E+03  0.46188480752E+03  0.17151992110E+03 0.  0.
        -24    2    3    3    0    0  0.18555673314E+02  0.11812865608E+03 -0.11759860239E+03  0.18569184228E+03  0.79707820234E+02 0.  0.
          6    2    1    2  501    0 -0.67546998015E+01 -0.19196102985E+03 -0.32297283593E+02  0.26029012725E+03  0.17266491498E+03 0.  0.
         24    2    5    5    0    0  0.42109741759E+02 -0.13322818813E+03 -0.65959548592E+02  0.17666884748E+03  0.85663522903E+02 0.  0.
          5    1    5    5  501    0 -0.48864441560E+02 -0.58732841718E+02  0.33662265000E+02  0.83621279769E+02  0.47000000000E+01 0. -1.
        -13    1    6    6    0    0  0.21432407432E+02 -0.13704650945E+03 -0.42305737284E+02  0.14502023737E+03  0.00000000000E+00 0.  1.
         14    1    6    6    0    0  0.20677334327E+02  0.38183213156E+01 -0.23653811309E+02  0.31648610111E+02  0.00000000000E+00 0. -1.
         -5    1    3    3    0  503 -0.11800973513E+02  0.73832373766E+02 -0.26583826220E+03  0.27619296523E+03  0.47000000000E+01 0.  1.
         11    1    4    4    0    0  0.16660306114E+01  0.96820582908E+02 -0.12441725391E+03  0.15765993151E+03  0.00000000000E+00 0. -1.
        -12    1    4    4    0    0  0.16889642703E+02  0.21308073174E+02  0.68186515219E+01  0.28031910773E+02  0.00000000000E+00 0.  1.
</event>
<event>
12    1  0.1565987E-001  0.2434846E+03  0.7818608E-02  0.1117541E+00
         21   -1    0    0  501  502  0.00000000000E+00  0.00000000000E+00  0.19856307356E+03  0.19856307356E+03  0.00000000000E+00 0.  1.
         21   -1    0    0  502  503 -0.00000000000E+00 -0.00000000000E+00 -0.40847464424E+03  0.40847464424E+03  0.00000000000E+00 0. -1.
         -6    2    1    2    0  503 -0.88331036636E+01 -0.17098459843E+03 -0.26260763528E+03  0.35791603967E+03  0.17270600662E+03 0.  0.
        -24    2    3    3    0    0 -0.35996073446E+02 -0.18560921497E+03 -0.25252995004E+03  0.32512341739E+03  0.78659792012E+02 0.  0.
          6    2    1    2  501    0  0.88331036636E+01  0.17098459843E+03  0.52696064591E+02  0.24912167813E+03  0.17312128313E+03 0.  0.
         24    2    5    5    0    0  0.58445527316E+02  0.16494229412E+03  0.42346359243E+02  0.19786635233E+03  0.82073376870E+02 0.  0.
          5    1    5    5  501    0 -0.49612423653E+02  0.60423043022E+01  0.10349705348E+02  0.51255325799E+02  0.47000000000E+01 0. -1.
        -11    1    6    6    0    0  0.42010328471E+02  0.52961309416E+02  0.50518192601E+02  0.84391088256E+02  0.00000000000E+00 0.  1.
         12    1    6    6    0    0  0.16435198845E+02  0.11198098471E+03 -0.81718333583E+01  0.11347526408E+03  0.00000000000E+00 0. -1.
         -5    1    3    3    0  503  0.27162969782E+02  0.14624616540E+02 -0.10077685235E+02  0.32792622280E+02  0.47000000000E+01 0.  1.
         11    1    4    4    0    0  0.10407252134E+02 -0.32670720384E+02 -0.93801942272E+02  0.99872374766E+02  0.00000000000E+00 0. -1.
        -12    1    4    4    0    0 -0.46403325580E+02 -0.15293849458E+03 -0.15872800777E+03  0.22525104262E+03  0.00000000000E+00 0.  1.
</event>
<event>
12    1  0.1565987E-001  0.2595738E+03  0.7818608E-02  0.1108076E+00
         21   -1    0    0  501  502  0.00000000000E+00  0.00000000000E+00  0.46915121422E+03  0.46915121422E+03  0.00000000000E+00 0. -1.
         21   -1    0    0  502  503 -0.00000000000E+00 -0.00000000000E+00 -0.14470982748E+03  0.14470982748E+03  0.00000000000E+00 0.  1.
         -6    2    1    2    0  503 -0.91507003132E+02  0.16586550090E+03  0.11280961103E+03  0.27894828559E+03  0.17088370806E+03 0.  0.
        -24    2    3    3    0    0 -0.92472782217E+02  0.72346410644E+02  0.20489060655E+02  0.14744951375E+03  0.86812089687E+02 0.  0.
          6    2    1    2  501    0  0.91507003132E+02 -0.16586550090E+03  0.21163177571E+03  0.33491275611E+03  0.17746450265E+03 0.  0.
         24    2    5    5    0    0  0.19458946849E+02 -0.32156921620E+02  0.19816213124E+02  0.90200258185E+02  0.79565608485E+02 0.  0.
          5    1    5    5  501    0  0.72048056283E+02 -0.13370857928E+03  0.19181556259E+03  0.24471249792E+03  0.47000000000E+01 0. -1.
        -11    1    6    6    0    0  0.14537105155E+02 -0.50304157297E+02 -0.11558127255E+02  0.53622998548E+02  0.00000000000E+00 0.  1.
         12    1    6    6    0    0  0.49218416934E+01  0.18147235677E+02  0.31374340379E+02  0.36577259637E+02  0.00000000000E+00 0. -1.
         -5    1    3    3    0  503  0.96577908489E+00  0.93519090261E+02  0.92320550373E+02  0.13149877183E+03  0.47000000000E+01 0.  1.
         13    1    4    4    0    0  0.99020278487E+01  0.26601450211E+02  0.21016003873E+02  0.35317980232E+02  0.00000000000E+00 0. -1.
        -14    1    4    4    0    0 -0.10237481007E+03  0.45744960433E+02 -0.52694321752E+00  0.11213153352E+03  0.00000000000E+00 0.  1.
</event>
<event>
12    1  0.1565987E-001  0.2873391E+03  0.7818608E-02  0.1091829E+00
         21   -1    0    0  503  502  0.00000000000E+00  0.00000000000E+00  0.13504606942E+04  0.13504606942E+04  0.00000000000E+00 0.  1.
         21   -1    0    0  501  503 -0.00000000000E+00 -0.00000000000E+00 -0.61740447678E+02  0.61740447678E+02  0.00000000000E+00 0. -1.
          6    2    1    2  501    0 -0.21589892301E+03 -0.77210913255E+02  0.56663561282E+03  0.63504610542E+03  0.17214461423E+03 0.  0.
         24    2    3    3    0    0 -0.65224999299E+02 -0.61293311301E+02  0.35707697046E+03  0.37640945696E+03  0.78542637543E+02 0.  0.
         -6    2    1    2    0  502  0.21589892301E+03  0.77210913255E+02  0.72208463366E+03  0.77715503642E+03  0.17317581351E+03 0.  0.
        -24    2    5    5    0    0  0.15337836387E+03 -0.13369567092E+02  0.50083167616E+03  0.52999394536E+03  0.79734223762E+02 0.  0.
          5    1    3    3  501    0 -0.15067392371E+03 -0.15917601953E+02  0.20955864236E+03  0.25863664846E+03  0.47000000000E+01 0. -1.
        -13    1    4    4    0    0 -0.61401749494E+02 -0.21114371271E+02  0.29713056134E+03  0.30414233838E+03  0.00000000000E+00 0.  1.
         14    1    4    4    0    0 -0.38232498055E+01 -0.40178940030E+02  0.59946409120E+02  0.72267118576E+02  0.00000000000E+00 0. -1.
         -5    1    5    5    0  502  0.62520559137E+02  0.90580480346E+02  0.22125295750E+03  0.24716109106E+03  0.47000000000E+01 0.  1.
         11    1    6    6    0    0  0.10128155325E+02  0.85727051659E+01  0.63444726687E+01  0.14707927713E+02  0.00000000000E+00 0. -1.
        -12    1    6    6    0    0  0.14325020854E+03 -0.21942272257E+02  0.49448720349E+03  0.51528601764E+03  0.00000000000E+00 0.  1.
</event>
<event>
12    1  0.1565987E-001  0.2228086E+03  0.7818608E-02  0.1132076E+00
         21   -1    0    0  503  502  0.00000000000E+00  0.00000000000E+00  0.55947945826E+02  0.55947945826E+02  0.00000000000E+00 0. -1.
         21   -1    0    0  501  503 -0.00000000000E+00 -0.00000000000E+00 -0.14937628967E+04  0.14937628967E+04  0.00000000000E+00 0. -1.
          6    2    1    2  501    0  0.11813453788E+03 -0.77200825832E+02 -0.12135844330E+04  0.12336048565E+04  0.17052281204E+03 0.  0.
         24    2    3    3    0    0 -0.32085870620E+01 -0.42481213179E+02 -0.63335560006E+03  0.63978906517E+03  0.79848501996E+02 0.  0.
         -6    2    1    2    0  502 -0.11813453788E+03  0.77200825832E+02 -0.22423051788E+03  0.31610598602E+03  0.17241790134E+03 0.  0.
        -24    2    5    5    0    0  0.88846840204E+01  0.36791107859E+02 -0.84431420278E+02  0.12288925349E+03  0.80873856508E+02 0.  0.
          5    1    3    3  501    0  0.12134312495E+03 -0.34719612653E+02 -0.58022883295E+03  0.59381579136E+03  0.47000000000E+01 0. -1.
        -13    1    4    4    0    0  0.27008325381E+02 -0.88851970975E+01 -0.86140167246E+02  0.90711216398E+02  0.00000000000E+00 0.  1.
         14    1    4    4    0    0 -0.30216912443E+02 -0.33596016082E+02 -0.54721543282E+03  0.54907784877E+03  0.00000000000E+00 0. -1.
         -5    1    5    5    0  502 -0.12701922190E+03  0.40409717973E+02 -0.13979909760E+03  0.19321673253E+03  0.47000000000E+01 0.  1.
         11    1    6    6    0    0 -0.12203359786E+02  0.46014866281E+02 -0.15264231884E+02  0.49992866331E+02  0.00000000000E+00 0. -1.
        -12    1    6    6    0    0  0.21088043806E+02 -0.92237584225E+01 -0.69167188395E+02  0.72896387163E+02  0.00000000000E+00 0.  1.
</event>
<event>
12    1  0.1565987E-001  0.1958806E+03  0.7818608E-02  0.1153469E+00
         21   -1    0    0  503  502  0.00000000000E+00  0.00000000000E+00  0.39441969343E+03  0.39441969343E+03  0.00000000000E+00 0. -1.
         21   -1    0    0  501  503 -0.00000000000E+00 -0.00000000000E+00 -0.10830630853E+03  0.10830630853E+03  0.00000000000E+00 0. -1.
          6    2    1    2  501    0  0.33422001193E+02  0.86456186646E+02  0.61465660788E+02  0.20529792083E+03  0.17256160196E+03 0.  0.
         24    2    3    3    0    0  0.20582562993E+02  0.55578074774E+02 -0.33110134309E+02  0.10487391980E+03  0.79935560077E+02 0.  0.
         -6    2    1    2    0  502 -0.33422001193E+02 -0.86456186646E+02  0.22464772411E+03  0.29742808113E+03  0.17147933147E+03 0.  0.
        -24    2    5    5    0    0 -0.25557913693E+02 -0.41021124477E+02  0.23318307721E+03  0.25029920464E+03  0.77067533637E+02 0.  0.
          5    1    3    3  501    0  0.12839438200E+02  0.30878111873E+02  0.94575795097E+02  0.10042400104E+03  0.47000000000E+01 0. -1.
        -13    1    4    4    0    0 -0.26439621420E+02  0.10260221850E+02 -0.27209581861E+02  0.39302507277E+02  0.00000000000E+00 0.  1.
         14    1    4    4    0    0  0.47022184413E+02  0.45317852924E+02 -0.59005524484E+01  0.65571412520E+02  0.00000000000E+00 0. -1.
         -5    1    5    5    0  502 -0.78640875001E+01 -0.45435062169E+02 -0.85353530962E+01  0.47128876488E+02  0.47000000000E+01 0.  1.
         13    1    6    6    0    0 -0.47095911883E+02 -0.42197229608E+02  0.12611775224E+03  0.14108266560E+03  0.00000000000E+00 0. -1.
        -14    1    6    6    0    0  0.21537998189E+02  0.11761051307E+01  0.10706532496E+03  0.10921653903E+03  0.00000000000E+00 0.  1.
</event>
<event>
12    1  0.1565987E-001  0.2064419E+03  0.7818608E-02  0.1144525E+00
         21   -1    0    0  501  502  0.00000000000E+00  0.00000000000E+00  0.65003256663E+02  0.65003256663E+02  0.00000000000E+00 0.  1.
         21   -1    0    0  502  503 -0.00000000000E+00 -0.00000000000E+00 -0.90540241782E+03  0.90540241782E+03  0.00000000000E+00 0.  1.
         -6    2    1    2    0  503  0.89221484712E+02  0.69893567294E+02 -0.67552014640E+03  0.70620241612E+03  0.17189764469E+03 0.  0.
        -24    2    3    3    0    0  0.52470954527E+02  0.18305198067E+01 -0.55171454901E+03  0.56014388043E+03  0.81336777159E+02 0.  0.
          6    2    1    2  501    0 -0.89221484712E+02 -0.69893567294E+02 -0.16487901476E+03  0.26420325837E+03  0.17254764021E+03 0.  0.
         24    2    5    5    0    0 -0.53079168932E+02 -0.11193455219E+03 -0.13985173545E+03  0.20319370083E+03  0.79890112042E+02 0.  0.
          5    1    5    5  501    0 -0.36142315780E+02  0.42040984897E+02 -0.25027279308E+02  0.61009557535E+02  0.47000000000E+01 0. -1.
        -13    1    6    6    0    0 -0.56046861298E+02 -0.12019055990E+03 -0.11068902835E+03  0.17273992691E+03  0.00000000000E+00 0.  1.
         14    1    6    6    0    0  0.29676923661E+01  0.82560077078E+01 -0.29162707097E+02  0.30453773928E+02  0.00000000000E+00 0. -1.
         -5    1    3    3    0  503  0.36750530185E+02  0.68063047487E+02 -0.12380559739E+03  0.14605853569E+03  0.47000000000E+01 0.  1.
         13    1    4    4    0    0 -0.14293782330E+02 -0.91843664923E+01 -0.33824329551E+02  0.37851685177E+02  0.00000000000E+00 0. -1.
        -14    1    4    4    0    0  0.66764736856E+02  0.11014886299E+02 -0.51789021946E+03  0.52229219525E+03  0.00000000000E+00 0.  1.
</event>
<event>
12    1  0.1565987E-001  0.1889818E+03  0.7818608E-02  0.1159384E+00
         21   -1    0    0  503  502  0.00000000000E+00  0.00000000000E+00  0.65084830614E+03  0.65084830614E+03  0.00000000000E+00 0. -1.
         21   -1    0    0  501  503 -0.00000000000E+00 -0.00000000000E+00 -0.55301609507E+02  0.55301609507E+02  0.00000000000E+00 0. -1.
          6    2    1    2  501    0 -0.71017946161E+02 -0.29695029549E+02  0.32891367127E+03  0.37933930731E+03  0.17259421620E+03 0.  0.
         24    2    3    3    0    0 -0.97304300791E+02 -0.20765588100E+02  0.13862792354E+03  0.18698166345E+03  0.76453284286E+02 0.  0.
         -6    2    1    2    0  502  0.71017946161E+02  0.29695029549E+02  0.26663302536E+03  0.32681060833E+03  0.17258812256E+03 0.  0.
        -24    2    5    5    0    0  0.48642284428E+00  0.19956913238E+02  0.46560678546E+02  0.95459242392E+02  0.80907695420E+02 0.  0.
          5    1    3    3  501    0  0.26286354630E+02 -0.89294414490E+01  0.19028574773E+03  0.19235764386E+03  0.47000000000E+01 0. -1.
        -13    1    4    4    0    0 -0.65170013611E+02 -0.99045146159E+01  0.13813583836E+03  0.15305796262E+03  0.00000000000E+00 0.  1.
         14    1    4    4    0    0 -0.32134287180E+02 -0.10861073484E+02  0.49208518646E+00  0.33923700824E+02  0.00000000000E+00 0. -1.
         -5    1    5    5    0  502  0.70531523317E+02  0.97381163107E+01  0.22007234681E+03  0.23135136594E+03  0.47000000000E+01 0.  1.
         13    1    6    6    0    0  0.21534429113E+02 -0.17144659485E+01 -0.15397416728E+02  0.26528314545E+02  0.00000000000E+00 0. -1.
        -14    1    6    6    0    0 -0.21048006269E+02  0.21671379187E+02  0.61958095274E+02  0.68930927847E+02  0.00000000000E+00 0.  1.
</event>
<event>
12    1  0.1565987E-001  0.2444020E+03  0.7818608E-02  0.1117760E+00
         21   -1    0    0  501  502  0.00000000000E+00  0.00000000000E+00  0.30164337264E+03  0.30164337264E+03  0.00000000000E+00 0.  1.
         21   -1    0    0  502  503 -0.00000000000E+00 -0.00000000000E+00 -0.26268374125E+03  0.26268374125E+03  0.00000000000E+00 0. -1.
         -6    2    1    2    0  503  0.16507676580E+03 -0.21754736543E+02  0.16413822700E+03  0.29440392666E+03  0.17890977420E+03 0.  0.
        -24    2    3    3    0    0  0.72621766226E+00 -0.87174158527E+01  0.46084326480E+02  0.91574225111E+02  0.78648285590E+02 0.  0.
          6    2    1    2  501    0 -0.16507676580E+03  0.21754736543E+02 -0.12517859560E+03  0.26992318723E+03  0.17165441748E+03 0.  0.
         24    2    5    5    0    0 -0.49682020576E+02 -0.46965595596E+02 -0.55505549626E+02  0.11854665467E+03  0.79362289261E+02 0.  0.
          5    1    5    5  501    0 -0.11539474522E+03  0.68720332140E+02 -0.69673045974E+02  0.15137653256E+03  0.47000000000E+01 0. -1.
        -13    1    6    6    0    0 -0.25675785374E+02 -0.57284520487E+02 -0.66299799458E+01  0.63124629710E+02  0.00000000000E+00 0.  1.
         14    1    6    6    0    0 -0.24006235202E+02  0.10318924890E+02 -0.48875569680E+02  0.55422024963E+02  0.00000000000E+00 0. -1.
         -5    1    3    3    0  503  0.16435054813E+03 -0.13037320691E+02  0.11805390052E+03  0.20282970155E+03  0.47000000000E+01 0.  1.
         11    1    4    4    0    0  0.23201492052E+01 -0.31683586199E+02 -0.80291009557E+01  0.32767349434E+02  0.00000000000E+00 0. -1.
        -12    1    4    4    0    0 -0.15939315430E+01  0.22966170346E+02  0.54113427435E+02  0.58806875677E+02  0.00000000000E+00 0.  1.
</event>
<event>
12    1  0.1565987E-001  0.1762081E+03  0.7818608E-02  0.1172556E+00
         21   -1    0    0  503  502  0.00000000000E+00  0.00000000000E+00  0.31620776248E+03  0.31620776248E+03  0.00000000000E+00 0. -1.
         21   -1    0    0  501  503 -0.00000000000E+00 -0.00000000000E+00 -0.17654819543E+03  0.17654819543E+03  0.00000000000E+00 0. -1.
          6    2    1    2  501    0  0.35139803168E+02 -0.45853040514E+01 -0.97106192752E+02  0.19761646764E+03  0.16842453750E+03 0.  0.
         24    2    3    3    0    0 -0.39794697663E+02 -0.11715454941E+02 -0.24783349483E+02  0.93123874000E+02  0.79605098145E+02 0.  0.
         -6    2    1    2    0  502 -0.35139803168E+02  0.45853040514E+01  0.23676575980E+03  0.29513949027E+03  0.17260782985E+03 0.  0.
        -24    2    5    5    0    0 -0.77982585607E+02  0.31176560098E+02  0.11320054349E+03  0.16159904102E+03  0.79035596122E+02 0.  0.
          5    1    3    3  501    0  0.74934500831E+02  0.71301508894E+01 -0.72322843269E+02  0.10449259364E+03  0.47000000000E+01 0. -1.
        -13    1    4    4    0    0  0.32710636504E+01 -0.36944068307E+02  0.67488055322E+00  0.37094736880E+02  0.00000000000E+00 0.  1.
         14    1    4    4    0    0 -0.43065761313E+02  0.25228613366E+02 -0.25458230036E+02  0.56029137120E+02  0.00000000000E+00 0. -1.
         -5    1    5    5    0  502  0.42842782439E+02 -0.26591256047E+02  0.12356521631E+03  0.13354044925E+03  0.47000000000E+01 0.  1.
         11    1    6    6    0    0 -0.28232592027E+02  0.29151608810E+02  0.10309221035E+03  0.11079214495E+03  0.00000000000E+00 0. -1.
        -12    1    6    6    0    0 -0.49749993580E+02  0.20249512888E+01  0.10108333140E+02  0.50806896065E+02  0.00000000000E+00 0.  1.
</event>
<event>
12    1  0.1565987E-001  0.1732817E+03  0.7818608E-02  0.1175048E+00
         21   -1    0    0  503  502  0.00000000000E+00  0.00000000000E+00  0.50598433039E+03  0.50598433039E+03  0.00000000000E+00 0. -1.
         21   -1    0    0  501  503 -0.00000000000E+00 -0.00000000000E+00 -0.69141640336E+02  0.69141640336E+02  0.00000000000E+00 0. -1.
          6    2    1    2  501    0  0.11628701518E+02 -0.17399933454E+02  0.10719702690E+03  0.20375907415E+03  0.17201329408E+03 0.  0.
         24    2    3    3    0    0  0.32411869901E+02 -0.71633625250E+02  0.44867523867E+02  0.11843445659E+03  0.76365700630E+02 0.  0.
         -6    2    1    2    0  502 -0.11628701518E+02  0.17399933454E+02  0.32964566316E+03  0.37136689658E+03  0.16973250794E+03 0.  0.
        -24    2    5    5    0    0  0.28973014348E+02 -0.25977777982E+02  0.27954372222E+03  0.29350535494E+03  0.80538315332E+02 0.  0.
          5    1    3    3  501    0 -0.20783168382E+02  0.54233691796E+02  0.62329503030E+02  0.85324617560E+02  0.47000000000E+01 0. -1.
        -13    1    4    4    0    0 -0.10967100500E+02 -0.40201484037E+02  0.49453213582E+02  0.64668825146E+02  0.00000000000E+00 0.  1.
         14    1    4    4    0    0  0.43378970401E+02 -0.31432141213E+02 -0.45856897157E+01  0.53765631443E+02  0.00000000000E+00 0. -1.
         -5    1    5    5    0  502 -0.40601715866E+02  0.43377711435E+02  0.50101940941E+02  0.77861541641E+02  0.47000000000E+01 0.  1.
         11    1    6    6    0    0  0.49322068130E+02 -0.30057676338E+02  0.12652058284E+03  0.13908122876E+03  0.00000000000E+00 0. -1.
        -12    1    6    6    0    0 -0.20349053782E+02  0.40798983563E+01  0.15302313938E+03  0.15442412618E+03  0.00000000000E+00 0.  1.
</event>
<event>
12    1  0.1565987E-001  0.1878023E+03  0.7818608E-02  0.1160603E+00
         21   -1    0    0  503  502  0.00000000000E+00  0.00000000000E+00  0.86846443694E+02  0.86846443694E+02  0.00000000000E+00 0. -1.
         21   -1    0    0  501  503 -0.00000000000E+00 -0.00000000000E+00 -0.49440158848E+03  0.49440158848E+03  0.00000000000E+00 0. -1.
          6    2    1    2  501    0  0.69561410707E+02 -0.27021742667E+02 -0.32780847374E+03  0.37779374885E+03  0.17233907502E+03 0.  0.
         24    2    3    3    0    0  0.42979082661E+02 -0.80272124253E+02 -0.26387026403E+03  0.29031570610E+03  0.79780182303E+02 0.  0.
         -6    2    1    2    0  502 -0.69561410707E+02  0.27021742667E+02 -0.79746671050E+02  0.20345428333E+03  0.17165415644E+03 0.  0.
        -24    2    5    5    0    0 -0.79671163584E+02 -0.26937363773E+02 -0.10977237423E+02  0.11533438051E+03  0.78156277496E+02 0.  0.
          5    1    3    3  501    0  0.26582328046E+02  0.53250381586E+02 -0.63938209707E+02  0.87478042753E+02  0.47000000000E+01 0. -1.
        -13    1    4    4    0    0  0.28644992489E+02 -0.30120469091E+02 -0.21451905349E+03  0.21850904458E+03  0.00000000000E+00 0.  1.
         14    1    4    4    0    0  0.14334090173E+02 -0.50151655162E+02 -0.49351210544E+02  0.71806661520E+02  0.00000000000E+00 0. -1.
         -5    1    5    5    0  502  0.10109752877E+02  0.53959106439E+02 -0.68769433627E+02  0.88119902817E+02  0.47000000000E+01 0.  1.
         11    1    6    6    0    0 -0.10492534343E+02 -0.40417548648E+02  0.76095050904E+01  0.42444977128E+02  0.00000000000E+00 0. -1.
        -12    1    6    6    0    0 -0.69178629242E+02  0.13480184875E+02 -0.18586742513E+02  0.72889403381E+02  0.00000000000E+00 0.  1.
</event>
<event>
12    1  0.1565987E-001  0.1974188E+03  0.7818608E-02  0.1152248E+00
         21   -1    0    0  503  502  0.00000000000E+00  0.00000000000E+00  0.56983612717E+03  0.56983612717E+03  0.00000000000E+00 0. -1.
         21   -1    0    0  501  503 -0.00000000000E+00 -0.00000000000E+00 -0.31557757190E+03  0.31557757190E+03  0.00000000000E+00 0. -1.
          6    2    1    2  501    0  0.79235109622E+02 -0.49390973069E+02 -0.26517577014E+03  0.32972837328E+03  0.17229318112E+03 0.  0.
         24    2    3    3    0    0  0.15812454426E+02 -0.60051167385E+02 -0.24031333200E+03  0.26061756541E+03  0.79465976626E+02 0.  0.
         -6    2    1    2    0  502 -0.79235109622E+02  0.49390973069E+02  0.51943432541E+03  0.55568532579E+03  0.17394393370E+03 0.  0.
        -24    2    5    5    0    0 -0.93110996934E+02  0.84896167316E+02  0.47028117550E+03  0.49330519103E+03  0.79426761804E+02 0.  0.
          5    1    3    3  501    0  0.63422655196E+02  0.10660194316E+02 -0.24862438135E+02  0.69110807874E+02  0.47000000000E+01 0. -1.
        -11    1    4    4    0    0  0.13897524783E+02 -0.56903013800E+02 -0.74531176777E+02  0.94794464429E+02  0.00000000000E+00 0.  1.
         12    1    4    4    0    0  0.19149296425E+01 -0.31481535844E+01 -0.16578215523E+03  0.16582310098E+03  0.00000000000E+00 0. -1.
         -5    1    5    5    0  502  0.13875887312E+02 -0.35505194247E+02  0.49153149911E+02  0.62380134766E+02  0.47000000000E+01 0.  1.
         11    1    6    6    0    0 -0.95153351308E+02  0.47536161846E+02  0.28313461067E+03  0.30245504576E+03  0.00000000000E+00 0. -1.
        -12    1    6    6    0    0  0.20423543744E+01  0.37360005471E+02  0.18714656483E+03  0.19085014526E+03  0.00000000000E+00 0.  1.
</event>
<event>
12    1  0.1565987E-001  0.2206485E+03  0.7818608E-02  0.1133521E+00
         21   -1    0    0  503  502  0.00000000000E+00  0.00000000000E+00  0.69552013693E+03  0.69552013693E+03  0.00000000000E+00 0.  1.
         21   -1    0    0  501  503 -0.00000000000E+00 -0.00000000000E+00 -0.69803498900E+02  0.69803498900E+02  0.00000000000E+00 0. -1.
          6    2    1    2  501    0 -0.31083138918E+02  0.13449372054E+03  0.31675935848E+03  0.38566541521E+03  0.17130849051E+03 0.  0.
         24    2    3    3    0    0 -0.81394867872E+02  0.58805912391E+02  0.19754440067E+03  0.23568471467E+03  0.80251072537E+02 0.  0.
         -6    2    1    2    0  502  0.31083138918E+02 -0.13449372054E+03  0.30895727955E+03  0.37965822062E+03  0.17213669424E+03 0.  0.
        -24    2    5    5    0    0 -0.14316303917E+02 -0.15210718168E+03  0.24817685000E+03  0.30163454446E+03  0.77782377574E+02 0.  0.
          5    1    3    3  501    0  0.50311728954E+02  0.75687808146E+02  0.11921495781E+03  0.14998070055E+03  0.47000000000E+01 0. -1.
        -11    1    4    4    0    0 -0.65459230884E+02  0.35795723763E+02  0.19352480266E+03  0.20740803744E+03  0.00000000000E+00 0.  1.
         12    1    4    4    0    0 -0.15935636988E+02  0.23010188628E+02  0.40195980047E+01  0.28276677228E+02  0.00000000000E+00 0. -1.
         -5    1    5    5    0  502  0.45399442836E+02  0.17613461147E+02  0.60780429558E+02  0.78023676154E+02  0.47000000000E+01 0.  1.
         11    1    6    6    0    0  0.28681340642E+02 -0.56580271080E+02  0.12310005496E+03  0.13848310333E+03  0.00000000000E+00 0. -1.
        -12    1    6    6    0    0 -0.42997644559E+02 -0.95526910604E+02  0.12507679504E+03  0.16315144113E+03  0.00000000000E+00 0.  1.
</event>
<event>
12    1  0.1565987E-001  0.1924152E+03  0.7818608E-02  0.1156892E+00
         21   -1    0    0  503  502  0.00000000000E+00  0.00000000000E+00  0.62675358573E+03  0.62675358573E+03  0.00000000000E+00 0.  1.
         21   -1    0    0  501  503 -0.00000000000E+00 -0.00000000000E+00 -0.12968857171E+03  0.12968857171E+03  0.00000000000E+00 0.  1.
          6    2    1    2  501    0  0.82503229173E+02  0.99435853638E+01 -0.31379242020E+02  0.19495705638E+03  0.17354520820E+03 0.  0.
         24    2    3    3    0    0  0.10709966066E+03  0.48389872059E+02 -0.41205245416E+02  0.14803433539E+03  0.80027340158E+02 0.  0.
         -6    2    1    2    0  502 -0.82503229173E+02 -0.99435853638E+01  0.52844425604E+03  0.56148510105E+03  0.17060635756E+03 0.  0.
        -24    2    5    5    0    0 -0.83573484277E+02 -0.55470337685E+02  0.27223205468E+03  0.30121483239E+03  0.80985171587E+02 0.  0.
          5    1    3    3  501    0 -0.24596431490E+02 -0.38446286695E+02  0.98260033964E+01  0.46922720994E+02  0.47000000000E+01 0. -1.
        -13    1    4    4    0    0  0.10080323353E+03  0.36981750463E+02 -0.27247113042E+01  0.10740747557E+03  0.00000000000E+00 0.  1.
         14    1    4    4    0    0  0.62964271315E+01  0.11408121596E+02 -0.38480534112E+02  0.40626859816E+02  0.00000000000E+00 0. -1.
         -5    1    5    5    0  502  0.10702551043E+01  0.45526752321E+02  0.25621220136E+03  0.26027026866E+03  0.47000000000E+01 0.  1.
         11    1    6    6    0    0 -0.71852611804E+01 -0.23489694712E+02  0.10535610974E+02  0.26728128152E+02  0.00000000000E+00 0. -1.
        -12    1    6    6    0    0 -0.76388223096E+02 -0.31980642973E+02  0.26169644371E+03  0.27448670424E+03  0.00000000000E+00 0.  1.
</event>
<event>
12    1  0.1565987E-001  0.2353978E+03  0.7818608E-02  0.1122898E+00
         21   -1    0    0  501  502  0.00000000000E+00  0.00000000000E+00  0.41983602573E+03  0.41983602573E+03  0.00000000000E+00 0.  1.
         21   -1    0    0  502  503 -0.00000000000E+00 -0.00000000000E+00 -0.13505668921E+03  0.13505668921E+03  0.00000000000E+00 0.  1.
         -6    2    1    2    0  503 -0.15217742277E+03  0.52161673900E+02  0.10053849693E+03  0.25596664128E+03  0.17184913109E+03 0.  0.
        -24    2    3    3    0    0 -0.17808228594E+03  0.53795170070E+02  0.67718694587E+02  0.21386011362E+03  0.80889466025E+02 0.  0.
          6    2    1    2  501    0  0.15217742277E+03 -0.52161673900E+02  0.18424083959E+03  0.29892607367E+03  0.17185255983E+03 0.  0.
         24    2    5    5    0    0  0.18051971946E+03 -0.55226646474E+02  0.15137754204E+03  0.25516803253E+03  0.80982794463E+02 0.  0.
          5    1    5    5  501    0 -0.28342296685E+02  0.30649725733E+01  0.32863297556E+02  0.43758041141E+02  0.47000000000E+01 0. -1.
        -13    1    6    6    0    0  0.78826710896E+02 -0.37889921522E+02  0.11772476800E+03  0.14665748363E+03  0.00000000000E+00 0.  1.
         14    1    6    6    0    0  0.10169300856E+03 -0.17336724952E+02  0.33652774032E+02  0.10851054890E+03  0.00000000000E+00 0. -1.
         -5    1    3    3    0  503  0.25904863170E+02 -0.16334961692E+01  0.32819802340E+02  0.42106527656E+02  0.47000000000E+01 0.  1.
         13    1    4    4    0    0 -0.31863861410E+02  0.40542958002E+02  0.38024808799E+02  0.64069674509E+02  0.00000000000E+00 0. -1.
        -14    1    4    4    0    0 -0.14621842453E+03  0.13252212068E+02  0.29693885788E+02  0.14979043911E+03  0.00000000000E+00 0.  1.
</event>
<event>
12    1  0.1565987E-001  0.2195954E+03  0.7818608E-02  0.1134329E+00
         21   -1    0    0  503  502  0.00000000000E+00  0.00000000000E+00  0.39318623007E+02  0.39318623007E+02  0.00000000000E+00 0. -1.
         21   -1    0    0  501  503 -0.00000000000E+00 -0.00000000000E+00 -0.12246946022E+04  0.12246946022E+04  0.00000000000E+00 0.  1.
          6    2    1    2  501    0  0.11229822937E+03 -0.77496821822E+02 -0.62049521678E+03  0.65795017024E+03  0.17107735900E+03 0.  0.
         24    2    3    3    0    0  0.85991648104E+01  0.11181957715E+02 -0.24131188459E+03  0.25493712909E+03  0.81009458267E+02 0.  0.
         -6    2    1    2    0  502 -0.11229822937E+03  0.77496821822E+02 -0.56488076241E+03  0.60606305496E+03  0.17206249195E+03 0.  0.
        -24    2    5    5    0    0 -0.55185943871E+02  0.94080410325E+02 -0.50018848603E+03  0.51806300277E+03  0.79398622622E+02 0.  0.
          5    1    3    3  501    0  0.10369906456E+03 -0.88678779538E+02 -0.37918333219E+03  0.40301304116E+03  0.47000000000E+01 0. -1.
        -13    1    4    4    0    0 -0.19448500216E+02 -0.17646328897E+02 -0.17801926944E+03  0.17994581789E+03  0.00000000000E+00 0.  1.
         14    1    4    4    0    0  0.28047665026E+02  0.28828286613E+02 -0.63292615150E+02  0.74991311197E+02  0.00000000000E+00 0. -1.
         -5    1    5    5    0  502 -0.57112285499E+02 -0.16583588502E+02 -0.64692276378E+02  0.88000052190E+02  0.47000000000E+01 0.  1.
         13    1    6    6    0    0 -0.11854882128E+02  0.13733922770E+02 -0.12810190671E+02  0.22209454067E+02  0.00000000000E+00 0. -1.
        -14    1    6    6    0    0 -0.43331061743E+02  0.80346487554E+02 -0.48737829536E+03  0.49585354871E+03  0.00000000000E+00 0.  1.
</event>
<event>
12    1  0.1565987E-001  0.2318437E+03  0.7818608E-02  0.1125964E+00
         21   -1    0    0  503  502  0.00000000000E+00  0.00000000000E+00  0.18153538581E+03  0.18153538581E+03  0.00000000000E+00 0.  1.
         21   -1    0    0  501  503 -0.00000000000E+00 -0.00000000000E+00 -0.49222991425E+03  0.49222991425E+03  0.00000000000E+00 0.  1.
          6    2    1    2  501    0 -0.15386053847E+03  0.16345947074E+02 -0.37110274411E+03  0.43757141224E+03  0.17265931439E+03 0.  0.
         24    2    3    3    0    0 -0.52407917449E+02  0.64796438944E+02 -0.22711836990E+03  0.25483205007E+03  0.80071539779E+02 0.  0.
         -6    2    1    2    0  502  0.15386053847E+03 -0.16345947074E+02  0.60408215664E+02  0.23619388782E+03  0.16792303249E+03 0.  0.
        -24    2    5    5    0    0  0.11319488034E+03 -0.90068692281E+01 -0.24533766907E+02  0.14161699731E+03  0.80989280654E+02 0.  0.
          5    1    3    3  501    0 -0.10145262102E+03 -0.48450491870E+02 -0.14398437420E+03  0.18273936218E+03  0.47000000000E+01 0. -1.
        -11    1    4    4    0    0 -0.15762793351E+01 -0.60878751347E+01 -0.10265040783E+03  0.10284285638E+03  0.00000000000E+00 0.  1.
         12    1    4    4    0    0 -0.50831638114E+02  0.70884314078E+02 -0.12446796208E+03  0.15198919369E+03  0.00000000000E+00 0. -1.
         -5    1    5    5    0  502  0.40665658123E+02 -0.73390778457E+01  0.84941982571E+02  0.94576890503E+02  0.47000000000E+01 0.  1.
         13    1    6    6    0    0  0.12039884593E+02 -0.12888231482E+02 -0.35654806723E+02  0.39778519004E+02  0.00000000000E+00 0. -1.
        -14    1    6    6    0    0  0.10115499575E+03  0.38813622534E+01  0.11121039816E+02  0.10183847831E+03  0.00000000000E+00 0.  1.
</event>
<event>
12    1  0.1565987E-001  0.2145869E+03  0.7818608E-02  0.1137993E+00
         21   -1    0    0  501  502  0.00000000000E+00  0.00000000000E+00  0.12996816265E+04  0.12996816265E+04  0.00000000000E+00 0.  1.
         21   -1    0    0  502  503 -0.00000000000E+00 -0.00000000000E+00 -0.40089321696E+02  0.40089321696E+02  0.00000000000E+00 0.  1.
         -6    2    1    2    0  503  0.32568632775E+02  0.12450886035E+03  0.40129828238E+03  0.45506904259E+03  0.17171007524E+03 0.  0.
        -24    2    3    3    0    0 -0.23930369776E+02  0.11207076462E+03  0.18929973956E+03  0.23526841550E+03  0.79901921458E+02 0.  0.
          6    2    1    2  501    0 -0.32568632775E+02 -0.12450886035E+03  0.85829402244E+03  0.88470190562E+03  0.17165564572E+03 0.  0.
         24    2    5    5    0    0 -0.52660601924E+02 -0.13210175467E+03  0.84123096513E+03  0.85687067867E+03  0.79585241750E+02 0.  0.
          5    1    5    5  501    0  0.20091969149E+02  0.75928943237E+01  0.17063057318E+02  0.27831226950E+02  0.47000000000E+01 0. -1.
        -11    1    6    6    0    0 -0.44493021953E+02 -0.92594373032E+02  0.37247521127E+03  0.38638210353E+03  0.00000000000E+00 0.  1.
         12    1    6    6    0    0 -0.81675799705E+01 -0.39507381639E+02  0.46875575385E+03  0.47048857514E+03  0.00000000000E+00 0. -1.
         -5    1    3    3    0  503  0.56499002551E+02  0.12438095732E+02  0.21199854282E+03  0.21980062709E+03  0.47000000000E+01 0.  1.
         11    1    4    4    0    0  0.15574730801E+02  0.13039521709E+02  0.28846387357E+01  0.20516396043E+02  0.00000000000E+00 0. -1.
        -12    1    4    4    0    0 -0.39505100577E+02  0.99031242906E+02  0.18641510083E+03  0.21475201946E+03  0.00000000000E+00 0.  1.
</event>
<event>
12    1  0.1565987E-001  0.2793678E+03  0.7818608E-02  0.1096171E+00
         21   -1    0    0  503  502  0.00000000000E+00  0.00000000000E+00  0.64486315586E+03  0.64486315586E+03  0.00000000000E+00 0. -1.
         21   -1    0    0  501  503 -0.00000000000E+00 -0.00000000000E+00 -0.12501209233E+03  0.12501209233E+03  0.00000000000E+00 0. -1.
          6    2    1    2  501    0 -0.13959025085E+03  0.16960563305E+03  0.33271379999E+03  0.43444777305E+03  0.17261195184E+03 0.  0.
         24    2    3    3    0    0 -0.96100131785E+02  0.12835176946E+03  0.12535278719E+03  0.21854512984E+03  0.79619347334E+02 0.  0.
         -6    2    1    2    0  502  0.13959025085E+03 -0.16960563305E+03  0.18713726355E+03  0.33542747513E+03  0.17099627707E+03 0.  0.
        -24    2    5    5    0    0  0.16952065908E+03 -0.15828145309E+03  0.16979041390E+03  0.29872502860E+03  0.81348545244E+02 0.  0.
          5    1    3    3  501    0 -0.43490119061E+02  0.41253863592E+02  0.20736101280E+03  0.21590264321E+03  0.47000000000E+01 0. -1.
        -13    1    4    4    0    0 -0.89025901037E+02  0.54045761800E+02  0.78484892120E+02  0.13040871794E+03  0.00000000000E+00 0.  1.
         14    1    4    4    0    0 -0.70742307484E+01  0.74306007657E+02  0.46867895069E+02  0.88136411902E+02  0.00000000000E+00 0. -1.
         -5    1    5    5    0  502 -0.29930408234E+02 -0.11324179962E+02  0.17346849649E+02  0.36702446535E+02  0.47000000000E+01 0.  1.
         13    1    6    6    0    0  0.12894464523E+03 -0.12157749853E+03  0.81983861242E+02  0.19526690244E+03  0.00000000000E+00 0. -1.
        -14    1    6    6    0    0  0.40576013846E+02 -0.36703954560E+02  0.87806552654E+02  0.10345812616E+03  0.00000000000E+00 0.  1.
</event>
<event>
12    1  0.1565987E-001  0.1922811E+03  0.7818608E-02  0.1156709E+00
         21   -1    0    0  501  502  0.00000000000E+00  0.00000000000E+00  0.70549014629E+03  0.70549014629E+03  0.00000000000E+00 0.  1.
         21   -1    0    0  502  503 -0.00000000000E+00 -0.00000000000E+00 -0.97769436749E+02  0.97769436749E+02  0.00000000000E+00 0.  1.
         -6    2    1    2    0  503  0.23734709260E+02 -0.81957541867E+02  0.57904640795E+03  0.61013668250E+03  0.17231266258E+03 0.  0.
        -24    2    3    3    0    0  0.15067682574E+02 -0.85882619133E+02  0.21046955098E+03  0.24140708907E+03  0.79856693116E+02 0.  0.
          6    2    1    2  501    0 -0.23734709260E+02  0.81957541867E+02  0.28674301596E+02  0.19312290054E+03  0.17086211999E+03 0.  0.
         24    2    5    5    0    0 -0.59895929081E+02  0.36006917213E+02 -0.29624567453E+02  0.11041895954E+03  0.80191715411E+02 0.  0.
          5    1    5    5  501    0  0.36161219821E+02  0.45950624654E+02  0.58298869049E+02  0.82703941003E+02  0.47000000000E+01 0. -1.
        -13    1    6    6    0    0 -0.26936147992E+02  0.16335650881E+02  0.27351704973E+02  0.41719603584E+02  0.00000000000E+00 0.  1.
         14    1    6    6    0    0 -0.32959781089E+02  0.19671266333E+02 -0.56976272426E+02  0.68699355951E+02  0.00000000000E+00 0. -1.
         -5    1    3    3    0  503  0.86670266863E+01  0.39250772659E+01  0.36857685696E+03  0.36872959343E+03  0.47000000000E+01 0.  1.
         11    1    4    4    0    0  0.29321668094E+02 -0.22405862133E+01  0.30117946841E+02  0.42093600088E+02  0.00000000000E+00 0. -1.
        -12    1    4    4    0    0 -0.14253985520E+02 -0.83642032920E+02  0.18035160414E+03  0.19931348898E+03  0.00000000000E+00 0.  1.
</event>
<event>
12    1  0.1565987E-001  0.1853651E+03  0.7818608E-02  0.1164565E+00
         21   -1    0    0  503  502  0.00000000000E+00  0.00000000000E+00  0.48502139481E+03  0.48502139481E+03  0.00000000000E+00 0. -1.
         21   -1    0    0  501  503 -0.00000000000E+00 -0.00000000000E+00 -0.36396345265E+03  0.36396345265E+03  0.00000000000E+00 0. -1.
          6    2    1    2  501    0  0.30203266225E+02  0.40180103967E+02 -0.32255304106E+03  0.36820326383E+03  0.17031295062E+03 0.  0.
         24    2    3    3    0    0  0.50546206132E+02 -0.27445180148E+02 -0.22531189464E+03  0.24793296486E+03  0.86006676091E+02 0.  0.
         -6    2    1    2    0  502 -0.30203266225E+02 -0.40180103967E+02  0.44361098322E+03  0.48078158362E+03  0.17841958600E+03 0.  0.
        -24    2    5    5    0    0 -0.78414528897E+02 -0.88408809371E+01  0.21429225110E+03  0.24431669478E+03  0.86847446433E+02 0.  0.
          5    1    3    3  501    0 -0.20342939906E+02  0.67625284116E+02 -0.97241146428E+02  0.12027029897E+03  0.47000000000E+01 0. -1.
        -11    1    4    4    0    0  0.35331356016E+01  0.11344368793E+02  0.24715118887E+01  0.12136149369E+02  0.00000000000E+00 0.  1.
         12    1    4    4    0    0  0.47013070530E+02 -0.38789548941E+02 -0.22778340652E+03  0.23579681549E+03  0.00000000000E+00 0. -1.
         -5    1    5    5    0  502  0.48211262671E+02 -0.31339223030E+02  0.22931873213E+03  0.23646488884E+03  0.47000000000E+01 0.  1.
         11    1    6    6    0    0  0.32705258693E+01 -0.29152452557E+02  0.86097931420E+02  0.90958318060E+02  0.00000000000E+00 0. -1.
        -12    1    6    6    0    0 -0.81685054766E+02  0.20311571620E+02  0.12819431968E+03  0.15335837672E+03  0.00000000000E+00 0.  1.
</event>
<event>
12    1  0.1565987E-001  0.1890325E+03  0.7818608E-02  0.1162111E+00
         21   -1    0    0  501  502  0.00000000000E+00  0.00000000000E+00  0.11971318846E+04  0.11971318846E+04  0.00000000000E+00 0.  1.
         21   -1    0    0  502  503 -0.00000000000E+00 -0.00000000000E+00 -0.34973767971E+02  0.34973767971E+02  0.00000000000E+00 0.  1.
         -6    2    1    2    0  503  0.11995684548E+02  0.66773135009E+01  0.32137697247E+03  0.37284907156E+03  0.18853325638E+03 0.  0.
        -24    2    3    3    0    0 -0.54030585585E+02  0.46775897936E+02  0.14146161547E+03  0.17699455793E+03  0.78793375866E+02 0.  0.
          6    2    1    2  501    0 -0.11995684548E+02 -0.66773135009E+01  0.84078114416E+03  0.85925658102E+03  0.17669311442E+03 0.  0.
         24    2    5    5    0    0  0.33181486871E+02  0.52393472212E+02  0.36719689038E+03  0.37984603673E+03  0.74855649859E+02 0.  0.
          5    1    5    5  501    0 -0.45177171419E+02 -0.59070785713E+02  0.47358425378E+03  0.47941054428E+03  0.47000000000E+01 0. -1.
        -13    1    6    6    0    0  0.17849317381E+02  0.46693431786E+02  0.35718879031E+03  0.36066980277E+03  0.00000000000E+00 0.  1.
         14    1    6    6    0    0  0.15332169490E+02  0.57000404265E+01  0.10008100065E+02  0.19176233964E+02  0.00000000000E+00 0. -1.
         -5    1    3    3    0  503  0.66026270133E+02 -0.40098584435E+02  0.17991535700E+03  0.19585451362E+03  0.47000000000E+01 0.  1.
         11    1    4    4    0    0 -0.11044090109E+02  0.45068510351E+02  0.12052750125E+03  0.12915115605E+03  0.00000000000E+00 0. -1.
        -12    1    4    4    0    0 -0.42986495476E+02  0.17073875854E+01  0.20934114222E+02  0.47843401885E+02  0.00000000000E+00 0.  1.
</event>
<event>
12    1  0.1565987E-001  0.2270236E+03  0.7818608E-02  0.1128807E+00
         21   -1    0    0  503  502  0.00000000000E+00  0.00000000000E+00  0.29532256990E+03  0.29532256990E+03  0.00000000000E+00 0. -1.
         21   -1    0    0  501  503 -0.00000000000E+00 -0.00000000000E+00 -0.47430068441E+03  0.47430068441E+03  0.00000000000E+00 0.  1.
          6    2    1    2  501    0 -0.14675097691E+03  0.22307790822E+02 -0.39556227076E+03  0.45608029401E+03  0.17177379831E+03 0.  0.
         24    2    3    3    0    0 -0.16417617303E+03  0.52811109057E+02 -0.31179113564E+03  0.36511995672E+03  0.79724785965E+02 0.  0.
         -6    2    1    2    0  502  0.14675097691E+03 -0.22307790822E+02  0.21658415624E+03  0.31354296030E+03  0.17136803804E+03 0.  0.
        -24    2    5    5    0    0  0.12048356953E+03 -0.77060195702E+02  0.16667472039E+03  0.23479752032E+03  0.83035226521E+02 0.  0.
          5    1    3    3  501    0  0.17425196114E+02 -0.30503318236E+02 -0.83771135111E+02  0.90960337295E+02  0.47000000000E+01 0. -1.
        -11    1    4    4    0    0 -0.39917127479E+01  0.27380790400E+02 -0.50481034631E+02  0.57567146108E+02  0.00000000000E+00 0.  1.
         12    1    4    4    0    0 -0.16018446028E+03  0.25430318657E+02 -0.26131010101E+03  0.30755281061E+03  0.00000000000E+00 0. -1.
         -5    1    5    5    0  502  0.26267407390E+02  0.54752404881E+02  0.49909435849E+02  0.78745439982E+02  0.47000000000E+01 0.  1.
         11    1    6    6    0    0  0.12932603578E+03 -0.70903731793E+02  0.13009971592E+03  0.19666849976E+03  0.00000000000E+00 0. -1.
        -12    1    6    6    0    0 -0.88424662544E+01 -0.61564639097E+01  0.36575004470E+02  0.38129020566E+02  0.00000000000E+00 0.  1.
</event>
<event>
12    1  0.1565987E-001  0.1786382E+03  0.7818608E-02  0.1169499E+00
         21   -1    0    0  501  502  0.00000000000E+00  0.00000000000E+00  0.98044185194E+03  0.98044185194E+03  0.00000000000E+00 0. -1.
         21   -1    0    0  502  503 -0.00000000000E+00 -0.00000000000E+00 -0.10661036382E+03  0.10661036382E+03  0.00000000000E+00 0. -1.
         -6    2    1    2    0  503 -0.34919238456E+02  0.27278991751E+02 -0.17508780959E+02  0.17798726578E+03  0.17149172798E+03 0.  0.
        -24    2    3    3    0    0  0.67393773243E+01  0.26057942941E+02 -0.71610353204E+02  0.10953289157E+03  0.78389897648E+02 0.  0.
          6    2    1    2  501    0  0.34919238456E+02 -0.27278991751E+02  0.89134026908E+03  0.90906494998E+03  0.17305522645E+03 0.  0.
         24    2    5    5    0    0  0.64184074800E+02  0.10124608798E+01  0.30537745786E+03  0.32167126337E+03  0.78079378685E+02 0.  0.
          5    1    5    5  501    0 -0.29264836345E+02 -0.28291452631E+02  0.58596281122E+03  0.58739368661E+03  0.47000000000E+01 0. -1.
        -11    1    6    6    0    0  0.42678990285E+02 -0.11174331524E+02  0.57058681898E+02  0.72125273495E+02  0.00000000000E+00 0.  1.
         12    1    6    6    0    0  0.21505084516E+02  0.12186792404E+02  0.24831877596E+03  0.24954598988E+03  0.00000000000E+00 0. -1.
         -5    1    3    3    0  503 -0.41658615780E+02  0.12210488096E+01  0.54101572245E+02  0.68454374209E+02  0.47000000000E+01 0.  1.
         13    1    4    4    0    0 -0.34259983688E+02  0.24001647137E+02 -0.36228493332E+02  0.55338316532E+02  0.00000000000E+00 0. -1.
        -14    1    4    4    0    0  0.40999361012E+02  0.20562958046E+01 -0.35381859872E+02  0.54194575041E+02  0.00000000000E+00 0.  1.
</event>
<event>
12    1  0.1565987E-001  0.1896814E+03  0.7818608E-02  0.1158910E+00
         21   -1    0    0  501  502  0.00000000000E+00  0.00000000000E+00  0.30399386673E+03  0.30399386673E+03  0.00000000000E+00 0.  1.
         21   -1    0    0  502  503 -0.00000000000E+00 -0.00000000000E+00 -0.18897812534E+03  0.18897812534E+03  0.00000000000E+00 0.  1.
         -6    2    1    2    0  503  0.63413399424E+02  0.45186227332E+02 -0.93712258350E+02  0.21093226879E+03  0.17218414644E+03 0.  0.
        -24    2    3    3    0    0  0.59248250449E+01  0.32138770453E+01  0.15233733242E+02  0.80709638439E+02  0.78971808583E+02 0.  0.
          6    2    1    2  501    0 -0.63413399424E+02 -0.45186227332E+02  0.20872799974E+03  0.28203972328E+03  0.17296234638E+03 0.  0.
         24    2    5    5    0    0 -0.19865293767E+01 -0.76644114060E+02  0.16937187366E+03  0.20245421165E+03  0.80141186095E+02 0.  0.
          5    1    5    5  501    0 -0.61426870047E+02  0.31457886728E+02  0.39356126081E+02  0.79585511629E+02  0.47000000000E+01 0. -1.
        -11    1    6    6    0    0 -0.17127246239E+02 -0.89438333923E+02  0.13748159657E+03  0.16490526836E+03  0.00000000000E+00 0.  1.
         12    1    6    6    0    0  0.15140716862E+02  0.12794219864E+02  0.31890277090E+02  0.37548943286E+02  0.00000000000E+00 0. -1.
         -5    1    3    3    0  503  0.57488574379E+02  0.41972350287E+02 -0.10894599159E+03  0.13022263036E+03  0.47000000000E+01 0.  1.
         11    1    4    4    0    0  0.16712533395E+02 -0.28446853731E+02 -0.14422622000E+02  0.36007558721E+02  0.00000000000E+00 0. -1.
        -12    1    4    4    0    0 -0.10787708350E+02  0.31660730777E+02  0.29656355243E+02  0.44702079717E+02  0.00000000000E+00 0.  1.
</event>
<event>
12    1  0.1565987E-001  0.1861974E+03  0.7818608E-02  0.1162238E+00
         21   -1    0    0  501  502  0.00000000000E+00  0.00000000000E+00  0.10252851440E+03  0.10252851440E+03  0.00000000000E+00 0. -1.
         21   -1    0    0  502  503 -0.00000000000E+00 -0.00000000000E+00 -0.45233239990E+03  0.45233239990E+03  0.00000000000E+00 0. -1.
         -6    2    1    2    0  503  0.60512393140E+02 -0.33269446080E+02 -0.33628208800E+02  0.18793240272E+03  0.17152004489E+03 0.  0.
        -24    2    3    3    0    0 -0.87520519241E+01 -0.35894201554E+02  0.30323144384E+02  0.93506144376E+02  0.80367367959E+02 0.  0.
          6    2    1    2  501    0 -0.60512393140E+02  0.33269446080E+02 -0.31617567670E+03  0.36692851158E+03  0.17291867541E+03 0.  0.
         24    2    5    5    0    0 -0.92672255935E+02 -0.18986607069E+02 -0.21872483791E+03  0.25167354272E+03  0.80934412443E+02 0.  0.
          5    1    5    5  501    0  0.32159862796E+02  0.52256053149E+02 -0.97450838793E+02  0.11525496886E+03  0.47000000000E+01 0. -1.
        -13    1    6    6    0    0 -0.62454258712E+02 -0.38976202100E+02 -0.81859871724E+02  0.11009412954E+03  0.00000000000E+00 0.  1.
         14    1    6    6    0    0 -0.30217997223E+02  0.19989595031E+02 -0.13686496618E+03  0.14157941317E+03  0.00000000000E+00 0. -1.
         -5    1    3    3    0  503  0.69264445064E+02  0.26247554742E+01 -0.63951353184E+02  0.94426258347E+02  0.47000000000E+01 0.  1.
         13    1    4    4    0    0 -0.18078980812E+02 -0.20540506351E+02 -0.23933052774E+02  0.36353169922E+02  0.00000000000E+00 0. -1.
        -14    1    4    4    0    0  0.93269288878E+01 -0.15353695203E+02  0.54256197158E+02  0.57152974453E+02  0.00000000000E+00 0.  1.
</event>
<event>
12    1  0.1565987E-001  0.1985635E+03  0.7818608E-02  0.1151150E+00
         21   -1    0    0  503  502  0.00000000000E+00  0.00000000000E+00  0.21771071560E+03  0.21771071560E+03  0.00000000000E+00 0. -1.
         21   -1    0    0  501  503 -0.00000000000E+00 -0.00000000000E+00 -0.29291658260E+03  0.29291658260E+03  0.00000000000E+00 0. -1.
          6    2    1    2  501    0 -0.75173230939E+02 -0.56349136998E+02 -0.19598074432E+03  0.27899085845E+03  0.17493200696E+03 0.  0.
         24    2    3    3    0    0 -0.96120499643E+01  0.28298981432E+02 -0.11882036262E+03  0.14693258756E+03  0.81102915237E+02 0.  0.
         -6    2    1    2    0  502  0.75173230939E+02  0.56349136998E+02  0.12077487733E+03  0.23163643975E+03  0.17390408085E+03 0.  0.
        -24    2    5    5    0    0  0.45524407125E+02  0.71800720350E+01  0.14293344120E+03  0.16991333504E+03  0.79476711878E+02 0.  0.
          5    1    3    3  501    0 -0.65561180975E+02 -0.84648118429E+02 -0.77160381703E+02  0.13205827088E+03  0.47000000000E+01 0. -1.
        -13    1    4    4    0    0 -0.13179904886E+02  0.13088940454E+02  0.72191398001E+01  0.19928528156E+02  0.00000000000E+00 0.  1.
         14    1    4    4    0    0  0.35678549219E+01  0.15210040978E+02 -0.12603950242E+03  0.12700405940E+03  0.00000000000E+00 0. -1.
         -5    1    5    5    0  502  0.29648823814E+02  0.49169064963E+02 -0.22158563874E+02  0.61723104716E+02  0.47000000000E+01 0.  1.
         13    1    6    6    0    0  0.15489974977E+02  0.38555244950E+02  0.10238153804E+03  0.11049174435E+03  0.00000000000E+00 0. -1.
        -14    1    6    6    0    0  0.30034432148E+02 -0.31375172915E+02  0.40551903165E+02  0.59421590690E+02  0.00000000000E+00 0.  1.
</event>
<event>
12    1  0.1565987E-001  0.1753441E+03  0.7818608E-02  0.1172418E+00
         21   -1    0    0  503  502  0.00000000000E+00  0.00000000000E+00  0.68641998125E+03  0.68641998125E+03  0.00000000000E+00 0. -1.
         21   -1    0    0  501  503 -0.00000000000E+00 -0.00000000000E+00 -0.71493759288E+02  0.71493759288E+02  0.00000000000E+00 0. -1.
          6    2    1    2  501    0  0.36551238958E+01 -0.36815317602E+02  0.75660605175E+02  0.19085734018E+03  0.17126958161E+03 0.  0.
         24    2    3    3    0    0  0.44830787156E+02  0.16013861572E+02  0.80496481093E+02  0.12353844897E+03  0.80720639659E+02 0.  0.
         -6    2    1    2    0  502 -0.36551238958E+01  0.36815317602E+02  0.53926561679E+03  0.56705640036E+03  0.17139669833E+03 0.  0.
        -24    2    5    5    0    0 -0.10864842581E+02  0.69885665720E+02  0.51406406827E+03  0.52459658388E+03  0.77056203179E+02 0.  0.
          5    1    3    3  501    0 -0.41175663260E+02 -0.52829179174E+02 -0.48358759181E+01  0.67318891204E+02  0.47000000000E+01 0. -1.
        -13    1    4    4    0    0 -0.16327623258E+01  0.20650944328E+02  0.73450076867E+02  0.76315406088E+02  0.00000000000E+00 0.  1.
         14    1    4    4    0    0  0.46463549482E+02 -0.46370827564E+01  0.70464042259E+01  0.47223042886E+02  0.00000000000E+00 0. -1.
         -5    1    5    5    0  502  0.72097186853E+01 -0.33070348118E+02  0.25201548513E+02  0.42459816481E+02  0.47000000000E+01 0.  1.
         13    1    6    6    0    0 -0.31240516556E+02  0.21165355760E+01  0.21535788852E+03  0.21762230985E+03  0.00000000000E+00 0. -1.
        -14    1    6    6    0    0  0.20375673975E+02  0.67769130144E+02  0.29870617975E+03  0.30697427403E+03  0.00000000000E+00 0.  1.
</event>
<event>
12    1  0.1565987E-001  0.1893258E+03  0.7818608E-02  0.1159662E+00
         21   -1    0    0  501  502  0.00000000000E+00  0.00000000000E+00  0.12156581357E+04  0.12156581357E+04  0.00000000000E+00 0. -1.
         21   -1    0    0  502  503 -0.00000000000E+00 -0.00000000000E+00 -0.59713539584E+02  0.59713539584E+02  0.00000000000E+00 0.  1.
         -6    2    1    2    0  503 -0.69327562972E+02  0.23316562143E+02  0.11932451062E+03  0.22160440787E+03  0.17181443973E+03 0.  0.
        -24    2    3    3    0    0 -0.22562110428E+02  0.73335563891E+02  0.10106967654E+03  0.15058161538E+03  0.81071509264E+02 0.  0.
          6    2    1    2  501    0  0.69327562972E+02 -0.23316562143E+02  0.10366200855E+04  0.10537672674E+04  0.17462611242E+03 0.  0.
         24    2    5    5    0    0  0.88001559256E+02 -0.70882175941E+02  0.78268312801E+03  0.79469724959E+03  0.78627490964E+02 0.  0.
          5    1    5    5  501    0 -0.18673996285E+02  0.47565613798E+02  0.25393695748E+03  0.25907001781E+03  0.47000000000E+01 0. -1.
        -13    1    6    6    0    0  0.30191278469E+02  0.64786910765E+01  0.86473379330E+02  0.91821196172E+02  0.00000000000E+00 0.  1.
         14    1    6    6    0    0  0.57810280787E+02 -0.77360867017E+02  0.69620974868E+03  0.70287605342E+03  0.00000000000E+00 0. -1.
         -5    1    3    3    0  503 -0.46765452543E+02 -0.50019001747E+02  0.18254834071E+02  0.71022792499E+02  0.47000000000E+01 0.  1.
         11    1    4    4    0    0 -0.41526322884E+02  0.22515532103E+02  0.78948194947E+02  0.92001098709E+02  0.00000000000E+00 0. -1.
        -12    1    4    4    0    0  0.18964212456E+02  0.50820031787E+02  0.22121481597E+02  0.58580516667E+02  0.00000000000E+00 0.  1.
</event>
<event>
12    1  0.1565987E-001  0.1969223E+03  0.7818608E-02  0.1152646E+00
         21   -1    0    0  503  502  0.00000000000E+00  0.00000000000E+00  0.47758942369E+03  0.47758942369E+03  0.00000000000E+00 0.  1.
         21   -1    0    0  501  503 -0.00000000000E+00 -0.00000000000E+00 -0.12342654462E+03  0.12342654462E+03  0.00000000000E+00 0.  1.
          6    2    1    2  501    0  0.90035220428E+02  0.17126451191E+02  0.35359334290E+03  0.40409282211E+03  0.17280943402E+03 0.  0.
         24    2    3    3    0    0  0.95288774237E+02 -0.10308544934E+02  0.35451158470E+03  0.37575182692E+03  0.79528329283E+02 0.  0.
         -6    2    1    2    0  502 -0.90035220428E+02 -0.17126451191E+02  0.56953616418E+00  0.19692314620E+03  0.17429499388E+03 0.  0.
        -24    2    5    5    0    0  0.79854132664E+01  0.24442072739E+02  0.25270763875E+02  0.87523751953E+02  0.79753457005E+02 0.  0.
          5    1    3    3  501    0 -0.52535538090E+01  0.27434996124E+02 -0.91824179472E+00  0.28340995183E+02  0.47000000000E+01 0. -1.
        -13    1    4    4    0    0  0.13705411041E+02  0.22487838987E+02  0.16178851688E+03  0.16391786172E+03  0.00000000000E+00 0.  1.
         14    1    4    4    0    0  0.81583363196E+02 -0.32796383920E+02  0.19272306781E+03  0.21183396521E+03  0.00000000000E+00 0. -1.
         -5    1    5    5    0  502 -0.98020633695E+02 -0.41568523930E+02 -0.24701227711E+02  0.10939939425E+03  0.47000000000E+01 0.  1.
         11    1    6    6    0    0  0.71499575377E+01 -0.24558775212E+01  0.50244576542E+02  0.50810143663E+02  0.00000000000E+00 0. -1.
        -12    1    6    6    0    0  0.83545572869E+00  0.26897950261E+02 -0.24973812667E+02  0.36713608289E+02  0.00000000000E+00 0.  1.
</event>
<event>
12    1  0.1565987E-001  0.2078918E+03  0.7818608E-02  0.1143789E+00
         21   -1    0    0  503  502  0.00000000000E+00  0.00000000000E+00  0.75119126894E+03  0.75119126894E+03  0.00000000000E+00 0.  1.
         21   -1    0    0  501  503 -0.00000000000E+00 -0.00000000000E+00 -0.66798192016E+02  0.66798192016E+02  0.00000000000E+00 0.  1.
          6    2    1    2  501    0  0.10123668078E+03  0.49417656293E+02  0.18202040800E+03  0.27430085211E+03  0.17151839042E+03 0.  0.
         24    2    3    3    0    0  0.34530867551E+01  0.28082027867E+01  0.24451901639E+02  0.83031417506E+02  0.79224434288E+02 0.  0.
         -6    2    1    2    0  502 -0.10123668078E+03 -0.49417656293E+02  0.50237266893E+03  0.54368860885E+03  0.17472273641E+03 0.  0.
        -24    2    5    5    0    0  0.43652174054E+01  0.18705146246E+02  0.22157798273E+03  0.23601959363E+03  0.78990559749E+02 0.  0.
          5    1    3    3  501    0  0.97783594028E+02  0.46609453506E+02  0.15756850636E+03  0.19126943461E+03  0.47000000000E+01 0. -1.
        -11    1    4    4    0    0 -0.18674849942E+02  0.35323060324E+02  0.10663526247E+02  0.41354315410E+02  0.00000000000E+00 0.  1.
         12    1    4    4    0    0  0.22127936697E+02 -0.32514857537E+02  0.13788375391E+02  0.41677102096E+02  0.00000000000E+00 0. -1.
         -5    1    5    5    0  502 -0.10560189819E+03 -0.68122802539E+02  0.28079468620E+03  0.30766901522E+03  0.47000000000E+01 0.  1.
         13    1    6    6    0    0 -0.18473072538E+02  0.29825043438E+02  0.42319201101E+02  0.54970013706E+02  0.00000000000E+00 0. -1.
        -14    1    6    6    0    0  0.22838289943E+02 -0.11119897191E+02  0.17925878163E+03  0.18104957993E+03  0.00000000000E+00 0.  1.
</event>
<event>
12    1  0.1565987E-001  0.2100809E+03  0.7818608E-02  0.1141750E+00
         21   -1    0    0  503  502  0.00000000000E+00  0.00000000000E+00  0.10768915911E+04  0.10768915911E+04  0.00000000000E+00 0.  1.
         21   -1    0    0  501  503 -0.00000000000E+00 -0.00000000000E+00 -0.51774611217E+02  0.51774611217E+02  0.00000000000E+00 0. -1.
          6    2    1    2  501    0  0.54798042715E+02 -0.10571547857E+03  0.77189279410E+03  0.79964266524E+03  0.17155558458E+03 0.  0.
         24    2    3    3    0    0  0.38796364022E+02 -0.12774605033E+03  0.74493043057E+03  0.76103620387E+03  0.80190685068E+02 0.  0.
         -6    2    1    2    0  502 -0.54798042715E+02  0.10571547857E+03  0.25322418574E+03  0.32902353703E+03  0.17307631779E+03 0.  0.
        -24    2    5    5    0    0 -0.82713737911E+02  0.69279270305E+02  0.95801431216E+02  0.16497812578E+03  0.79991799757E+02 0.  0.
          5    1    3    3  501    0  0.16001678693E+02  0.22030571758E+02  0.26962363528E+02  0.38606461376E+02  0.47000000000E+01 0. -1.
        -11    1    4    4    0    0  0.46800583713E+02 -0.25984397547E+02  0.24151140435E+03  0.24737267833E+03  0.00000000000E+00 0.  1.
         12    1    4    4    0    0 -0.80042196911E+01 -0.10176165278E+03  0.50341902622E+03  0.51366352554E+03  0.00000000000E+00 0. -1.
         -5    1    5    5    0  502  0.27915695196E+02  0.36436208267E+02  0.15742275452E+03  0.16404541125E+03  0.47000000000E+01 0.  1.
         13    1    6    6    0    0 -0.13956434648E+02  0.59662675433E+02  0.26102863408E+02  0.66601624499E+02  0.00000000000E+00 0. -1.
        -14    1    6    6    0    0 -0.68757303263E+02  0.96165948722E+01  0.69698567808E+02  0.98376501276E+02  0.00000000000E+00 0.  1.
</event>
<event>
12    1  0.1565987E-001  0.2066012E+03  0.7818608E-02  0.1145642E+00
         21   -1    0    0  501  502  0.00000000000E+00  0.00000000000E+00  0.16478176712E+03  0.16478176712E+03  0.00000000000E+00 0.  1.
         21   -1    0    0  502  503 -0.00000000000E+00 -0.00000000000E+00 -0.46905091973E+03  0.46905091973E+03  0.00000000000E+00 0.  1.
         -6    2    1    2    0  503  0.40183556819E+01 -0.11238665339E+03 -0.36959801123E+03  0.42342266245E+03  0.17331230230E+03 0.  0.
        -24    2    3    3    0    0 -0.53344293877E+02 -0.10813296076E+03 -0.21403971594E+03  0.25750388503E+03  0.77180955666E+02 0.  0.
          6    2    1    2  501    0 -0.40183556819E+01  0.11238665339E+03  0.65328858625E+02  0.21041002440E+03  0.16540136504E+03 0.  0.
         24    2    5    5    0    0 -0.56846451535E+02  0.64379361153E+02  0.72862760202E+02  0.13847701743E+03  0.80564764863E+02 0.  0.
          5    1    5    5  501    0  0.52828095853E+02  0.48007292232E+02 -0.75339015773E+01  0.71933006971E+02  0.47000000000E+01 0. -1.
        -13    1    6    6    0    0 -0.10010006537E+02  0.44542650760E+02  0.74737796466E+02  0.87578457329E+02  0.00000000000E+00 0.  1.
         14    1    6    6    0    0 -0.46836444998E+02  0.19836710393E+02 -0.18750362641E+01  0.50898560100E+02  0.00000000000E+00 0. -1.
         -5    1    3    3    0  503  0.57362649559E+02 -0.42536926290E+01 -0.15555829529E+03  0.16591877741E+03  0.47000000000E+01 0.  1.
         13    1    4    4    0    0 -0.69154742493E+01  0.13602370706E+01  0.47360175097E+01  0.84914009935E+01  0.00000000000E+00 0. -1.
        -14    1    4    4    0    0 -0.46428819628E+02 -0.10949319783E+03 -0.21877573345E+03  0.24901248404E+03  0.00000000000E+00 0.  1.
</event>
<event>
12    1  0.1565987E-001  0.2190763E+03  0.7818608E-02  0.1134645E+00
         21   -1    0    0  501  502  0.00000000000E+00  0.00000000000E+00  0.34416477533E+02  0.34416477533E+02  0.00000000000E+00 0.  1.
         21   -1    0    0  502  503 -0.00000000000E+00 -0.00000000000E+00 -0.18628476717E+04  0.18628476717E+04  0.00000000000E+00 0.  1.
         -6    2    1    2    0  503 -0.12032507074E+03  0.63103457720E+02 -0.13916861412E+04  0.14088238784E+04  0.17185527553E+03 0.  0.
        -24    2    3    3    0    0 -0.10270673006E+03 -0.70779685439E+01 -0.11169873192E+04  0.11247158508E+04  0.82014046547E+02 0.  0.
          6    2    1    2  501    0  0.12032507074E+03 -0.63103457720E+02 -0.43674505292E+03  0.48844027078E+03  0.17136944841E+03 0.  0.
         24    2    5    5    0    0  0.10177244158E+03 -0.71346553371E+02 -0.18753515983E+03  0.23836066448E+03  0.78729979399E+02 0.  0.
          5    1    5    5  501    0  0.18552629162E+02  0.82430956508E+01 -0.24920989309E+03  0.25007960630E+03  0.47000000000E+01 0. -1.
        -13    1    6    6    0    0  0.61488462680E+02 -0.82515360295E+02 -0.15164289486E+03  0.18326260745E+03  0.00000000000E+00 0.  1.
         14    1    6    6    0    0  0.40283978897E+02  0.11168806925E+02 -0.35892264972E+02  0.55098057032E+02  0.00000000000E+00 0. -1.
         -5    1    3    3    0  503 -0.17618340681E+02  0.70181426264E+02 -0.27469882208E+03  0.28410802764E+03  0.47000000000E+01 0.  1.
         13    1    4    4    0    0  0.53954869050E+01  0.19550080965E+02 -0.17726708161E+03  0.17842347146E+03  0.00000000000E+00 0. -1.
        -14    1    4    4    0    0 -0.10810221696E+03 -0.26628049509E+02 -0.93972023755E+03  0.94629237934E+03  0.00000000000E+00 0.  1.
</event>
<event>
12    1  0.1565987E-001  0.1780076E+03  0.7818608E-02  0.1170162E+00
         21   -1    0    0  503  502  0.00000000000E+00  0.00000000000E+00  0.25843397224E+03  0.25843397224E+03  0.00000000000E+00 0. -1.
         21   -1    0    0  501  503 -0.00000000000E+00 -0.00000000000E+00 -0.12827949310E+03  0.12827949310E+03  0.00000000000E+00 0. -1.
          6    2    1    2  501    0  0.46686234194E+02 -0.64448531065E+01  0.20760262647E+02  0.17921412879E+03  0.17165539565E+03 0.  0.
         24    2    3    3    0    0  0.51190322372E+02 -0.55370881614E+01 -0.50834625982E+02  0.10731816975E+03  0.79258576260E+02 0.  0.
         -6    2    1    2    0  502 -0.46686234194E+02  0.64448531065E+01  0.10939421649E+03  0.20749933654E+03  0.16990508959E+03 0.  0.
        -24    2    5    5    0    0 -0.68762464512E+02  0.52096043601E+02  0.49238379229E+02  0.12868178840E+03  0.81806542477E+02 0.  0.
          5    1    3    3  501    0 -0.45040881783E+01 -0.90776494514E+00  0.71594888629E+02  0.71895959034E+02  0.47000000000E+01 0. -1.
        -11    1    4    4    0    0  0.41830568310E+01 -0.11052403953E+02  0.19345715572E+02  0.22669589952E+02  0.00000000000E+00 0.  1.
         12    1    4    4    0    0  0.47007265541E+02  0.55153157920E+01 -0.70180341554E+02  0.84648579802E+02  0.00000000000E+00 0. -1.
         -5    1    5    5    0  502  0.22076230318E+02 -0.45651190494E+02  0.60155837263E+02  0.78817548144E+02  0.47000000000E+01 0.  1.
         11    1    6    6    0    0 -0.44825270303E+02  0.24444626952E+01  0.57496557803E+02  0.72946106235E+02  0.00000000000E+00 0. -1.
        -12    1    6    6    0    0 -0.23937194208E+02  0.49651580906E+02 -0.82581785737E+01  0.55735682165E+02  0.00000000000E+00 0.  1.
</event>
<event>
12    1  0.1565987E-001  0.2112608E+03  0.7818608E-02  0.1140743E+00
         21   -1    0    0  503  502  0.00000000000E+00  0.00000000000E+00  0.69395830060E+03  0.69395830060E+03  0.00000000000E+00 0. -1.
         21   -1    0    0  501  503 -0.00000000000E+00 -0.00000000000E+00 -0.10688482229E+03  0.10688482229E+03  0.00000000000E+00 0. -1.
          6    2    1    2  501    0  0.12122896893E+03  0.15797973009E+02  0.39679237874E+02  0.21409652776E+03  0.17122161785E+03 0.  0.
         24    2    3    3    0    0  0.13532274515E+03 -0.89382756658E+01 -0.90818019401E+01  0.15743749908E+03  0.79447774437E+02 0.  0.
         -6    2    1    2    0  502 -0.12122896893E+03 -0.15797973009E+02  0.54739424044E+03  0.58674659513E+03  0.17229356800E+03 0.  0.
        -24    2    5    5    0    0 -0.15392303632E+02 -0.47655042472E+02  0.32169260472E+03  0.33539108800E+03  0.80579922429E+02 0.  0.
          5    1    3    3  501    0 -0.14093776222E+02  0.24736248675E+02  0.48761039815E+02  0.56659028676E+02  0.47000000000E+01 0. -1.
        -11    1    4    4    0    0  0.48935529591E+02 -0.90907258875E+01  0.34616312072E+02  0.60626862157E+02  0.00000000000E+00 0.  1.
         12    1    4    4    0    0  0.86387215563E+02  0.15245022175E+00 -0.43698114012E+02  0.96810636926E+02  0.00000000000E+00 0. -1.
         -5    1    5    5    0  502 -0.10583666530E+03  0.31857069463E+02  0.22570163572E+03  0.25135550713E+03  0.47000000000E+01 0.  1.
         11    1    6    6    0    0  0.43671134656E+01 -0.35765718349E+02  0.44579260176E+02  0.57319880730E+02  0.00000000000E+00 0. -1.
        -12    1    6    6    0    0 -0.19759417097E+02 -0.11889324123E+02  0.27711334454E+03  0.27807120727E+03  0.00000000000E+00 0.  1.
</event>
<event>
12    1  0.1565987E-001  0.1928844E+03  0.7818608E-02  0.1156033E+00
         21   -1    0    0  503  502  0.00000000000E+00  0.00000000000E+00  0.12050244121E+03  0.12050244121E+03  0.00000000000E+00 0. -1.
         21   -1    0    0  501  503 -0.00000000000E+00 -0.00000000000E+00 -0.35947478977E+03  0.35947478977E+03  0.00000000000E+00 0. -1.
          6    2    1    2  501    0  0.41863784713E+02  0.76901045797E+02 -0.21076359929E+03  0.28570209245E+03  0.17186635369E+03 0.  0.
         24    2    3    3    0    0  0.36694269125E+02  0.56117299488E+02 -0.23266274943E+03  0.25471256552E+03  0.79062730645E+02 0.  0.
         -6    2    1    2    0  502 -0.41863784713E+02 -0.76901045797E+02 -0.28208749281E+02  0.19427513854E+03  0.17111618451E+03 0.  0.
        -24    2    5    5    0    0  0.13823688151E+02 -0.30632243835E+02  0.40419808953E+02  0.94405895651E+02  0.78417367090E+02 0.  0.
          5    1    3    3  501    0  0.51695155880E+01  0.20783746309E+02  0.21899150140E+02  0.30989526923E+02  0.47000000000E+01 0. -1.
        -11    1    4    4    0    0  0.56757988274E+02  0.38250711836E+02 -0.11334153306E+03  0.13240426468E+03  0.00000000000E+00 0.  1.
         12    1    4    4    0    0 -0.20063719150E+02  0.17866587652E+02 -0.11932121637E+03  0.12230830084E+03  0.00000000000E+00 0. -1.
         -5    1    5    5    0  502 -0.55687472864E+02 -0.46268801962E+02 -0.68628558235E+02  0.99869242885E+02  0.47000000000E+01 0.  1.
         11    1    6    6    0    0 -0.29998393932E+01 -0.52849314583E+02  0.40313848493E+02  0.66537624458E+02  0.00000000000E+00 0. -1.
        -12    1    6    6    0    0  0.16823527544E+02  0.22217070747E+02  0.10596046022E+00  0.27868271192E+02  0.00000000000E+00 0.  1.
</event>
<event>
12    1  0.1565987E-001  0.1885872E+03  0.7818608E-02  0.1160033E+00
         21   -1    0    0  501  502  0.00000000000E+00  0.00000000000E+00  0.10606003202E+03  0.10606003202E+03  0.00000000000E+00 0. -1.
         21   -1    0    0  502  503 -0.00000000000E+00 -0.00000000000E+00 -0.46959361027E+03  0.46959361027E+03  0.00000000000E+00 0. -1.
         -6    2    1    2    0  503 -0.28023478031E+02  0.69127261516E+02 -0.33740011789E+03  0.38652809968E+03  0.17320865649E+03 0.  0.
        -24    2    3    3    0    0 -0.38351615552E+02  0.90649936768E+02 -0.34150630374E+03  0.36185327978E+03  0.67992522710E+02 0.  0.
          6    2    1    2  501    0  0.28023478031E+02 -0.69127261516E+02 -0.26133460360E+02  0.18912554262E+03  0.17181856569E+03 0.  0.
         24    2    5    5    0    0 -0.41144182040E+02 -0.23915986237E+02  0.15304205640E+02  0.96565320191E+02  0.82618546586E+02 0.  0.
          5    1    5    5  501    0  0.69167660071E+02 -0.45211275280E+02 -0.41437665999E+02  0.92560222426E+02  0.47000000000E+01 0. -1.
        -11    1    6    6    0    0 -0.12071260930E+02 -0.42738364008E+02  0.35159625617E+02  0.56643467162E+02  0.00000000000E+00 0.  1.
         12    1    6    6    0    0 -0.29072921110E+02  0.18822377771E+02 -0.19855419978E+02  0.39921853030E+02  0.00000000000E+00 0. -1.
         -5    1    3    3    0  503  0.10328137521E+02 -0.21522675251E+02  0.41061858500E+01  0.24674819895E+02  0.47000000000E+01 0.  1.
         11    1    4    4    0    0 -0.66744716210E+01  0.82276436749E+02 -0.28304475578E+03  0.29483604663E+03  0.00000000000E+00 0. -1.
        -12    1    4    4    0    0 -0.31677143931E+02  0.83735000184E+01 -0.58461547958E+02  0.67017233156E+02  0.00000000000E+00 0.  1.
</event>
<event>
12    1  0.1565987E-001  0.2262967E+03  0.7818608E-02  0.1129397E+00
         21   -1    0    0  501  502  0.00000000000E+00  0.00000000000E+00  0.43884683931E+03  0.43884683931E+03  0.00000000000E+00 0. -1.
         21   -1    0    0  502  503 -0.00000000000E+00 -0.00000000000E+00 -0.36111114978E+03  0.36111114978E+03  0.00000000000E+00 0. -1.
         -6    2    1    2    0  503 -0.89684024295E+02 -0.11497529325E+03 -0.29045420858E+03  0.36778439683E+03  0.17216031190E+03 0.  0.
        -24    2    3    3    0    0 -0.93341768865E+02 -0.14146048590E+03 -0.20079432952E+03  0.27410500508E+03  0.78047653098E+02 0.  0.
          6    2    1    2  501    0  0.89684024295E+02  0.11497529325E+03  0.36818989811E+03  0.43217359226E+03  0.17305395257E+03 0.  0.
         24    2    5    5    0    0  0.82597484841E+02  0.13543594591E+02  0.13466517790E+03  0.17742961591E+03  0.79629046245E+02 0.  0.
          5    1    5    5  501    0  0.70865394544E+01  0.10143169866E+03  0.23352472022E+03  0.25474397635E+03  0.47000000000E+01 0. -1.
        -11    1    6    6    0    0  0.78257245693E+02  0.29439010112E+02  0.13728819377E+03  0.16074482874E+03  0.00000000000E+00 0.  1.
         12    1    6    6    0    0  0.43402391477E+01 -0.15895415521E+02 -0.26230158689E+01  0.16684787164E+02  0.00000000000E+00 0. -1.
         -5    1    3    3    0  503  0.36577445700E+01  0.26485192652E+02 -0.89659879064E+02  0.93679391751E+02  0.47000000000E+01 0.  1.
         11    1    4    4    0    0 -0.98903800214E+02 -0.87436364616E+02 -0.13548348672E+03  0.18916356607E+03  0.00000000000E+00 0. -1.
        -12    1    4    4    0    0  0.55620313490E+01 -0.54024121288E+02 -0.65310842796E+02  0.84941439006E+02  0.00000000000E+00 0.  1.
</event>
<event>
12    1  0.1565987E-001  0.1767831E+03  0.7818608E-02  0.1172443E+00
         21   -1    0    0  503  502  0.00000000000E+00  0.00000000000E+00  0.10523764164E+03  0.10523764164E+03  0.00000000000E+00 0.  1.
         21   -1    0    0  501  503 -0.00000000000E+00 -0.00000000000E+00 -0.29674679842E+03  0.29674679842E+03  0.00000000000E+00 0.  1.
          6    2    1    2  501    0  0.63343276549E+01  0.12529714064E+02 -0.58008411944E+02  0.18045631237E+03  0.17030087309E+03 0.  0.
         24    2    3    3    0    0  0.50459869272E+02  0.15727528097E+02  0.10954831421E+02  0.98387387843E+02  0.82258836657E+02 0.  0.
         -6    2    1    2    0  502 -0.63343276549E+01 -0.12529714064E+02 -0.13350074484E+03  0.22152812770E+03  0.17622470044E+03 0.  0.
        -24    2    5    5    0    0 -0.61471580516E+02  0.27903704550E+02 -0.67428024354E+02  0.12633005846E+03  0.82797181496E+02 0.  0.
          5    1    3    3  501    0 -0.44125541617E+02 -0.31978140332E+01 -0.68963243365E+02  0.82068924526E+02  0.47000000000E+01 0. -1.
        -11    1    4    4    0    0  0.31035533188E+02  0.42813953978E+02 -0.16296604826E+02  0.55333699536E+02  0.00000000000E+00 0.  1.
         12    1    4    4    0    0  0.19424336084E+02 -0.27086425881E+02  0.27251436247E+02  0.43053688307E+02  0.00000000000E+00 0. -1.
         -5    1    5    5    0  502  0.55137252861E+02 -0.40433418614E+02 -0.66072720483E+02  0.95198069234E+02  0.47000000000E+01 0.  1.
         13    1    6    6    0    0 -0.81835282635E+02  0.22710695288E+02 -0.60224777784E+02  0.10411442274E+03  0.00000000000E+00 0. -1.
        -14    1    6    6    0    0  0.20363702118E+02  0.51930092622E+01 -0.72032465706E+01  0.22215635717E+02  0.00000000000E+00 0.  1.
</event>
<event>
12    1  0.1565987E-001  0.3200619E+03  0.7818608E-02  0.1075634E+00
         21   -1    0    0  501  502  0.00000000000E+00  0.00000000000E+00  0.54365669013E+03  0.54365669013E+03  0.00000000000E+00 0.  1.
         21   -1    0    0  502  503 -0.00000000000E+00 -0.00000000000E+00 -0.21330393809E+03  0.21330393809E+03  0.00000000000E+00 0. -1.
         -6    2    1    2    0  503  0.98678068468E+02  0.25141551032E+03  0.35776493736E+02  0.32205523813E+03  0.17173380237E+03 0.  0.
        -24    2    3    3    0    0 -0.15706892157E+02  0.11279588823E+03  0.30939678475E+01  0.13932714411E+03  0.80205121946E+02 0.  0.
          6    2    1    2  501    0 -0.98678068468E+02 -0.25141551032E+03  0.29457625830E+03  0.43490539009E+03  0.17152377781E+03 0.  0.
         24    2    5    5    0    0 -0.11501554022E+03 -0.11998904959E+03  0.19990131265E+03  0.27203960824E+03  0.80119081020E+02 0.  0.
          5    1    5    5  501    0  0.16337471749E+02 -0.13142646073E+03  0.94674945648E+02  0.16286578185E+03  0.47000000000E+01 0. -1.
        -13    1    6    6    0    0 -0.77786417868E+02 -0.27647410541E+02  0.69103044673E+02  0.10765842697E+03  0.00000000000E+00 0.  1.
         14    1    6    6    0    0 -0.37229122350E+02 -0.92341639044E+02  0.13079826798E+03  0.16438118128E+03  0.00000000000E+00 0. -1.
         -5    1    3    3    0  503  0.11438496062E+03  0.13861962209E+03  0.32682525889E+02  0.18272809402E+03  0.47000000000E+01 0.  1.
         13    1    4    4    0    0 -0.26085198689E+02  0.10663841984E+03 -0.21558848881E+02  0.11187928379E+03  0.00000000000E+00 0. -1.
        -14    1    4    4    0    0  0.10378306532E+02  0.61574683896E+01  0.24652816729E+02  0.27447860319E+02  0.00000000000E+00 0.  1.
</event>
<event>
12    1  0.1565987E-001  0.2499499E+03  0.7818608E-02  0.1114593E+00
         21   -1    0    0  503  502  0.00000000000E+00  0.00000000000E+00  0.52942726579E+03  0.52942726579E+03  0.00000000000E+00 0.  1.
         21   -1    0    0  501  503 -0.00000000000E+00 -0.00000000000E+00 -0.11434528113E+03  0.11434528113E+03  0.00000000000E+00 0. -1.
          6    2    1    2  501    0  0.15451855254E+03 -0.67906833156E+02  0.21162586688E+03  0.32750640878E+03  0.18435731391E+03 0.  0.
         24    2    3    3    0    0  0.35583069527E+02  0.20933498518E+02  0.34909378069E+02  0.96662173271E+02  0.80128302535E+02 0.  0.
         -6    2    1    2    0  502 -0.15451855254E+03  0.67906833156E+02  0.20345611778E+03  0.31626613814E+03  0.17361612022E+03 0.  0.
        -24    2    5    5    0    0 -0.63382652032E+02  0.10087277256E+03  0.10022628309E+03  0.17459400152E+03  0.79025823140E+02 0.  0.
          5    1    3    3  501    0  0.11893548302E+03 -0.88840331674E+02  0.17671648881E+03  0.23084423551E+03  0.47000000000E+01 0. -1.
        -13    1    4    4    0    0 -0.62880178909E+01 -0.24043147831E+02  0.23418214945E+02  0.34147107020E+02  0.00000000000E+00 0.  1.
         14    1    4    4    0    0  0.41871087418E+02  0.44976646350E+02  0.11491163124E+02  0.62515066251E+02  0.00000000000E+00 0. -1.
         -5    1    5    5    0  502 -0.91135900510E+02 -0.32965939406E+02  0.10322983469E+03  0.14167213661E+03  0.47000000000E+01 0.  1.
         11    1    6    6    0    0 -0.61938338932E+02  0.24793975339E+02  0.42819155152E+02  0.79275337216E+02  0.00000000000E+00 0. -1.
        -12    1    6    6    0    0 -0.14443131003E+01  0.76078797224E+02  0.57407127940E+02  0.95318664309E+02  0.00000000000E+00 0.  1.
</event>
<event>
12    1  0.1565987E-001  0.1806254E+03  0.7818608E-02  0.1167571E+00
         21   -1    0    0  501  502  0.00000000000E+00  0.00000000000E+00  0.22865263723E+03  0.22865263723E+03  0.00000000000E+00 0.  1.
         21   -1    0    0  502  503 -0.00000000000E+00 -0.00000000000E+00 -0.14192016478E+03  0.14192016478E+03  0.00000000000E+00 0.  1.
         -6    2    1    2    0  503  0.35463684062E+01 -0.52703932566E+02  0.53548350860E+02  0.18692442450E+03  0.17112286041E+03 0.  0.
        -24    2    3    3    0    0 -0.10110098817E+02 -0.34587549091E+02 -0.35768585303E+02  0.94651419057E+02  0.79881079015E+02 0.  0.
          6    2    1    2  501    0 -0.35463684062E+01  0.52703932566E+02  0.33184121597E+02  0.18364837751E+03  0.17272886093E+03 0.  0.
         24    2    5    5    0    0  0.60022194662E+02  0.38505366420E+02  0.44055241049E+02  0.11744541134E+03  0.82263195214E+02 0.  0.
          5    1    5    5  501    0 -0.63568563068E+02  0.14198566146E+02 -0.10871119453E+02  0.66202966167E+02  0.47000000000E+01 0. -1.
        -13    1    6    6    0    0  0.21854442878E+02  0.60163845052E+02  0.18358570488E+02  0.66590855493E+02  0.00000000000E+00 0.  1.
         14    1    6    6    0    0  0.38167751784E+02 -0.21658478632E+02  0.25696670562E+02  0.50854555851E+02  0.00000000000E+00 0. -1.
         -5    1    3    3    0  503  0.13656467223E+02 -0.18116383475E+02  0.89316936163E+02  0.92273005439E+02  0.47000000000E+01 0.  1.
         11    1    4    4    0    0  0.61739201492E+01  0.12566098101E+02  0.17007762678E+02  0.22029255612E+02  0.00000000000E+00 0. -1.
        -12    1    4    4    0    0 -0.16284018966E+02 -0.47153647193E+02 -0.52776347980E+02  0.72622163445E+02  0.00000000000E+00 0.  1.
</event>
<event>
12    1  0.1565987E-001  0.1881162E+03  0.7818608E-02  0.1160662E+00
         21   -1    0    0  501  502  0.00000000000E+00  0.00000000000E+00  0.21973876141E+03  0.21973876141E+03  0.00000000000E+00 0.  1.
         21   -1    0    0  502  503 -0.00000000000E+00 -0.00000000000E+00 -0.30646025019E+03  0.30646025019E+03  0.00000000000E+00 0.  1.
         -6    2    1    2    0  503  0.76006911120E+02  0.10000175111E+01 -0.22585403137E+03  0.29393496690E+03  0.17207460797E+03 0.  0.
        -24    2    3    3    0    0 -0.12260221205E+02 -0.17398473972E+02 -0.47035977448E+02  0.93616276945E+02  0.78093560643E+02 0.  0.
          6    2    1    2  501    0 -0.76006911120E+02 -0.10000175111E+01  0.13913254259E+03  0.23226404469E+03  0.16973706571E+03 0.  0.
         24    2    5    5    0    0 -0.91808581960E+02 -0.10804797271E+02  0.15999394253E+03  0.20392476956E+03  0.86265234178E+02 0.  0.
          5    1    5    5  501    0  0.15801670840E+02  0.98047797599E+01 -0.20861399940E+02  0.28339275131E+02  0.47000000000E+01 0. -1.
        -11    1    6    6    0    0 -0.28468825573E+02  0.33029053590E+02  0.89282196447E+02  0.99361476504E+02  0.00000000000E+00 0.  1.
         12    1    6    6    0    0 -0.63339756387E+02 -0.43833850861E+02  0.70711746083E+02  0.10456329306E+03  0.00000000000E+00 0. -1.
         -5    1    3    3    0  503  0.88267132325E+02  0.18398491483E+02 -0.17881805392E+03  0.20031868996E+03  0.47000000000E+01 0.  1.
         11    1    4    4    0    0  0.28613586381E+02 -0.13858505633E+02 -0.80104132305E+00  0.31803100025E+02  0.00000000000E+00 0. -1.
        -12    1    4    4    0    0 -0.40873807586E+02 -0.35399683389E+01 -0.46234936125E+02  0.61813176920E+02  0.00000000000E+00 0.  1.
</event>
<event>
12    1  0.1565987E-001  0.2434745E+03  0.7818608E-02  0.1117604E+00
         21   -1    0    0  501  502  0.00000000000E+00  0.00000000000E+00  0.14653454863E+03  0.14653454863E+03  0.00000000000E+00 0. -1.
         21   -1    0    0  502  503 -0.00000000000E+00 -0.00000000000E+00 -0.44655105878E+03  0.44655105878E+03  0.00000000000E+00 0. -1.
         -6    2    1    2    0  503 -0.17093922368E+03  0.11700839115E+02 -0.57740291394E+02  0.24960694259E+03  0.17208299368E+03 0.  0.
        -24    2    3    3    0    0 -0.11052413184E+03  0.25453898099E+02  0.30255186032E+02  0.14188311050E+03  0.79699160077E+02 0.  0.
          6    2    1    2  501    0  0.17093922368E+03 -0.11700839115E+02 -0.24227621876E+03  0.34347866482E+03  0.17298178858E+03 0.  0.
         24    2    5    5    0    0  0.70839386024E+02 -0.40241067819E+02 -0.20176848168E+03  0.23168649642E+03  0.79564755216E+02 0.  0.
          5    1    5    5  501    0  0.10009983765E+03  0.28540228703E+02 -0.40507737086E+02  0.11179216840E+03  0.47000000000E+01 0. -1.
        -13    1    6    6    0    0  0.48987190340E+02 -0.21983054514E+02 -0.38790991035E+02  0.66240021804E+02  0.00000000000E+00 0.  1.
         14    1    6    6    0    0  0.21852195684E+02 -0.18258013305E+02 -0.16297749064E+03  0.16544647461E+03  0.00000000000E+00 0. -1.
         -5    1    3    3    0  503 -0.60415091840E+02 -0.13753058983E+02 -0.87995477426E+02  0.10772383209E+03  0.47000000000E+01 0.  1.
         11    1    4    4    0    0 -0.71969988764E+02  0.51840271836E+02  0.34055456608E+02  0.95009826815E+02  0.00000000000E+00 0. -1.
        -12    1    4    4    0    0 -0.38554143072E+02 -0.26386373737E+02 -0.38002705758E+01  0.46873283686E+02  0.00000000000E+00 0.  1.
</event>
<event>
12    1  0.1565987E-001  0.1920357E+03  0.7818608E-02  0.1156988E+00
         21   -1    0    0  501  502  0.00000000000E+00  0.00000000000E+00  0.11980843104E+03  0.11980843104E+03  0.00000000000E+00 0. -1.
         21   -1    0    0  502  503 -0.00000000000E+00 -0.00000000000E+00 -0.50920687952E+03  0.50920687952E+03  0.00000000000E+00 0. -1.
         -6    2    1    2    0  503  0.60862631446E+02  0.58068870935E+02 -0.39420045541E+03  0.43848799611E+03  0.17263102273E+03 0.  0.
        -24    2    3    3    0    0 -0.32978314640E+02  0.43279928051E+02 -0.20950816780E+03  0.23074255790E+03  0.79923302249E+02 0.  0.
          6    2    1    2  501    0 -0.60862631446E+02 -0.58068870935E+02  0.48020069315E+01  0.19052731445E+03  0.17088400921E+03 0.  0.
         24    2    5    5    0    0 -0.19315556781E+02 -0.87454723426E+02  0.36005668052E+02  0.13064871888E+03  0.88041241642E+02 0.  0.
          5    1    5    5  501    0 -0.41547074665E+02  0.29385852491E+02 -0.31203661121E+02  0.59878595568E+02  0.47000000000E+01 0. -1.
        -13    1    6    6    0    0  0.33762124514E+02 -0.31012530739E+02  0.15932949173E+01  0.45871523882E+02  0.00000000000E+00 0.  1.
         14    1    6    6    0    0 -0.53077681295E+02 -0.56442192687E+02  0.34412373135E+02  0.84777194998E+02  0.00000000000E+00 0. -1.
         -5    1    3    3    0  503  0.93840946086E+02  0.14788942884E+02 -0.18469228761E+03  0.20774543821E+03  0.47000000000E+01 0.  1.
         13    1    4    4    0    0  0.57336958013E+01 -0.57872795609E+01 -0.12687042256E+03  0.12713171120E+03  0.00000000000E+00 0. -1.
        -14    1    4    4    0    0 -0.38712010441E+02  0.49067207612E+02 -0.82637745239E+02  0.10361084670E+03  0.00000000000E+00 0.  1.
</event>
<event>
12    1  0.1565987E-001  0.1977343E+03  0.7818608E-02  0.1151800E+00
         21   -1    0    0  503  502  0.00000000000E+00  0.00000000000E+00  0.14501361596E+03  0.14501361596E+03  0.00000000000E+00 0. -1.
         21   -1    0    0  501  503 -0.00000000000E+00 -0.00000000000E+00 -0.32401647214E+03  0.32401647214E+03  0.00000000000E+00 0. -1.
          6    2    1    2  501    0 -0.93555902179E+02  0.25516315807E+02 -0.18646303516E+03  0.27178542741E+03  0.17232256342E+03 0.  0.
         24    2    3    3    0    0 -0.41277817222E+02  0.76972360396E+02 -0.75564852826E+02  0.13873949723E+03  0.76876515587E+02 0.  0.
         -6    2    1    2    0  502  0.93555902179E+02 -0.25516315807E+02  0.74601789811E+01  0.19724466069E+03  0.17159840528E+03 0.  0.
        -24    2    5    5    0    0  0.70416181432E+02  0.27964675917E+02  0.52883495114E+02  0.12321067659E+03  0.81509171659E+02 0.  0.
          5    1    3    3  501    0 -0.52278084957E+02 -0.51456044589E+02 -0.11089818234E+03  0.13304593018E+03  0.47000000000E+01 0. -1.
        -11    1    4    4    0    0  0.55119955947E+01  0.44665714635E+02 -0.10605229301E+01  0.45017028646E+02  0.00000000000E+00 0.  1.
         12    1    4    4    0    0 -0.46789812817E+02  0.32306645761E+02 -0.74504329896E+02  0.93722468582E+02  0.00000000000E+00 0. -1.
         -5    1    5    5    0  502  0.23139720747E+02 -0.53480991724E+02 -0.45423316133E+02  0.74033984092E+02  0.47000000000E+01 0.  1.
         13    1    6    6    0    0  0.26364391618E+02 -0.15955191600E+02  0.52649193266E+02  0.61004809942E+02  0.00000000000E+00 0. -1.
        -14    1    6    6    0    0  0.44051789814E+02  0.43919867517E+02  0.23430184729E+00  0.62205866652E+02  0.00000000000E+00 0.  1.
</event>
<event>
12    1  0.1565987E-001  0.2151346E+03  0.7818608E-02  0.1137582E+00
         21   -1    0    0  501  502  0.00000000000E+00  0.00000000000E+00  0.17871646382E+03  0.17871646382E+03  0.00000000000E+00 0.  1.
         21   -1    0    0  502  503 -0.00000000000E+00 -0.00000000000E+00 -0.32273241644E+03  0.32273241644E+03  0.00000000000E+00 0. -1.
         -6    2    1    2    0  503  0.12371019597E+03 -0.39813802863E+02  0.39549630945E+02  0.21864287761E+03  0.17132186999E+03 0.  0.
        -24    2    3    3    0    0  0.15128144144E+02  0.22840580794E+02  0.41390410856E+02  0.93179288310E+02  0.78858485802E+02 0.  0.
          6    2    1    2  501    0 -0.12371019597E+03  0.39813802863E+02 -0.18356558357E+03  0.28280600265E+03  0.17144550207E+03 0.  0.
         24    2    5    5    0    0 -0.11949684936E+03  0.86604985165E+01 -0.20057699473E+03  0.24675383530E+03  0.79384023432E+02 0.  0.
          5    1    5    5  501    0 -0.42133466111E+01  0.31153304346E+02  0.17011411165E+02  0.36052167358E+02  0.47000000000E+01 0. -1.
        -13    1    6    6    0    0 -0.10895050837E+03 -0.24702945062E+00 -0.10890163100E+03  0.15404492699E+03  0.00000000000E+00 0.  1.
         14    1    6    6    0    0 -0.10546340984E+02  0.89075279671E+01 -0.91675363740E+02  0.92708908307E+02  0.00000000000E+00 0. -1.
         -5    1    3    3    0  503  0.10858205182E+03 -0.62654383657E+02 -0.18407799114E+01  0.12546358930E+03  0.47000000000E+01 0.  1.
         11    1    4    4    0    0  0.12688632551E+02  0.33727140463E+02 -0.12503594699E+02  0.38142643854E+02  0.00000000000E+00 0. -1.
        -12    1    4    4    0    0  0.24395115922E+01 -0.10886559669E+02  0.53894005555E+02  0.55036644456E+02  0.00000000000E+00 0.  1.
</event>
<event>
12    1  0.1565987E-001  0.2172133E+03  0.7818608E-02  0.1136829E+00
         21   -1    0    0  503  502  0.00000000000E+00  0.00000000000E+00  0.13823025125E+03  0.13823025125E+03  0.00000000000E+00 0. -1.
         21   -1    0    0  501  503 -0.00000000000E+00 -0.00000000000E+00 -0.44442210371E+03  0.44442210371E+03  0.00000000000E+00 0. -1.
          6    2    1    2  501    0 -0.13023855422E+03  0.26368847447E+02 -0.29924518722E+03  0.36976927826E+03  0.17182619112E+03 0.  0.
         24    2    3    3    0    0 -0.11892291526E+03  0.74781871721E+02 -0.26072788102E+03  0.30670155687E+03  0.79698362182E+02 0.  0.
         -6    2    1    2    0  502  0.13023855422E+03 -0.26368847447E+02 -0.69466652430E+01  0.21288307670E+03  0.16617325618E+03 0.  0.
        -24    2    5    5    0    0  0.47949287017E+02 -0.25892103213E+02 -0.61390275459E+02  0.11410075301E+03  0.79250746256E+02 0.  0.
          5    1    3    3  501    0 -0.11315638954E+02 -0.48413024274E+02 -0.38517306192E+02  0.63067721385E+02  0.47000000000E+01 0. -1.
        -11    1    4    4    0    0 -0.38976381886E+01  0.29439702215E+02 -0.97569035942E+02  0.10198825631E+03  0.00000000000E+00 0.  1.
         12    1    4    4    0    0 -0.11502527707E+03  0.45342169506E+02 -0.16315884508E+03  0.20471330057E+03  0.00000000000E+00 0. -1.
         -5    1    5    5    0  502  0.82289267198E+02 -0.47674423345E+00  0.54443610216E+02  0.98782323695E+02  0.47000000000E+01 0.  1.
         13    1    6    6    0    0  0.67998090887E+02 -0.15665055340E+02 -0.59162667663E+02  0.91484182065E+02  0.00000000000E+00 0. -1.
        -14    1    6    6    0    0 -0.20048803870E+02 -0.10227047873E+02 -0.22276077962E+01  0.22616570945E+02  0.00000000000E+00 0.  1.
</event>
<event>
12    1  0.1565987E-001  0.2096788E+03  0.7818608E-02  0.1142051E+00
         21   -1    0    0  503  502  0.00000000000E+00  0.00000000000E+00  0.27722869452E+03  0.27722869452E+03  0.00000000000E+00 0.  1.
         21   -1    0    0  501  503 -0.00000000000E+00 -0.00000000000E+00 -0.15811804828E+03  0.15811804828E+03  0.00000000000E+00 0. -1.
          6    2    1    2  501    0 -0.10684667007E+03  0.53841450173E+02  0.70410603477E+02  0.22008668432E+03  0.17077875416E+03 0.  0.
         24    2    3    3    0    0 -0.28756130935E+02  0.83646982179E+02  0.66478012071E+02  0.13627703503E+03  0.79551062173E+02 0.  0.
         -6    2    1    2    0  502  0.10684667007E+03 -0.53841450173E+02  0.48700042763E+02  0.21526005847E+03  0.17219200314E+03 0.  0.
        -24    2    5    5    0    0  0.12740771092E+03  0.25443683584E+01  0.37202975601E+02  0.15397066717E+03  0.77998117551E+02 0.  0.
          5    1    3    3  501    0 -0.78090539131E+02 -0.29805532007E+02  0.39325914065E+01  0.83809649296E+02  0.47000000000E+01 0. -1.
        -13    1    4    4    0    0  0.17916471074E+02 -0.36545298919E+01  0.19397462981E+02  0.26657402247E+02  0.00000000000E+00 0.  1.
         14    1    4    4    0    0 -0.46672602009E+02  0.87301512071E+02  0.47080549090E+02  0.10961963278E+03  0.00000000000E+00 0. -1.
         -5    1    5    5    0  502 -0.20561040858E+02 -0.56385818531E+02  0.11497067161E+02  0.61289391300E+02  0.47000000000E+01 0.  1.
         11    1    6    6    0    0  0.66425409759E+02 -0.37661709561E+02  0.18346535990E+02  0.78532380656E+02  0.00000000000E+00 0. -1.
        -12    1    6    6    0    0  0.60982301165E+02  0.40206077920E+02  0.18856439611E+02  0.75438286512E+02  0.00000000000E+00 0.  1.
</event>
<event>
12    1  0.1565987E-001  0.2246218E+03  0.7818608E-02  0.1130756E+00
         21   -1    0    0  501  502  0.00000000000E+00  0.00000000000E+00  0.11550938671E+03  0.11550938671E+03  0.00000000000E+00 0. -1.
         21   -1    0    0  502  503 -0.00000000000E+00 -0.00000000000E+00 -0.43618846160E+03  0.43618846160E+03  0.00000000000E+00 0. -1.
         -6    2    1    2    0  503  0.49622482700E+02 -0.13549017351E+03 -0.17977176995E+03  0.28653787028E+03  0.17019425351E+03 0.  0.
        -24    2    3    3    0    0  0.99252878181E+02 -0.10190673675E+03 -0.13672053553E+03  0.21260193744E+03  0.79189406766E+02 0.  0.
          6    2    1    2  501    0 -0.49622482700E+02  0.13549017351E+03 -0.14090730494E+03  0.26515997803E+03  0.17214809744E+03 0.  0.
         24    2    5    5    0    0  0.28305231215E+02  0.56089561195E+02 -0.10895493023E+03  0.14931426131E+03  0.80475752993E+02 0.  0.
          5    1    5    5  501    0 -0.77927713914E+02  0.79400612320E+02 -0.31952374717E+02  0.11584571672E+03  0.47000000000E+01 0. -1.
        -11    1    6    6    0    0  0.27875924470E+02 -0.14115877338E+02 -0.26087097961E+02  0.40704567779E+02  0.00000000000E+00 0.  1.
         12    1    6    6    0    0  0.42930674524E+00  0.70205438533E+02 -0.82867832265E+02  0.10860969353E+03  0.00000000000E+00 0. -1.
         -5    1    3    3    0  503 -0.49630395481E+02 -0.33583436767E+02 -0.43051234417E+02  0.73935932845E+02  0.47000000000E+01 0.  1.
         11    1    4    4    0    0  0.65424416593E+02 -0.10704627035E+03 -0.12313114210E+03  0.17578548415E+03  0.00000000000E+00 0. -1.
        -12    1    4    4    0    0  0.33828461588E+02  0.51395335992E+01 -0.13589393432E+02  0.36816453290E+02  0.00000000000E+00 0.  1.
</event>
<event>
12    1  0.1565987E-001  0.2089975E+03  0.7818608E-02  0.1142561E+00
         21   -1    0    0  503  502  0.00000000000E+00  0.00000000000E+00  0.14483094762E+04  0.14483094762E+04  0.00000000000E+00 0. -1.
         21   -1    0    0  501  503 -0.00000000000E+00 -0.00000000000E+00 -0.36504776440E+02  0.36504776440E+02  0.00000000000E+00 0.  1.
          6    2    1    2  501    0  0.11790232468E+03  0.14923586355E+02  0.39151269706E+03  0.44333659500E+03  0.17070873705E+03 0.  0.
         24    2    3    3    0    0  0.90987781638E+02 -0.27179393398E+02  0.36649468613E+03  0.38725589954E+03  0.81432677338E+02 0.  0.
         -6    2    1    2    0  502 -0.11790232468E+03 -0.14923586355E+02  0.10202920027E+04  0.10414776576E+04  0.17191936776E+03 0.  0.
        -24    2    5    5    0    0 -0.10178867928E+03 -0.11076982124E+02  0.39139281457E+03  0.41234275577E+03  0.79715608110E+02 0.  0.
          5    1    3    3  501    0  0.26914543045E+02  0.42102979753E+02  0.25018010939E+02  0.56080695455E+02  0.47000000000E+01 0. -1.
        -13    1    4    4    0    0  0.72283678158E+02  0.86898879621E+01  0.14673035605E+03  0.16379939459E+03  0.00000000000E+00 0.  1.
         14    1    4    4    0    0  0.18704103480E+02 -0.35869281360E+02  0.21976433008E+03  0.22345650495E+03  0.00000000000E+00 0. -1.
         -5    1    5    5    0  502 -0.16113645407E+02 -0.38466042309E+01  0.62889918810E+03  0.62913490185E+03  0.47000000000E+01 0.  1.
         11    1    6    6    0    0 -0.19662782602E+02  0.30801847338E+02  0.13588880520E+03  0.14071654557E+03  0.00000000000E+00 0. -1.
        -12    1    6    6    0    0 -0.82125896674E+02 -0.41878829463E+02  0.25550400937E+03  0.27162621020E+03  0.00000000000E+00 0.  1.
</event>
<event>
12    1  0.1565987E-001  0.2038242E+03  0.7818608E-02  0.1146671E+00
         21   -1    0    0  503  502  0.00000000000E+00  0.00000000000E+00  0.33081917672E+03  0.33081917672E+03  0.00000000000E+00 0. -1.
         21   -1    0    0  501  503 -0.00000000000E+00 -0.00000000000E+00 -0.16458929462E+03  0.16458929462E+03  0.00000000000E+00 0. -1.
          6    2    1    2  501    0 -0.18424024849E+02  0.10699815572E+03 -0.38111578186E+02  0.20679154609E+03  0.17182025819E+03 0.  0.
         24    2    3    3    0    0 -0.36989538106E+02  0.94307136112E+02  0.31814650073E+02  0.13318782567E+03  0.80403750513E+02 0.  0.
         -6    2    1    2    0  502  0.18424024849E+02 -0.10699815572E+03  0.20434146029E+03  0.28861692525E+03  0.17249999168E+03 0.  0.
        -24    2    5    5    0    0 -0.24723832166E+02 -0.43591848758E+01  0.64102613764E+02  0.10949261095E+03  0.85142330194E+02 0.  0.
          5    1    3    3  501    0  0.18565513257E+02  0.12691019606E+02 -0.69926228259E+02  0.73603720420E+02  0.47000000000E+01 0. -1.
        -13    1    4    4    0    0 -0.20935977580E+01  0.63391105046E+02  0.52354739745E+02  0.82242532331E+02  0.00000000000E+00 0.  1.
         14    1    4    4    0    0 -0.34895940348E+02  0.30916031066E+02 -0.20540089672E+02  0.50945293339E+02  0.00000000000E+00 0. -1.
         -5    1    5    5    0  502  0.43147857015E+02 -0.10263897084E+03  0.14023884652E+03  0.17912431430E+03  0.47000000000E+01 0.  1.
         11    1    6    6    0    0 -0.46821981538E+02 -0.12746874754E+02  0.69959137496E+02  0.85141421707E+02  0.00000000000E+00 0. -1.
        -12    1    6    6    0    0  0.22098149372E+02  0.83876898780E+01 -0.58565237322E+01  0.24351189240E+02  0.00000000000E+00 0.  1.
</event>
<event>
12    1  0.1565987E-001  0.2261666E+03  0.7818608E-02  0.1129725E+00
         21   -1    0    0  503  502  0.00000000000E+00  0.00000000000E+00  0.21915480865E+03  0.21915480865E+03  0.00000000000E+00 0. -1.
         21   -1    0    0  501  503 -0.00000000000E+00 -0.00000000000E+00 -0.23363417318E+03  0.23363417318E+03  0.00000000000E+00 0. -1.
          6    2    1    2  501    0 -0.84514811685E+01 -0.14459672675E+03 -0.29519523702E+02  0.22612286128E+03  0.17111547327E+03 0.  0.
         24    2    3    3    0    0 -0.15414254735E+01 -0.37829308810E+01  0.43578340026E+01  0.81050329968E+02  0.80829936980E+02 0.  0.
         -6    2    1    2    0  502  0.84514811685E+01  0.14459672675E+03  0.15040159172E+02  0.22666612054E+03  0.17369997954E+03 0.  0.
        -24    2    5    5    0    0 -0.49482640424E+01  0.87943374122E+01 -0.27063702746E+02  0.83779216628E+02  0.78642783807E+02 0.  0.
          5    1    3    3  501    0 -0.69100556950E+01 -0.14081379587E+03 -0.33877357705E+02  0.14507253131E+03  0.47000000000E+01 0. -1.
        -11    1    4    4    0    0  0.27938250954E+02 -0.15521259549E+02 -0.22820407931E+02  0.39271190235E+02  0.00000000000E+00 0.  1.
         12    1    4    4    0    0 -0.29479676428E+02  0.11738328668E+02  0.27178241934E+02  0.41779139733E+02  0.00000000000E+00 0. -1.
         -5    1    5    5    0  502  0.13399745211E+02  0.13580238934E+03  0.42103861918E+02  0.14288690391E+03  0.47000000000E+01 0.  1.
         11    1    6    6    0    0  0.59652952274E+01 -0.11895564627E+02  0.24095396230E+02  0.27525939120E+02  0.00000000000E+00 0. -1.
        -12    1    6    6    0    0 -0.10913559270E+02  0.20689902039E+02 -0.51159098976E+02  0.56253277508E+02  0.00000000000E+00 0.  1.
</event>
<event>
12    1  0.1565987E-001  0.1767645E+03  0.7818608E-02  0.1170997E+00
         21   -1    0    0  501  502  0.00000000000E+00  0.00000000000E+00  0.26887175360E+03  0.26887175360E+03  0.00000000000E+00 0. -1.
         21   -1    0    0  502  503 -0.00000000000E+00 -0.00000000000E+00 -0.14372021138E+03  0.14372021138E+03  0.00000000000E+00 0. -1.
         -6    2    1    2    0  503 -0.40912111426E+02 -0.53767858961E+01 -0.27803716865E+02  0.17883781900E+03  0.17177662281E+03 0.  0.
        -24    2    3    3    0    0 -0.13731220907E+02  0.62794549423E+02 -0.21031346394E+02  0.10498602978E+03  0.80299732586E+02 0.  0.
          6    2    1    2  501    0  0.40912111426E+02  0.53767858961E+01  0.15295525908E+03  0.23375414598E+03  0.17188071094E+03 0.  0.
         24    2    5    5    0    0  0.87440365237E+02 -0.18761919110E+02  0.11064405980E+03  0.16622723973E+03  0.85974183214E+02 0.  0.
          5    1    5    5  501    0 -0.46528253811E+02  0.24138705006E+02  0.42311199281E+02  0.67526906243E+02  0.47000000000E+01 0. -1.
        -13    1    6    6    0    0  0.23474282825E+02  0.33852036209E+02  0.38617854280E+02  0.56465396296E+02  0.00000000000E+00 0.  1.
         14    1    6    6    0    0  0.63966082413E+02 -0.52613955319E+02  0.72026205519E+02  0.10976184344E+03  0.00000000000E+00 0. -1.
         -5    1    3    3    0  503 -0.27180890519E+02 -0.68171335319E+02 -0.67723704720E+01  0.73851789216E+02  0.47000000000E+01 0.  1.
         13    1    4    4    0    0  0.25015269687E+02  0.41473931939E+01 -0.23611846781E+02  0.34647999888E+02  0.00000000000E+00 0. -1.
        -14    1    4    4    0    0 -0.38746490594E+02  0.58647156229E+02  0.25805003877E+01  0.70338029894E+02  0.00000000000E+00 0.  1.
</event>
<event>
12    1  0.1565987E-001  0.1903617E+03  0.7818608E-02  0.1158234E+00
         21   -1    0    0  501  502  0.00000000000E+00  0.00000000000E+00  0.36120361184E+02  0.36120361184E+02  0.00000000000E+00 0.  1.
         21   -1    0    0  502  503 -0.00000000000E+00 -0.00000000000E+00 -0.10551706223E+04  0.10551706223E+04  0.00000000000E+00 0. -1.
         -6    2    1    2    0  503  0.50837008574E+02 -0.65717674792E+02 -0.63265788377E+03  0.66055131971E+03  0.17078885756E+03 0.  0.
        -24    2    3    3    0    0  0.17397398779E+00 -0.82714575416E+01 -0.14210267000E+03  0.16403010294E+03  0.81512321609E+02 0.  0.
          6    2    1    2  501    0 -0.50837008574E+02  0.65717674792E+02 -0.38639237737E+03  0.43073966378E+03  0.17127280710E+03 0.  0.
         24    2    5    5    0    0 -0.29833919848E+02  0.74401052586E+02 -0.39086539173E+03  0.40710433761E+03  0.80824549789E+02 0.  0.
          5    1    5    5  501    0 -0.21003088726E+02 -0.86833777945E+01  0.44730143637E+01  0.23635326176E+02  0.47000000000E+01 0. -1.
        -13    1    6    6    0    0  0.25320586211E+02  0.12579289015E+02 -0.65208493572E+02  0.71074033459E+02  0.00000000000E+00 0.  1.
         14    1    6    6    0    0 -0.55154506059E+02  0.61821763571E+02 -0.32565689816E+03  0.33603030415E+03  0.00000000000E+00 0. -1.
         -5    1    3    3    0  503  0.50663034586E+02 -0.57446217250E+02 -0.49055521377E+03  0.49652121677E+03  0.47000000000E+01 0.  1.
         13    1    4    4    0    0 -0.16039744979E+02  0.22086482921E+02 -0.12014265675E+03  0.12320448092E+03  0.00000000000E+00 0. -1.
        -14    1    4    4    0    0  0.16213718967E+02 -0.30357940463E+02 -0.21960013244E+02  0.40825622023E+02  0.00000000000E+00 0.  1.
</event>
<event>
12    1  0.1565987E-001  0.1739752E+03  0.7818608E-02  0.1173799E+00
         21   -1    0    0  503  502  0.00000000000E+00  0.00000000000E+00  0.10541576313E+03  0.10541576313E+03  0.00000000000E+00 0. -1.
         21   -1    0    0  501  503 -0.00000000000E+00 -0.00000000000E+00 -0.28738172323E+03  0.28738172323E+03  0.00000000000E+00 0. -1.
          6    2    1    2  501    0 -0.22998393810E+02 -0.15184853080E+02 -0.82913498068E+02  0.19260065385E+03  0.17164165526E+03 0.  0.
         24    2    3    3    0    0  0.31230927137E+02  0.19390096054E+02  0.17057835268E+02  0.73635937036E+02  0.61481174714E+02 0.  0.
         -6    2    1    2    0  502  0.22998393810E+02  0.15184853080E+02 -0.99052462034E+02  0.20019683250E+03  0.17177856568E+03 0.  0.
        -24    2    5    5    0    0  0.59196416002E+02 -0.24350022522E+02 -0.56057989164E+02  0.13132072709E+03  0.10002747598E+03 0.  0.
          5    1    3    3  501    0 -0.54229320947E+02 -0.34574949134E+02 -0.99971333337E+02  0.11896471682E+03  0.47000000000E+01 0. -1.
        -11    1    4    4    0    0  0.38971089417E+02  0.48334056397E+00  0.30233579623E+02  0.49325944140E+02  0.00000000000E+00 0.  1.
         12    1    4    4    0    0 -0.77401622802E+01  0.18906755490E+02 -0.13175744355E+02  0.24309992896E+02  0.00000000000E+00 0. -1.
         -5    1    5    5    0  502 -0.36198022192E+02  0.39534875603E+02 -0.42994472869E+02  0.68876105412E+02  0.47000000000E+01 0.  1.
         13    1    6    6    0    0  0.80063550984E+02 -0.29563226163E+02 -0.65742764708E+02  0.10773238904E+03  0.00000000000E+00 0. -1.
        -14    1    6    6    0    0 -0.20867134982E+02  0.52132036411E+01  0.96847755430E+01  0.23588338049E+02  0.00000000000E+00 0.  1.
</event>
<event>
12    1  0.1565987E-001  0.2293010E+03  0.7818608E-02  0.1128151E+00
         21   -1    0    0  501  502  0.00000000000E+00  0.00000000000E+00  0.30428178573E+03  0.30428178573E+03  0.00000000000E+00 0. -1.
         21   -1    0    0  502  503 -0.00000000000E+00 -0.00000000000E+00 -0.23822580888E+03  0.23822580888E+03  0.00000000000E+00 0. -1.
         -6    2    1    2    0  503 -0.89471366500E+02 -0.11338761811E+03 -0.11338017727E+03  0.25580071195E+03  0.17809284734E+03 0.  0.
        -24    2    3    3    0    0 -0.11545357861E+03 -0.11288513546E+03 -0.13198662302E+03  0.22349564023E+03  0.80357015406E+02 0.  0.
          6    2    1    2  501    0  0.89471366500E+02  0.11338761811E+03  0.17943615412E+03  0.28670688267E+03  0.17070918487E+03 0.  0.
         24    2    5    5    0    0  0.60045922019E+01  0.46811067329E+02  0.12911103390E+03  0.16858047897E+03  0.97582722153E+02 0.  0.
          5    1    5    5  501    0  0.83466774298E+02  0.66576550777E+02  0.50325120218E+02  0.11812640370E+03  0.47000000000E+01 0. -1.
        -11    1    6    6    0    0  0.37553832430E+02  0.29983336129E+02  0.12332755837E+03  0.13235927405E+03  0.00000000000E+00 0.  1.
         12    1    6    6    0    0 -0.31549240228E+02  0.16827731201E+02  0.57834755357E+01  0.36221204917E+02  0.00000000000E+00 0. -1.
         -5    1    3    3    0  503  0.25982212115E+02 -0.50248264309E+00  0.18606445749E+02  0.32305071716E+02  0.47000000000E+01 0.  1.
         13    1    4    4    0    0 -0.10821845731E+03 -0.57154693870E+02 -0.75411801742E+02  0.14375268128E+03  0.00000000000E+00 0. -1.
        -14    1    4    4    0    0 -0.72351213074E+01 -0.55730441593E+02 -0.56574821274E+02  0.79742958954E+02  0.00000000000E+00 0.  1.
</event>
<event>
12    1  0.1565987E-001  0.2480492E+03  0.7818608E-02  0.1114609E+00
         21   -1    0    0  503  502  0.00000000000E+00  0.00000000000E+00  0.31678624272E+03  0.31678624272E+03  0.00000000000E+00 0. -1.
         21   -1    0    0  501  503 -0.00000000000E+00 -0.00000000000E+00 -0.22661158048E+03  0.22661158048E+03  0.00000000000E+00 0. -1.
          6    2    1    2  501    0 -0.17763320170E+03  0.18434734558E+02 -0.58099288823E+02  0.25476246867E+03  0.17214817540E+03 0.  0.
         24    2    3    3    0    0 -0.41780047981E+02 -0.40540802239E+02 -0.28463084622E+02  0.10365129133E+03  0.80896934134E+02 0.  0.
         -6    2    1    2    0  502  0.17763320170E+03 -0.18434734558E+02  0.14827395106E+03  0.28863535454E+03  0.17155701542E+03 0.  0.
        -24    2    5    5    0    0  0.71264754373E+02  0.25975341340E+02  0.13223145549E+03  0.17216238302E+03  0.80008404144E+02 0.  0.
          5    1    3    3  501    0 -0.13585315372E+03  0.58975536797E+02 -0.29636204200E+02  0.15111117734E+03  0.47000000000E+01 0. -1.
        -13    1    4    4    0    0  0.51626520243E+01 -0.30589519977E+02 -0.43442394202E+02  0.53381769569E+02  0.00000000000E+00 0.  1.
         14    1    4    4    0    0 -0.46942700005E+02 -0.99512822618E+01  0.14979309579E+02  0.50269521759E+02  0.00000000000E+00 0. -1.
         -5    1    5    5    0  502  0.10636844733E+03 -0.44410075899E+02  0.16042495565E+02  0.11647297151E+03  0.47000000000E+01 0.  1.
         13    1    6    6    0    0  0.28492548706E+02 -0.23179071174E+02  0.18590765417E+02  0.41166870552E+02  0.00000000000E+00 0. -1.
        -14    1    6    6    0    0  0.42772205667E+02  0.49154412515E+02  0.11364069007E+03  0.13099551247E+03  0.00000000000E+00 0.  1.
</event>
<event>
12    1  0.1565987E-001  0.1972440E+03  0.7818608E-02  0.1154026E+00
         21   -1    0    0  503  502  0.00000000000E+00  0.00000000000E+00  0.99114929721E+02  0.99114929721E+02  0.00000000000E+00 0.  1.
         21   -1    0    0  501  503 -0.00000000000E+00 -0.00000000000E+00 -0.38045920617E+03  0.38045920617E+03  0.00000000000E+00 0.  1.
          6    2    1    2  501    0  0.89060441695E+02 -0.19304299021E+02 -0.16574640532E+03  0.25095201101E+03  0.16492611292E+03 0.  0.
         24    2    3    3    0    0  0.71808507245E+02 -0.37482805003E+02 -0.41703658909E+02  0.12431560133E+03  0.84579850931E+02 0.  0.
         -6    2    1    2    0  502 -0.89060441695E+02  0.19304299021E+02 -0.11559787113E+03  0.22862212487E+03  0.17493081471E+03 0.  0.
        -24    2    5    5    0    0 -0.11814422733E+03 -0.91476655057E+01 -0.52121227302E+02  0.15307905647E+03  0.81699675384E+02 0.  0.
          5    1    3    3  501    0  0.17251934450E+02  0.18178505981E+02 -0.12404274641E+03  0.12663640969E+03  0.47000000000E+01 0. -1.
        -13    1    4    4    0    0  0.45461491861E+02 -0.19584555356E+02 -0.67237030096E+02  0.83493234857E+02  0.00000000000E+00 0.  1.
         14    1    4    4    0    0  0.26347015384E+02 -0.17898249647E+02  0.25533371188E+02  0.40822366471E+02  0.00000000000E+00 0. -1.
         -5    1    5    5    0  502  0.29083785637E+02  0.28451964527E+02 -0.63476643826E+02  0.75543068403E+02  0.47000000000E+01 0.  1.
         11    1    6    6    0    0  0.11580645945E+02 -0.90073028965E+00 -0.12778588162E+02  0.17268902425E+02  0.00000000000E+00 0. -1.
        -12    1    6    6    0    0 -0.12972487328E+03 -0.82469352161E+01 -0.39342639140E+02  0.13581015404E+03  0.00000000000E+00 0.  1.
</event>
<event>
12    1  0.1565987E-001  0.1917128E+03  0.7818608E-02  0.1156943E+00
         21   -1    0    0  501  502  0.00000000000E+00  0.00000000000E+00  0.76565779772E+03  0.76565779772E+03  0.00000000000E+00 0. -1.
         21   -1    0    0  502  503 -0.00000000000E+00 -0.00000000000E+00 -0.57794562962E+02  0.57794562962E+02  0.00000000000E+00 0. -1.
         -6    2    1    2    0  503 -0.84932903257E+02  0.17478197157E+02  0.52363450863E+03  0.55762612642E+03  0.17098161541E+03 0.  0.
        -24    2    3    3    0    0 -0.11268735650E+03  0.30629316373E+02  0.49654774768E+03  0.51640666221E+03  0.80495836564E+02 0.  0.
          6    2    1    2  501    0  0.84932903257E+02 -0.17478197157E+02  0.18422872613E+03  0.26582623426E+03  0.17089259158E+03 0.  0.
         24    2    5    5    0    0  0.55320691390E+02 -0.31478026171E+02  0.20361093091E+03  0.22747733380E+03  0.78976459667E+02 0.  0.
          5    1    5    5  501    0  0.29612211867E+02  0.13999829014E+02 -0.19382204780E+02  0.38348900457E+02  0.47000000000E+01 0. -1.
        -13    1    6    6    0    0 -0.94753172682E+01 -0.18405273123E+02  0.11543036150E+03  0.11727192363E+03  0.00000000000E+00 0.  1.
         14    1    6    6    0    0  0.64796008658E+02 -0.13072753048E+02  0.88180569412E+02  0.11020541018E+03  0.00000000000E+00 0. -1.
         -5    1    3    3    0  503  0.27754453246E+02 -0.13151119217E+02  0.27086760942E+02  0.41219464212E+02  0.47000000000E+01 0.  1.
         11    1    4    4    0    0 -0.41989783771E+01  0.47513874273E+01  0.19156712472E+03  0.19167203859E+03  0.00000000000E+00 0. -1.
        -12    1    4    4    0    0 -0.10848837813E+03  0.25877928946E+02  0.30498062296E+03  0.32473462362E+03  0.00000000000E+00 0.  1.
</event>
<event>
12    1  0.1565987E-001  0.1774443E+03  0.7818608E-02  0.1170660E+00
         21   -1    0    0  503  502  0.00000000000E+00  0.00000000000E+00  0.10026289136E+03  0.10026289136E+03  0.00000000000E+00 0.  1.
         21   -1    0    0  501  503 -0.00000000000E+00 -0.00000000000E+00 -0.95045269093E+03  0.95045269093E+03  0.00000000000E+00 0. -1.
          6    2    1    2  501    0 -0.21718983198E+01  0.42038677339E+02 -0.85527952930E+03  0.87319832385E+03  0.17088087081E+03 0.  0.
         24    2    3    3    0    0 -0.85697130163E+01 -0.26528172460E+02 -0.67187453075E+03  0.67723447918E+03  0.80336609413E+02 0.  0.
         -6    2    1    2    0  502  0.21718983198E+01 -0.42038677339E+02  0.50897297162E+01  0.17751725844E+03  0.17237895510E+03 0.  0.
        -24    2    5    5    0    0  0.19929784946E+02 -0.11807518967E+02  0.67187513565E+02  0.10605055128E+03  0.78714316453E+02 0.  0.
          5    1    3    3  501    0  0.63978146965E+01  0.68566849799E+02 -0.18340499855E+03  0.19596384467E+03  0.47000000000E+01 0. -1.
        -13    1    4    4    0    0 -0.29537760952E+02 -0.53845506210E+01 -0.95888703667E+02  0.10047943172E+03  0.00000000000E+00 0.  1.
         14    1    4    4    0    0  0.20968047936E+02 -0.21143621839E+02 -0.57598582708E+03  0.57675504746E+03  0.00000000000E+00 0. -1.
         -5    1    5    5    0  502 -0.17757886626E+02 -0.30231158372E+02 -0.62097783849E+02  0.71466707165E+02  0.47000000000E+01 0.  1.
         13    1    6    6    0    0  0.15576756212E+02 -0.19037212570E+02 -0.11329366426E+02  0.27081457497E+02  0.00000000000E+00 0. -1.
        -14    1    6    6    0    0  0.43530287340E+01  0.72296936030E+01  0.78516879992E+02  0.78969093779E+02  0.00000000000E+00 0.  1.
</event>
<event>
12    1  0.1565987E-001  0.2436162E+03  0.7818608E-02  0.1117698E+00
         21   -1    0    0  503  502  0.00000000000E+00  0.00000000000E+00  0.10805759266E+03  0.10805759266E+03  0.00000000000E+00 0.  1.
         21   -1    0    0  501  503 -0.00000000000E+00 -0.00000000000E+00 -0.12881575283E+04  0.12881575283E+04  0.00000000000E+00 0. -1.
          6    2    1    2  501    0 -0.27533098140E+02 -0.16556477496E+03 -0.11192968168E+04  0.11451257898E+04  0.17412048787E+03 0.  0.
         24    2    3    3    0    0 -0.52539069342E+02 -0.10188683987E+03 -0.97961688883E+03  0.98952132241E+03  0.79761624015E+02 0.  0.
         -6    2    1    2    0  502  0.27533098140E+02  0.16556477496E+03 -0.60803118909E+02  0.25108933118E+03  0.17657595182E+03 0.  0.
        -24    2    5    5    0    0  0.31452333041E+02  0.19410873430E+03 -0.66816450798E+02  0.22128382535E+03  0.76384836719E+02 0.  0.
          5    1    3    3  501    0  0.25005971202E+02 -0.63677935085E+02 -0.13967992794E+03  0.15560446742E+03  0.47000000000E+01 0. -1.
        -11    1    4    4    0    0 -0.87210247547E+01 -0.13405135761E+02 -0.24142669559E+02  0.28958978417E+02  0.00000000000E+00 0.  1.
         12    1    4    4    0    0 -0.43818044588E+02 -0.88481704110E+02 -0.95547421927E+03  0.96056234399E+03  0.00000000000E+00 0. -1.
         -5    1    5    5    0  502 -0.39192349006E+01 -0.28543959341E+02  0.60133318896E+01  0.29805505825E+02  0.47000000000E+01 0.  1.
         11    1    6    6    0    0 -0.10610433080E+02  0.86276637565E+02 -0.59434896840E+02  0.10530311696E+03  0.00000000000E+00 0. -1.
        -12    1    6    6    0    0  0.42062766121E+02  0.10783209673E+03 -0.73815539584E+01  0.11598070839E+03  0.00000000000E+00 0.  1.
</event>
<event>
12    1  0.1565987E-001  0.1867440E+03  0.7818608E-02  0.1161832E+00
         21   -1    0    0  501  502  0.00000000000E+00  0.00000000000E+00  0.25985279577E+02  0.25985279577E+02  0.00000000000E+00 0. -1.
         21   -1    0    0  502  503 -0.00000000000E+00 -0.00000000000E+00 -0.17144698220E+04  0.17144698220E+04  0.00000000000E+00 0. -1.
         -6    2    1    2    0  503  0.26308493941E+00 -0.69365606970E+02 -0.42891589513E+03  0.46711834190E+03  0.17151980526E+03 0.  0.
        -24    2    3    3    0    0  0.53217877542E+02 -0.77419736579E+02 -0.26098438276E+03  0.29078864528E+03  0.87288201236E+02 0.  0.
          6    2    1    2  501    0 -0.26308493941E+00  0.69365606970E+02 -0.12595686473E+04  0.12733367597E+04  0.17338301434E+03 0.  0.
         24    2    5    5    0    0  0.22145232781E+02  0.10600523475E+03 -0.10484096276E+04  0.10578029651E+04  0.89759927068E+02 0.  0.
          5    1    5    5  501    0 -0.22408317721E+02 -0.36639627780E+02 -0.21115901966E+03  0.21553379459E+03  0.47000000000E+01 0. -1.
        -11    1    6    6    0    0  0.87661034668E+01  0.11231090558E+01 -0.76570986619E+01  0.11693464151E+02  0.00000000000E+00 0.  1.
         12    1    6    6    0    0  0.13379129315E+02  0.10488212569E+03 -0.10407525289E+04  0.10461095009E+04  0.00000000000E+00 0. -1.
         -5    1    3    3    0  503 -0.52954792603E+02  0.80541296096E+01 -0.16793151237E+03  0.17632969662E+03  0.47000000000E+01 0.  1.
         11    1    4    4    0    0  0.26453654819E+02 -0.45430175578E+02 -0.40415148684E+02  0.66310488985E+02  0.00000000000E+00 0. -1.
        -12    1    4    4    0    0  0.26764222723E+02 -0.31989561001E+02 -0.22056923408E+03  0.22447815629E+03  0.00000000000E+00 0.  1.
</event>
<event>
12    1  0.1565987E-001  0.2772177E+03  0.7818608E-02  0.1097260E+00
         21   -1    0    0  501  502  0.00000000000E+00  0.00000000000E+00  0.27992275066E+03  0.27992275066E+03  0.00000000000E+00 0.  1.
         21   -1    0    0  502  503 -0.00000000000E+00 -0.00000000000E+00 -0.34404093755E+03  0.34404093755E+03  0.00000000000E+00 0. -1.
         -6    2    1    2    0  503 -0.16258768742E+03 -0.14446390855E+03  0.10844907741E+03  0.29767572977E+03  0.17188676716E+03 0.  0.
        -24    2    3    3    0    0 -0.97758379857E+02 -0.59671288753E+02 -0.72428972741E+01  0.14019763447E+03  0.80532934978E+02 0.  0.
          6    2    1    2  501    0  0.16258768742E+03  0.14446390855E+03 -0.17256726431E+03  0.32628795844E+03  0.17140535039E+03 0.  0.
         24    2    5    5    0    0  0.51307656739E+02  0.59978334079E+01 -0.30391426596E+02  0.98709053398E+02  0.78430789659E+02 0.  0.
          5    1    5    5  501    0  0.11128003068E+03  0.13846607514E+03 -0.14217583771E+03  0.22757890505E+03  0.47000000000E+01 0. -1.
        -11    1    6    6    0    0  0.70340442904E+02 -0.53010801950E+01 -0.29774999019E+02  0.76566506553E+02  0.00000000000E+00 0.  1.
         12    1    6    6    0    0 -0.19032786165E+02  0.11298913603E+02 -0.61642757786E+00  0.22142546845E+02  0.00000000000E+00 0. -1.
         -5    1    3    3    0  503 -0.64829307564E+02 -0.84792619793E+02  0.11569197469E+03  0.15747809530E+03  0.47000000000E+01 0.  1.
         13    1    4    4    0    0  0.10671599887E+02 -0.21827065440E+02 -0.72443469669E+01  0.25353192952E+02  0.00000000000E+00 0. -1.
        -14    1    4    4    0    0 -0.10842997974E+03 -0.37844223313E+02  0.14496927912E-02  0.11484444152E+03  0.00000000000E+00 0.  1.
</event>
<event>
12    1  0.1565987E-001  0.1775680E+03  0.7818608E-02  0.1173507E+00
         21   -1    0    0  503  502  0.00000000000E+00  0.00000000000E+00  0.51968033142E+03  0.51968033142E+03  0.00000000000E+00 0.  1.
         21   -1    0    0  501  503 -0.00000000000E+00 -0.00000000000E+00 -0.65414214963E+02  0.65414214963E+02  0.00000000000E+00 0. -1.
          6    2    1    2  501    0 -0.36753268998E+02  0.31354093062E+02  0.12553121560E+03  0.21745917982E+03  0.17086991211E+03 0.  0.
         24    2    3    3    0    0  0.36566841374E+02  0.23905754981E+02  0.28881581742E+02  0.95826297545E+02  0.80249078050E+02 0.  0.
         -6    2    1    2    0  502  0.36753268998E+02 -0.31354093062E+02  0.32873490086E+03  0.36763536657E+03  0.15733799851E+03 0.  0.
        -24    2    5    5    0    0  0.16749887387E+02 -0.30252616304E+02  0.67942600879E+02  0.10603249530E+03  0.73694731999E+02 0.  0.
          5    1    3    3  501    0 -0.73320110373E+02  0.74483380812E+01  0.96649633858E+02  0.12163288227E+03  0.47000000000E+01 0. -1.
        -11    1    4    4    0    0  0.27885709454E+02  0.30865129373E+02  0.54111532303E+02  0.68251937197E+02  0.00000000000E+00 0.  1.
         12    1    4    4    0    0  0.86811319198E+01 -0.69593743913E+01 -0.25229950560E+02  0.27574360348E+02  0.00000000000E+00 0. -1.
         -5    1    5    5    0  502  0.20003381611E+02 -0.11014767583E+01  0.26079229998E+03  0.26160287127E+03  0.47000000000E+01 0.  1.
         13    1    6    6    0    0 -0.15943891444E+02 -0.41701115091E+02  0.49964425432E+02  0.67004734780E+02  0.00000000000E+00 0. -1.
        -14    1    6    6    0    0  0.32693778831E+02  0.11448498786E+02  0.17978175447E+02  0.39027760519E+02  0.00000000000E+00 0.  1.
</event>
<event>
12    1  0.1565987E-001  0.1733778E+03  0.7818608E-02  0.1176002E+00
         21   -1    0    0  503  502  0.00000000000E+00  0.00000000000E+00  0.52553081254E+02  0.52553081254E+02  0.00000000000E+00 0.  1.
         21   -1    0    0  501  503 -0.00000000000E+00 -0.00000000000E+00 -0.59979321306E+03  0.59979321306E+03  0.00000000000E+00 0.  1.
          6    2    1    2  501    0  0.14018597994E+02  0.17962096225E+02 -0.36159693032E+03  0.39833203070E+03  0.16552011561E+03 0.  0.
         24    2    3    3    0    0 -0.39562143689E+02 -0.15852491486E+02 -0.28292585069E+03  0.29721056417E+03  0.80440150234E+02 0.  0.
         -6    2    1    2    0  502 -0.14018597994E+02 -0.17962096225E+02 -0.18564320148E+03  0.25401426361E+03  0.17187405235E+03 0.  0.
        -24    2    5    5    0    0 -0.73428302340E+02 -0.28929640364E+02 -0.15046873352E+03  0.18394905690E+03  0.70482452368E+02 0.  0.
          5    1    3    3  501    0  0.53580741684E+02  0.33814587711E+02 -0.78671079635E+02  0.10112146653E+03  0.47000000000E+01 0. -1.
        -11    1    4    4    0    0 -0.14810151734E+02 -0.13379676375E+02 -0.26684447068E+03  0.26758985008E+03  0.00000000000E+00 0.  1.
         12    1    4    4    0    0 -0.24751991955E+02 -0.24728151105E+01 -0.16081380005E+02  0.29620714090E+02  0.00000000000E+00 0. -1.
         -5    1    5    5    0  502  0.59409704346E+02  0.10967544139E+02 -0.35174467962E+02  0.70065206710E+02  0.47000000000E+01 0.  1.
         11    1    6    6    0    0 -0.36876325874E+02 -0.39009686599E+02 -0.39403972811E+02  0.66590480790E+02  0.00000000000E+00 0. -1.
        -12    1    6    6    0    0 -0.36551976466E+02  0.10080046235E+02 -0.11106476071E+03  0.11735857611E+03  0.00000000000E+00 0.  1.
</event>
<event>
12    1  0.1565987E-001  0.1730940E+03  0.7818608E-02  0.1174965E+00
         21   -1    0    0  501  502  0.00000000000E+00  0.00000000000E+00  0.47434618613E+02  0.47434618613E+02  0.00000000000E+00 0.  1.
         21   -1    0    0  502  503 -0.00000000000E+00 -0.00000000000E+00 -0.10548040767E+04  0.10548040767E+04  0.00000000000E+00 0.  1.
         -6    2    1    2    0  503 -0.13005525213E+02  0.21853702359E+02 -0.85350964994E+03  0.87064769935E+03  0.17000578180E+03 0.  0.
        -24    2    3    3    0    0  0.38608639692E+02 -0.11329624010E+01 -0.26469859897E+03  0.27911329416E+03  0.79667885739E+02 0.  0.
          6    2    1    2  501    0  0.13005525213E+02 -0.21853702359E+02 -0.15385980818E+03  0.23159099600E+03  0.17121571441E+03 0.  0.
         24    2    5    5    0    0  0.18760048124E+02  0.25837806534E+02 -0.31924547951E+02  0.10045026151E+03  0.89730410809E+02 0.  0.
          5    1    5    5  501    0 -0.57545229110E+01 -0.47691508892E+02 -0.12193526023E+03  0.13114073449E+03  0.47000000000E+01 0. -1.
        -13    1    6    6    0    0 -0.96588863844E+01 -0.29255270960E+02 -0.21549277791E+02  0.37597025659E+02  0.00000000000E+00 0.  1.
         14    1    6    6    0    0  0.28418934509E+02  0.55093077494E+02 -0.10375270160E+02  0.62853235853E+02  0.00000000000E+00 0. -1.
         -5    1    3    3    0  503 -0.51614164906E+02  0.22986664760E+02 -0.58881105097E+03  0.59153440519E+03  0.47000000000E+01 0.  1.
         11    1    4    4    0    0  0.24163935518E+02  0.36511985899E+02 -0.93695868402E+02  0.10342116152E+03  0.00000000000E+00 0. -1.
        -12    1    4    4    0    0  0.14444704174E+02 -0.37644948300E+02 -0.17100273057E+03  0.17569213264E+03  0.00000000000E+00 0.  1.
</event>
<event>
12    1  0.1565987E-001  0.2218958E+03  0.7818608E-02  0.1133648E+00
         21   -1    0    0  501  502  0.00000000000E+00  0.00000000000E+00  0.45765106934E+03  0.45765106934E+03  0.00000000000E+00 0. -1.
         21   -1    0    0  502  503 -0.00000000000E+00 -0.00000000000E+00 -0.16479765876E+03  0.16479765876E+03  0.00000000000E+00 0. -1.
         -6    2    1    2    0  503  0.10286299054E+03  0.96009942807E+02 -0.43025257142E+02  0.21989164294E+03  0.16340886739E+03 0.  0.
        -24    2    3    3    0    0  0.84944436510E+02  0.52754196508E+00 -0.14269039055E+02  0.11846692442E+03  0.81332472671E+02 0.  0.
          6    2    1    2  501    0 -0.10286299054E+03 -0.96009942807E+02  0.33587866772E+03  0.40255708516E+03  0.17157803893E+03 0.  0.
         24    2    5    5    0    0 -0.85532611477E+02 -0.13264656144E+03  0.30057312444E+03  0.34860196261E+03  0.79171884595E+02 0.  0.
          5    1    5    5  501    0 -0.17330379066E+02  0.36636618635E+02  0.35305543283E+02  0.53955122556E+02  0.47000000000E+01 0. -1.
        -13    1    6    6    0    0 -0.89519411795E+01 -0.29037935948E+02  0.12177293429E+02  0.32735690771E+02  0.00000000000E+00 0.  1.
         14    1    6    6    0    0 -0.76580670298E+02 -0.10360862549E+03  0.28839583101E+03  0.31586627184E+03  0.00000000000E+00 0. -1.
         -5    1    3    3    0  503  0.17918554033E+02  0.95482400842E+02 -0.28756218087E+02  0.10142471852E+03  0.47000000000E+01 0.  1.
         13    1    4    4    0    0  0.76248436898E+02  0.73012081886E+01 -0.42896319038E+02  0.87790807932E+02  0.00000000000E+00 0. -1.
        -14    1    4    4    0    0  0.86959996129E+01 -0.67736662236E+01  0.28627279984E+02  0.30676116485E+02  0.00000000000E+00 0.  1.
</event>
<event>
12    1  0.1565987E-001  0.2049654E+03  0.7818608E-02  0.1146982E+00
         21   -1    0    0  503  502  0.00000000000E+00  0.00000000000E+00  0.14907035795E+04  0.14907035795E+04  0.00000000000E+00 0.  1.
         21   -1    0    0  501  503 -0.00000000000E+00 -0.00000000000E+00 -0.67288524545E+02  0.67288524545E+02  0.00000000000E+00 0.  1.
          6    2    1    2  501    0  0.96377592649E+02  0.36949694112E+02  0.11580631657E+03  0.23541862526E+03  0.17707881268E+03 0.  0.
         24    2    3    3    0    0  0.92215979026E+02  0.18170275471E+02  0.55914910321E+01  0.12343923715E+03  0.79825026139E+02 0.  0.
         -6    2    1    2    0  502 -0.96377592649E+02 -0.36949694112E+02  0.13076087383E+04  0.13225734787E+04  0.16942866885E+03 0.  0.
        -24    2    5    5    0    0 -0.26880319725E+02  0.38434173229E+02  0.51303955000E+03  0.52140253352E+03  0.80319890701E+02 0.  0.
          5    1    3    3  501    0  0.41616136224E+01  0.18779418641E+02  0.11021482554E+03  0.11197938811E+03  0.47000000000E+01 0. -1.
        -11    1    4    4    0    0  0.49347128434E+02 -0.17716041623E+02  0.32193891154E+02  0.61525960725E+02  0.00000000000E+00 0.  1.
         12    1    4    4    0    0  0.42868850593E+02  0.35886317094E+02 -0.26602400122E+02  0.61913276427E+02  0.00000000000E+00 0. -1.
         -5    1    5    5    0  502 -0.69497272923E+02 -0.75383867341E+02  0.79456918834E+03  0.80117094521E+03  0.47000000000E+01 0.  1.
         13    1    6    6    0    0  0.71725884616E+01  0.28379784359E+02  0.57887941390E+02  0.64868111918E+02  0.00000000000E+00 0. -1.
        -14    1    6    6    0    0 -0.34052908187E+02  0.10054388870E+02  0.45515160861E+03  0.45653442161E+03  0.00000000000E+00 0.  1.
</event>
<event>
12    1  0.1565987E-001  0.2021412E+03  0.7818608E-02  0.1148004E+00
         21   -1    0    0  501  502  0.00000000000E+00  0.00000000000E+00  0.26357821510E+03  0.26357821510E+03  0.00000000000E+00 0. -1.
         21   -1    0    0  502  503 -0.00000000000E+00 -0.00000000000E+00 -0.15915171540E+03  0.15915171540E+03  0.00000000000E+00 0. -1.
         -6    2    1    2    0  503  0.86362249667E+02  0.62071912363E+02  0.17325987511E+02  0.20288232978E+03  0.17190023102E+03 0.  0.
        -24    2    3    3    0    0 -0.13379194542E+01  0.62600080736E+02  0.43719606579E+02  0.11117457791E+03  0.80794941909E+02 0.  0.
          6    2    1    2  501    0 -0.86362249667E+02 -0.62071912363E+02  0.87100512184E+02  0.21984760071E+03  0.17156662800E+03 0.  0.
         24    2    5    5    0    0 -0.12367332652E+03 -0.20856539246E+02  0.60692788713E+02  0.15812012469E+03  0.74754747720E+02 0.  0.
          5    1    5    5  501    0  0.37311076857E+02 -0.41215373117E+02  0.26407723471E+02  0.61727476024E+02  0.47000000000E+01 0. -1.
        -13    1    6    6    0    0 -0.44569329111E+02  0.21096447437E+02  0.45898204894E+02  0.67365647064E+02  0.00000000000E+00 0.  1.
         14    1    6    6    0    0 -0.79103997413E+02 -0.41952986683E+02  0.14794583819E+02  0.90754477624E+02  0.00000000000E+00 0. -1.
         -5    1    3    3    0  503  0.87700169121E+02 -0.52816837326E+00 -0.26393619068E+02  0.91707751871E+02  0.47000000000E+01 0.  1.
         13    1    4    4    0    0  0.35998679958E+02  0.50962742294E+02  0.20416975398E+02  0.65650277571E+02  0.00000000000E+00 0. -1.
        -14    1    4    4    0    0 -0.37336599412E+02  0.11637338442E+02  0.23302631181E+02  0.45524300342E+02  0.00000000000E+00 0.  1.
</event>
<event>
12    1  0.1565987E-001  0.2664501E+03  0.7818608E-02  0.1103732E+00
         21   -1    0    0  503  502  0.00000000000E+00  0.00000000000E+00  0.13140887807E+03  0.13140887807E+03  0.00000000000E+00 0. -1.
         21   -1    0    0  501  503 -0.00000000000E+00 -0.00000000000E+00 -0.56213270738E+03  0.56213270738E+03  0.00000000000E+00 0.  1.
          6    2    1    2  501    0  0.18504848605E+03  0.85335904868E+02 -0.29303296356E+03  0.39606054017E+03  0.17166966797E+03 0.  0.
         24    2    3    3    0    0  0.60655977132E+02  0.52252993161E+02 -0.55568143985E+02  0.12591316214E+03  0.79729435711E+02 0.  0.
         -6    2    1    2    0  502 -0.18504848605E+03 -0.85335904868E+02 -0.13769086576E+03  0.29748104528E+03  0.16736498719E+03 0.  0.
        -24    2    5    5    0    0 -0.17234845930E+03 -0.37584720001E+02 -0.57824909625E+02  0.20344845899E+03  0.83252343447E+02 0.  0.
          5    1    3    3  501    0  0.12439250891E+03  0.33082911707E+02 -0.23746481957E+03  0.27014737803E+03  0.47000000000E+01 0. -1.
        -11    1    4    4    0    0  0.77807776064E+02  0.49007176562E+02 -0.57338770266E+02  0.10836737492E+03  0.00000000000E+00 0.  1.
         12    1    4    4    0    0 -0.17151798932E+02  0.32458165984E+01  0.17706262809E+01  0.17545787227E+02  0.00000000000E+00 0. -1.
         -5    1    5    5    0  502 -0.12700026745E+02 -0.47751184867E+02 -0.79865956134E+02  0.94032586291E+02  0.47000000000E+01 0.  1.
         13    1    6    6    0    0  0.76187470534E+01 -0.27364916585E+00  0.51099089574E+01  0.91777644382E+01  0.00000000000E+00 0. -1.
        -14    1    6    6    0    0 -0.17996720635E+03 -0.37311070835E+02 -0.62934818583E+02  0.19427069455E+03  0.00000000000E+00 0.  1.
</event>
<event>
12    1  0.1565987E-001  0.2420823E+03  0.7818608E-02  0.1118623E+00
         21   -1    0    0  501  502  0.00000000000E+00  0.00000000000E+00  0.48228719959E+03  0.48228719959E+03  0.00000000000E+00 0. -1.
         21   -1    0    0  502  503 -0.00000000000E+00 -0.00000000000E+00 -0.11615377104E+04  0.11615377104E+04  0.00000000000E+00 0. -1.
         -6    2    1    2    0  503  0.15143181192E+03  0.74548149753E+02 -0.11175037565E+04  0.11431555991E+04  0.17175871912E+03 0.  0.
        -24    2    3    3    0    0  0.18044613806E+03  0.51713962320E+02 -0.93695569669E+03  0.95881102188E+03  0.78723919379E+02 0.  0.
          6    2    1    2  501    0 -0.15143181192E+03 -0.74548149753E+02  0.43825324574E+03  0.50066931086E+03  0.17353625312E+03 0.  0.
         24    2    5    5    0    0 -0.15102655868E+03 -0.17303435060E+02  0.24639118569E+03  0.30039384638E+03  0.80121259739E+02 0.  0.
          5    1    5    5  501    0 -0.40525324030E+00 -0.57244714693E+02  0.19186206005E+03  0.20027546449E+03  0.47000000000E+01 0. -1.
        -11    1    6    6    0    0 -0.77207893272E+02 -0.43057526997E+02  0.93514696808E+02  0.12868569436E+03  0.00000000000E+00 0.  1.
         12    1    6    6    0    0 -0.73818665412E+02  0.25754091937E+02  0.15287648889E+03  0.17170815202E+03  0.00000000000E+00 0. -1.
         -5    1    3    3    0  503 -0.29014326136E+02  0.22834187433E+02 -0.18054805982E+03  0.18434457720E+03  0.47000000000E+01 0.  1.
         11    1    4    4    0    0  0.66203072161E+02  0.26688408350E+01 -0.50472263210E+03  0.50905294894E+03  0.00000000000E+00 0. -1.
        -12    1    4    4    0    0  0.11424306590E+03  0.49045121485E+02 -0.43223306459E+03  0.44975807294E+03  0.00000000000E+00 0.  1.
</event>
<event>
12    1  0.1565987E-001  0.1813049E+03  0.7818608E-02  0.1166756E+00
         21   -1    0    0  501  502  0.00000000000E+00  0.00000000000E+00  0.16485464389E+03  0.16485464389E+03  0.00000000000E+00 0. -1.
         21   -1    0    0  502  503 -0.00000000000E+00 -0.00000000000E+00 -0.23135507014E+03  0.23135507014E+03  0.00000000000E+00 0. -1.
         -6    2    1    2    0  503 -0.51116076878E+02 -0.20268021613E+02 -0.10804353663E+03  0.21105652790E+03  0.17276517631E+03 0.  0.
        -24    2    3    3    0    0 -0.75880040233E+01  0.27211067985E+02 -0.11872720350E+03  0.14559518195E+03  0.79396398726E+02 0.  0.
          6    2    1    2  501    0  0.51116076878E+02  0.20268021613E+02  0.41543110381E+02  0.18515318613E+03  0.17184942915E+03 0.  0.
         24    2    5    5    0    0 -0.19402031722E+02 -0.25617675764E+01  0.67045935827E+02  0.10662620337E+03  0.80566669579E+02 0.  0.
          5    1    5    5  501    0  0.70518108600E+02  0.22829789189E+02 -0.25502825446E+02  0.78526982755E+02  0.47000000000E+01 0. -1.
        -11    1    6    6    0    0 -0.21484220996E+02 -0.33222623684E+01 -0.13800092226E+02  0.25749790766E+02  0.00000000000E+00 0.  1.
         12    1    6    6    0    0  0.20821892740E+01  0.76049479198E+00  0.80846028053E+02  0.80876412608E+02  0.00000000000E+00 0. -1.
         -5    1    3    3    0  503 -0.43528072855E+02 -0.47479089598E+02  0.10683666869E+02  0.65461345947E+02  0.47000000000E+01 0.  1.
         13    1    4    4    0    0 -0.13950730173E+02 -0.16738943349E+02 -0.90243916493E+02  0.92837382346E+02  0.00000000000E+00 0. -1.
        -14    1    4    4    0    0  0.63627261501E+01  0.43950011334E+02 -0.28483287002E+02  0.52757799602E+02  0.00000000000E+00 0.  1.
</event>
<event>
12    1  0.1565987E-001  0.2696536E+03  0.7818608E-02  0.1101547E+00
         21   -1    0    0  503  502  0.00000000000E+00  0.00000000000E+00  0.10252446384E+03  0.10252446384E+03  0.00000000000E+00 0.  1.
         21   -1    0    0  501  503 -0.00000000000E+00 -0.00000000000E+00 -0.83068977325E+03  0.83068977325E+03  0.00000000000E+00 0.  1.
          6    2    1    2  501    0 -0.19283710507E+03 -0.76799667298E+02 -0.54371679491E+03  0.60691105656E+03  0.17213000762E+03 0.  0.
         24    2    3    3    0    0 -0.25011991533E+02 -0.19938158294E+02 -0.23628105213E+03  0.25203456272E+03  0.81667345596E+02 0.  0.
         -6    2    1    2    0  502  0.19283710507E+03  0.76799667298E+02 -0.18444851450E+03  0.32630318053E+03  0.17137144783E+03 0.  0.
        -24    2    5    5    0    0  0.10797138339E+03  0.11340370641E+03 -0.11321764745E+03  0.20952144901E+03  0.81010997053E+02 0.  0.
          5    1    3    3  501    0 -0.16782511354E+03 -0.56861509004E+02 -0.30743574278E+03  0.35487649384E+03  0.47000000000E+01 0. -1.
        -13    1    4    4    0    0 -0.26598059376E+02  0.14685727647E+01 -0.16772654218E+02  0.31479126386E+02  0.00000000000E+00 0.  1.
         14    1    4    4    0    0  0.15860678429E+01 -0.21406731059E+02 -0.21950839791E+03  0.22055543634E+03  0.00000000000E+00 0. -1.
         -5    1    5    5    0  502  0.84865721678E+02 -0.36604039108E+02 -0.71230867048E+02  0.11678173151E+03  0.47000000000E+01 0.  1.
         13    1    6    6    0    0  0.12567301346E+02  0.33615407615E+01  0.11814210101E+02  0.17573064040E+02  0.00000000000E+00 0. -1.
        -14    1    6    6    0    0  0.95404082048E+02  0.11004216564E+03 -0.12503185755E+03  0.19194838497E+03  0.00000000000E+00 0.  1.
</event>
<event>
12    1  0.1565987E-001  0.2534537E+03  0.7818608E-02  0.1111265E+00
         21   -1    0    0  501  502  0.00000000000E+00  0.00000000000E+00  0.44781280007E+03  0.44781280007E+03  0.00000000000E+00 0. -1.
         21   -1    0    0  502  503 -0.00000000000E+00 -0.00000000000E+00 -0.18267511440E+03  0.18267511440E+03  0.00000000000E+00 0.  1.
         -6    2    1    2    0  503 -0.17123652262E+03 -0.71573360436E+02 -0.14183064728E+02  0.25385023011E+03  0.17260963878E+03 0.  0.
        -24    2    3    3    0    0 -0.28716915496E+02  0.12409039717E+02  0.10626721936E+02  0.86510762369E+02  0.79953356929E+02 0.  0.
          6    2    1    2  501    0  0.17123652262E+03  0.71573360436E+02  0.27932075040E+03  0.37663768436E+03  0.17143853440E+03 0.  0.
         24    2    5    5    0    0  0.39422357622E+02  0.10668509620E+02  0.43697935009E+02  0.99826239371E+02  0.79923896081E+02 0.  0.
          5    1    5    5  501    0  0.13181416499E+03  0.60904850816E+02  0.23562281539E+03  0.27681144499E+03  0.47000000000E+01 0. -1.
        -13    1    6    6    0    0 -0.48879405312E+01  0.30338966727E+02  0.41044163253E+02  0.51273464890E+02  0.00000000000E+00 0.  1.
         14    1    6    6    0    0  0.44310298154E+02 -0.19670457107E+02  0.26537717566E+01  0.48552774481E+02  0.00000000000E+00 0. -1.
         -5    1    3    3    0  503 -0.14251960712E+03 -0.83982400153E+02 -0.24809786663E+02  0.16733946774E+03  0.47000000000E+01 0.  1.
         13    1    4    4    0    0 -0.45374646113E+02  0.26183279387E+02  0.27428786842E+02  0.59133416754E+02  0.00000000000E+00 0. -1.
        -14    1    4    4    0    0  0.16657730617E+02 -0.13774239670E+02 -0.16802064907E+02  0.27377345615E+02  0.00000000000E+00 0.  1.
</event>
<event>
12    1  0.1565987E-001  0.2190469E+03  0.7818608E-02  0.1134692E+00
         21   -1    0    0  501  502  0.00000000000E+00  0.00000000000E+00  0.44190628175E+03  0.44190628175E+03  0.00000000000E+00 0. -1.
         21   -1    0    0  502  503 -0.00000000000E+00 -0.00000000000E+00 -0.16768838297E+03  0.16768838297E+03  0.00000000000E+00 0. -1.
         -6    2    1    2    0  503 -0.85983275608E+02 -0.10428000104E+03 -0.44139822482E+02  0.22344995577E+03  0.17237783065E+03 0.  0.
        -24    2    3    3    0    0 -0.45620906992E+02 -0.13206203307E+03 -0.45355849082E+01  0.16027125890E+03  0.78387863630E+02 0.  0.
          6    2    1    2  501    0  0.85983275608E+02  0.10428000104E+03  0.31835772126E+03  0.38614470896E+03  0.17172261141E+03 0.  0.
         24    2    5    5    0    0  0.44091136289E+01  0.52298953331E+02  0.71123338293E+02  0.12062012753E+03  0.82073534785E+02 0.  0.
          5    1    5    5  501    0  0.81574161979E+02  0.51981047711E+02  0.24723438297E+03  0.26552458144E+03  0.47000000000E+01 0. -1.
        -13    1    6    6    0    0  0.40159240552E+02  0.43002070981E+02  0.32674466356E+02  0.67302031634E+02  0.00000000000E+00 0.  1.
         14    1    6    6    0    0 -0.35750126923E+02  0.92968823492E+01  0.38448871937E+02  0.53318095892E+02  0.00000000000E+00 0. -1.
         -5    1    3    3    0  503 -0.40362368616E+02  0.27782032030E+02 -0.39604237574E+02  0.63178696867E+02  0.47000000000E+01 0.  1.
         11    1    4    4    0    0 -0.48628839618E+01 -0.97747021943E+02 -0.28379305927E+02  0.10189952377E+03  0.00000000000E+00 0. -1.
        -12    1    4    4    0    0 -0.40758023031E+02 -0.34315011129E+02  0.23843721019E+02  0.58371735131E+02  0.00000000000E+00 0.  1.
</event>
<event>
12    1  0.1565987E-001  0.1820305E+03  0.7818608E-02  0.1166681E+00
         21   -1    0    0  503  502  0.00000000000E+00  0.00000000000E+00  0.75737746826E+03  0.75737746826E+03  0.00000000000E+00 0. -1.
         21   -1    0    0  501  503 -0.00000000000E+00 -0.00000000000E+00 -0.13071855027E+03  0.13071855027E+03  0.00000000000E+00 0. -1.
          6    2    1    2  501    0 -0.21902812263E+02  0.58266865949E+02 -0.49588177998E+02  0.18866395772E+03  0.17105654238E+03 0.  0.
         24    2    3    3    0    0  0.17844891788E+02  0.17067278605E+01  0.25530006459E+02  0.86469237532E+02  0.80646107944E+02 0.  0.
         -6    2    1    2    0  502  0.21902812263E+02 -0.58266865949E+02  0.67624709599E+03  0.69943206081E+03  0.16739268802E+03 0.  0.
        -24    2    5    5    0    0  0.46446920974E+01 -0.84111467065E+02  0.64605018698E+03  0.65584617511E+03  0.75213358225E+02 0.  0.
          5    1    3    3  501    0 -0.39747704051E+02  0.56560138089E+02 -0.75118184458E+02  0.10219472019E+03  0.47000000000E+01 0. -1.
        -11    1    4    4    0    0 -0.10937707149E+02 -0.75304665961E+01  0.47357321552E+02  0.49183912709E+02  0.00000000000E+00 0.  1.
         12    1    4    4    0    0  0.28782598936E+02  0.92371944565E+01 -0.21827315093E+02  0.37285324822E+02  0.00000000000E+00 0. -1.
         -5    1    5    5    0  502  0.17258120166E+02  0.25844601115E+02  0.30196909013E+02  0.43585885702E+02  0.47000000000E+01 0.  1.
         11    1    6    6    0    0  0.17978670728E+02 -0.22032800012E+02  0.42243883597E+03  0.42339490669E+03  0.00000000000E+00 0. -1.
        -12    1    6    6    0    0 -0.13333978630E+02 -0.62078667053E+02  0.22361135101E+03  0.23245126842E+03  0.00000000000E+00 0.  1.
</event>
<event>
12    1  0.1565987E-001  0.1743617E+03  0.7818608E-02  0.1175651E+00
         21   -1    0    0  503  502  0.00000000000E+00  0.00000000000E+00  0.32984342743E+02  0.32984342743E+02  0.00000000000E+00 0.  1.
         21   -1    0    0  501  503 -0.00000000000E+00 -0.00000000000E+00 -0.99722162694E+03  0.99722162694E+03  0.00000000000E+00 0.  1.
          6    2    1    2  501    0  0.18074918955E+02  0.17113451143E+02 -0.29155168261E+03  0.33529020147E+03  0.16369961107E+03 0.  0.
         24    2    3    3    0    0  0.55382307916E+02 -0.32560947251E+02 -0.16930058012E+03  0.19807938125E+03  0.80282871963E+02 0.  0.
         -6    2    1    2    0  502 -0.18074918955E+02 -0.17113451143E+02 -0.67268560159E+03  0.69491576821E+03  0.17257587728E+03 0.  0.
        -24    2    5    5    0    0 -0.37290493640E+02 -0.60978131658E+02 -0.27994324572E+03  0.29923660955E+03  0.77880769213E+02 0.  0.
          5    1    3    3  501    0 -0.37307388961E+02  0.49674398393E+02 -0.12225110249E+03  0.13721082022E+03  0.47000000000E+01 0. -1.
        -13    1    4    4    0    0  0.37900423256E+02 -0.49369109282E+02 -0.61185719700E+02  0.87277965888E+02  0.00000000000E+00 0.  1.
         14    1    4    4    0    0  0.17481884660E+02  0.16808162032E+02 -0.10811486042E+03  0.11080141536E+03  0.00000000000E+00 0. -1.
         -5    1    5    5    0  502  0.19215574685E+02  0.43864680516E+02 -0.39274235587E+03  0.39567915866E+03  0.47000000000E+01 0.  1.
         13    1    6    6    0    0 -0.72205240801E+01  0.23954188179E+01  0.26591012626E+01  0.80588348308E+01  0.00000000000E+00 0. -1.
        -14    1    6    6    0    0 -0.30069969560E+02 -0.63373550476E+02 -0.28260234699E+03  0.29117777472E+03  0.00000000000E+00 0.  1.
</event>
<event>
12    1  0.1565987E-001  0.2049826E+03  0.7818608E-02  0.1146170E+00
         21   -1    0    0  501  502  0.00000000000E+00  0.00000000000E+00  0.76149413425E+03  0.76149413425E+03  0.00000000000E+00 0. -1.
         21   -1    0    0  502  503 -0.00000000000E+00 -0.00000000000E+00 -0.55883546250E+02  0.55883546250E+02  0.00000000000E+00 0. -1.
         -6    2    1    2    0  503  0.58239226946E+02 -0.93681122156E+02  0.28938672968E+03  0.35463013906E+03  0.17277122448E+03 0.  0.
        -24    2    3    3    0    0  0.28009735005E+02  0.20688648862E+02  0.12139282825E+03  0.14911053507E+03  0.79279048123E+02 0.  0.
          6    2    1    2  501    0 -0.58239226946E+02  0.93681122156E+02  0.41622385832E+03  0.46274754144E+03  0.16948459125E+03 0.  0.
         24    2    5    5    0    0  0.24035347259E+02  0.57495333357E+02  0.11680519920E+03  0.15009415461E+03  0.70720502055E+02 0.  0.
          5    1    5    5  501    0 -0.82274574204E+02  0.36185788799E+02  0.29941865912E+03  0.31265338684E+03  0.47000000000E+01 0. -1.
        -13    1    6    6    0    0  0.81552160450E+01  0.71858178795E+02  0.83093193529E+02  0.11015708883E+03  0.00000000000E+00 0.  1.
         14    1    6    6    0    0  0.15880131214E+02 -0.14362845438E+02  0.33712005671E+02  0.39937065776E+02  0.00000000000E+00 0. -1.
         -5    1    3    3    0  503  0.30229491940E+02 -0.11436977102E+03  0.16799390143E+03  0.20551960399E+03  0.47000000000E+01 0.  1.
         13    1    4    4    0    0  0.37642712522E+02 -0.18750535552E+02  0.83891773734E+02  0.93842346996E+02  0.00000000000E+00 0. -1.
        -14    1    4    4    0    0 -0.96329775169E+01  0.39439184414E+02  0.37501054515E+02  0.55268188072E+02  0.00000000000E+00 0.  1.
</event>
<event>
12    1  0.1565987E-001  0.2387555E+03  0.7818608E-02  0.1120632E+00
         21   -1    0    0  503  502  0.00000000000E+00  0.00000000000E+00  0.19788769111E+03  0.19788769111E+03  0.00000000000E+00 0. -1.
         21   -1    0    0  501  503 -0.00000000000E+00 -0.00000000000E+00 -0.39492647343E+03  0.39492647343E+03  0.00000000000E+00 0.  1.
          6    2    1    2  501    0  0.12781828468E+03 -0.10592751343E+03 -0.25273619670E+03  0.34764812111E+03  0.17153856415E+03 0.  0.
         24    2    3    3    0    0  0.19325093980E+02 -0.10607716972E+02 -0.14038172710E+03  0.16461191468E+03  0.83090734955E+02 0.  0.
         -6    2    1    2    0  502 -0.12781828468E+03  0.10592751343E+03  0.55697414389E+02  0.24516604342E+03  0.17159846992E+03 0.  0.
        -24    2    5    5    0    0 -0.44391614504E+02  0.11620048277E+03  0.62107744626E+02  0.16073426309E+03  0.80653355506E+02 0.  0.
          5    1    3    3  501    0  0.10849319070E+03 -0.95319796458E+02 -0.11235446961E+03  0.18303620643E+03  0.47000000000E+01 0. -1.
        -13    1    4    4    0    0  0.51230393971E+02 -0.36567042959E+01 -0.10213610641E+03  0.11432282793E+03  0.00000000000E+00 0.  1.
         14    1    4    4    0    0 -0.31905299991E+02 -0.69510126765E+01 -0.38245620687E+02  0.50289086754E+02  0.00000000000E+00 0. -1.
         -5    1    5    5    0  502 -0.83426670178E+02 -0.10272969344E+02 -0.64103302372E+01  0.84431780331E+02  0.47000000000E+01 0.  1.
         13    1    6    6    0    0  0.20517082405E+02  0.12704291839E+02  0.20540050294E+02  0.31689799110E+02  0.00000000000E+00 0. -1.
        -14    1    6    6    0    0 -0.64908696909E+02  0.10349619094E+03  0.41567694332E+02  0.12904446398E+03  0.00000000000E+00 0.  1.
</event>
<event>
12    1  0.1565987E-001  0.1961607E+03  0.7818608E-02  0.1153119E+00
         21   -1    0    0  503  502  0.00000000000E+00  0.00000000000E+00  0.57765829878E+03  0.57765829878E+03  0.00000000000E+00 0. -1.
         21   -1    0    0  501  503 -0.00000000000E+00 -0.00000000000E+00 -0.66864934709E+02  0.66864934709E+02  0.00000000000E+00 0. -1.
          6    2    1    2  501    0 -0.83291118340E+02  0.54802609362E+02  0.23049069012E+03  0.30266312139E+03  0.16893273938E+03 0.  0.
         24    2    3    3    0    0 -0.14168694654E+02 -0.22819223938E+02  0.63773417573E+02  0.10614391769E+03  0.80486108016E+02 0.  0.
         -6    2    1    2    0  502  0.83291118340E+02 -0.54802609362E+02  0.28030267396E+03  0.34186011210E+03  0.16839836944E+03 0.  0.
        -24    2    5    5    0    0  0.11131645130E+03 -0.57408879154E+02  0.27194430501E+03  0.31212521238E+03  0.88211742100E+02 0.  0.
          5    1    3    3  501    0 -0.69122423686E+02  0.77621833300E+02  0.16671727254E+03  0.19651920371E+03  0.47000000000E+01 0. -1.
        -11    1    4    4    0    0  0.23730026064E+02  0.12151929595E+02  0.42904017090E+02  0.50512752968E+02  0.00000000000E+00 0.  1.
         12    1    4    4    0    0 -0.37898720718E+02 -0.34971153533E+02  0.20869400483E+02  0.55631164719E+02  0.00000000000E+00 0. -1.
         -5    1    5    5    0  502 -0.28025332958E+02  0.26062697923E+01  0.83583689503E+01  0.29734899716E+02  0.47000000000E+01 0.  1.
         13    1    6    6    0    0  0.93915051481E+02 -0.23721782743E+02  0.25047537813E+03  0.26855292760E+03  0.00000000000E+00 0. -1.
        -14    1    6    6    0    0  0.17401399817E+02 -0.33687096411E+02  0.21468926874E+02  0.43572284784E+02  0.00000000000E+00 0.  1.
</event>
<event>
12    1  0.1565987E-001  0.2054842E+03  0.7818608E-02  0.1145278E+00
         21   -1    0    0  501  502  0.00000000000E+00  0.00000000000E+00  0.23498294199E+03  0.23498294199E+03  0.00000000000E+00 0. -1.
         21   -1    0    0  502  503 -0.00000000000E+00 -0.00000000000E+00 -0.21596187667E+03  0.21596187667E+03  0.00000000000E+00 0. -1.
         -6    2    1    2    0  503 -0.61129247112E+02 -0.93456351807E+02 -0.83353711166E+02  0.22174672223E+03  0.17249026961E+03 0.  0.
        -24    2    3    3    0    0 -0.18599935480E+02 -0.13984122761E+02 -0.10025965693E+03  0.12991819431E+03  0.79279411678E+02 0.  0.
          6    2    1    2  501    0  0.61129247112E+02  0.93456351807E+02  0.10237477648E+03  0.22919809643E+03  0.17198923804E+03 0.  0.
         24    2    5    5    0    0 -0.25204905450E+02  0.82829891985E+02  0.67066900257E+02  0.13520211954E+03  0.79281559984E+02 0.  0.
          5    1    5    5  501    0  0.86334152563E+02  0.10626459821E+02  0.35307876226E+02  0.93995976885E+02  0.47000000000E+01 0. -1.
        -11    1    6    6    0    0 -0.66954899377E+01 -0.10496878797E+02  0.31076878588E+02  0.33478148586E+02  0.00000000000E+00 0.  1.
         12    1    6    6    0    0 -0.18509415513E+02  0.93326770782E+02  0.35990021669E+02  0.10172397096E+03  0.00000000000E+00 0. -1.
         -5    1    3    3    0  503 -0.42529311632E+02 -0.79472229046E+02  0.16905945768E+02  0.91828527918E+02  0.47000000000E+01 0.  1.
         11    1    4    4    0    0  0.64112645810E+01 -0.41211687996E+02 -0.72666017791E+02  0.83784590962E+02  0.00000000000E+00 0. -1.
        -12    1    4    4    0    0 -0.25011200061E+02  0.27227565235E+02 -0.27593639142E+02  0.46133603352E+02  0.00000000000E+00 0.  1.
</event>
<event>
12    1  0.1565987E-001  0.1831479E+03  0.7818608E-02  0.1164899E+00
         21   -1    0    0  503  502  0.00000000000E+00  0.00000000000E+00  0.56565344997E+03  0.56565344997E+03  0.00000000000E+00 0.  1.
         21   -1    0    0  501  503 -0.00000000000E+00 -0.00000000000E+00 -0.10331098252E+03  0.10331098252E+03  0.00000000000E+00 0.  1.
          6    2    1    2  501    0  0.56914118924E+02  0.30289498152E+02  0.12656327441E+02  0.18358472464E+03  0.17142490445E+03 0.  0.
         24    2    3    3    0    0 -0.95111156553E+00  0.29523170405E+01  0.63241154314E+02  0.10187413120E+03  0.79807732834E+02 0.  0.
         -6    2    1    2    0  502 -0.56914118924E+02 -0.30289498152E+02  0.44968614000E+03  0.48537970785E+03  0.17093614494E+03 0.  0.
        -24    2    5    5    0    0 -0.71980971631E+02 -0.29979735569E+02  0.16044246051E+03  0.19570557692E+03  0.80491272074E+02 0.  0.
          5    1    3    3  501    0  0.57865230489E+02  0.27337181112E+02 -0.50584826873E+02  0.81710593441E+02  0.47000000000E+01 0. -1.
        -11    1    4    4    0    0 -0.35567576702E+02  0.17661982746E+01  0.77259329383E+01  0.36439840951E+02  0.00000000000E+00 0.  1.
         12    1    4    4    0    0  0.34616465136E+02  0.11861187659E+01  0.55515221376E+02  0.65434290251E+02  0.00000000000E+00 0. -1.
         -5    1    5    5    0  502  0.15066852707E+02 -0.30976258332E+00  0.28924367949E+03  0.28967413093E+03  0.47000000000E+01 0.  1.
         13    1    6    6    0    0 -0.12679368238E+02  0.17523399574E-01 -0.77495934328E+01  0.14860110509E+02  0.00000000000E+00 0. -1.
        -14    1    6    6    0    0 -0.59301603393E+02 -0.29997258968E+02  0.16819205394E+03  0.18084546641E+03  0.00000000000E+00 0.  1.
</event>
<event>
12    1  0.1565987E-001  0.1808353E+03  0.7818608E-02  0.1167502E+00
         21   -1    0    0  503  502  0.00000000000E+00  0.00000000000E+00  0.78618816185E+02  0.78618816185E+02  0.00000000000E+00 0.  1.
         21   -1    0    0  501  503 -0.00000000000E+00 -0.00000000000E+00 -0.41474905194E+03  0.41474905194E+03  0.00000000000E+00 0.  1.
          6    2    1    2  501    0 -0.20785672049E+02  0.53308708791E+02 -0.19197922981E+03  0.26373743241E+03  0.17154458890E+03 0.  0.
         24    2    3    3    0    0  0.37954090811E+02  0.61522511145E+02 -0.70082008698E+02  0.12809507618E+03  0.79191718072E+02 0.  0.
         -6    2    1    2    0  502  0.20785672049E+02 -0.53308708791E+02 -0.14415100594E+03  0.22963043571E+03  0.16934214447E+03 0.  0.
        -24    2    5    5    0    0  0.42133567205E+02 -0.92859720118E+02 -0.12496070888E+03  0.18053488982E+03  0.81114133005E+02 0.  0.
          5    1    3    3  501    0 -0.58739762860E+02 -0.82138023540E+01 -0.12189722111E+03  0.13564235624E+03  0.47000000000E+01 0. -1.
        -13    1    4    4    0    0  0.18719468107E+02  0.57346588110E+02 -0.84409620375E+02  0.10374986104E+03  0.00000000000E+00 0.  1.
         14    1    4    4    0    0  0.19234622704E+02  0.41759230354E+01  0.14327611677E+02  0.24345215139E+02  0.00000000000E+00 0. -1.
         -5    1    5    5    0  502 -0.21347895156E+02  0.39551011327E+02 -0.19190297061E+02  0.49095545886E+02  0.47000000000E+01 0.  1.
         13    1    6    6    0    0  0.25562085275E+02  0.75163356794E+01 -0.39618861055E+02  0.47744839060E+02  0.00000000000E+00 0. -1.
        -14    1    6    6    0    0  0.16571481930E+02 -0.10037605580E+03 -0.85341847823E+02  0.13279005076E+03  0.00000000000E+00 0.  1.
</event>
<event>
12    1  0.1565987E-001  0.2271160E+03  0.7818608E-02  0.1128721E+00
         21   -1    0    0  503  502  0.00000000000E+00  0.00000000000E+00  0.10615955648E+03  0.10615955648E+03  0.00000000000E+00 0. -1.
         21   -1    0    0  501  503 -0.00000000000E+00 -0.00000000000E+00 -0.48707993619E+03  0.48707993619E+03  0.00000000000E+00 0. -1.
          6    2    1    2  501    0 -0.11174613870E+02  0.14684948588E+03 -0.20744445868E+03  0.30745008867E+03  0.17263461439E+03 0.  0.
         24    2    3    3    0    0 -0.44917496559E+02  0.26906372470E+02 -0.12808211746E+03  0.15964818141E+03  0.79630262059E+02 0.  0.
         -6    2    1    2    0  502  0.11174613870E+02 -0.14684948588E+03 -0.17347592103E+03  0.28578940400E+03  0.17289315997E+03 0.  0.
        -24    2    5    5    0    0 -0.42736255918E+02 -0.14155963842E+03 -0.14257697372E+03  0.22324982203E+03  0.87445816395E+02 0.  0.
          5    1    3    3  501    0  0.33742882689E+02  0.11994311341E+03 -0.79362341220E+02  0.14780190726E+03  0.47000000000E+01 0. -1.
        -13    1    4    4    0    0  0.17645009350E+02  0.15197730139E+01 -0.64564846023E+02  0.66949797661E+02  0.00000000000E+00 0.  1.
         14    1    4    4    0    0 -0.62562505909E+02  0.25386599457E+02 -0.63517271440E+02  0.92698383744E+02  0.00000000000E+00 0. -1.
         -5    1    5    5    0  502  0.53910869788E+02 -0.52898474614E+01 -0.30898947316E+02  0.62539581968E+02  0.47000000000E+01 0.  1.
         13    1    6    6    0    0 -0.35177615839E+02 -0.58130269834E+01 -0.33855184061E+02  0.49167361396E+02  0.00000000000E+00 0. -1.
        -14    1    6    6    0    0 -0.75586400789E+01 -0.13574661143E+03 -0.10872178966E+03  0.17408246064E+03  0.00000000000E+00 0.  1.
</event>
<event>
12    1  0.1565987E-001  0.2453661E+03  0.7818608E-02  0.1117801E+00
         21   -1    0    0  503  502  0.00000000000E+00  0.00000000000E+00  0.16981163218E+03  0.16981163218E+03  0.00000000000E+00 0.  1.
         21   -1    0    0  501  503 -0.00000000000E+00 -0.00000000000E+00 -0.43870552292E+03  0.43870552292E+03  0.00000000000E+00 0. -1.
          6    2    1    2  501    0  0.39164247414E+02 -0.16337448120E+03 -0.27580608143E+03  0.36305369765E+03  0.16587324511E+03 0.  0.
         24    2    3    3    0    0 -0.45870869236E+01 -0.12485225525E+03 -0.10143016003E+03  0.17913199390E+03  0.78683332842E+02 0.  0.
         -6    2    1    2    0  502 -0.39164247414E+02  0.16337448120E+03  0.69121906863E+01  0.24546345744E+03  0.17882804919E+03 0.  0.
        -24    2    5    5    0    0  0.10179267252E+02  0.95892858817E+02  0.67911211758E+02  0.14187039604E+03  0.78843000551E+02 0.  0.
          5    1    3    3  501    0  0.43751334337E+02 -0.38522225949E+02 -0.17437592139E+03  0.18392170375E+03  0.47000000000E+01 0. -1.
        -13    1    4    4    0    0  0.32203764543E+02 -0.23825082899E+02 -0.25063010680E+02  0.47253270048E+02  0.00000000000E+00 0.  1.
         14    1    4    4    0    0 -0.36790851466E+02 -0.10102717235E+03 -0.76367149353E+02  0.13187872386E+03  0.00000000000E+00 0. -1.
         -5    1    5    5    0  502 -0.49343514666E+02  0.67481622385E+02 -0.60999021072E+02  0.10359306140E+03  0.47000000000E+01 0.  1.
         13    1    6    6    0    0  0.12249739769E+02  0.31265522793E+02 -0.14957262716E+02  0.36760151630E+02  0.00000000000E+00 0. -1.
        -14    1    6    6    0    0 -0.20704725174E+01  0.64627336024E+02  0.82868474474E+02  0.10511024441E+03  0.00000000000E+00 0.  1.
</event>
<event>
12    1  0.1565987E-001  0.1997959E+03  0.7818608E-02  0.1149958E+00
         21   -1    0    0  503  502  0.00000000000E+00  0.00000000000E+00  0.65988192864E+02  0.65988192864E+02  0.00000000000E+00 0.  1.
         21   -1    0    0  501  503 -0.00000000000E+00 -0.00000000000E+00 -0.83853338808E+03  0.83853338808E+03  0.00000000000E+00 0.  1.
          6    2    1    2  501    0 -0.10219386265E+03  0.12072269636E+02 -0.62547036161E+03  0.65660608826E+03  0.17125728196E+03 0.  0.
         24    2    3    3    0    0 -0.68986257500E+02  0.73706929999E+02 -0.43122410099E+03  0.45007455032E+03  0.80131518871E+02 0.  0.
         -6    2    1    2    0  502  0.10219386265E+03 -0.12072269636E+02 -0.14707483360E+03  0.24791549269E+03  0.17100222097E+03 0.  0.
        -24    2    5    5    0    0 -0.37911343184E+01  0.26014936802E+02 -0.42543662793E+02  0.94187451824E+02  0.79813302156E+02 0.  0.
          5    1    3    3  501    0 -0.33207605147E+02 -0.61634660363E+02 -0.19424626062E+03  0.20653153794E+03  0.47000000000E+01 0. -1.
        -11    1    4    4    0    0 -0.79264479683E+01 -0.76791540269E+01 -0.16023412030E+03  0.16061373320E+03  0.00000000000E+00 0.  1.
         12    1    4    4    0    0 -0.61059809532E+02  0.81386084026E+02 -0.27098998069E+03  0.28946081712E+03  0.00000000000E+00 0. -1.
         -5    1    5    5    0  502  0.10598499697E+03 -0.38087206438E+02 -0.10453117081E+03  0.15372804086E+03  0.47000000000E+01 0.  1.
         11    1    6    6    0    0 -0.12322899881E+01  0.51871158488E+02 -0.10507019581E+02  0.52938956185E+02  0.00000000000E+00 0. -1.
        -12    1    6    6    0    0 -0.25588443302E+01 -0.25856221686E+02 -0.32036643212E+02  0.41248495639E+02  0.00000000000E+00 0.  1.
</event>
<event>
12    1  0.1565987E-001  0.1753105E+03  0.7818608E-02  0.1172718E+00
         21   -1    0    0  501  502  0.00000000000E+00  0.00000000000E+00  0.30495173890E+03  0.30495173890E+03  0.00000000000E+00 0.  1.
         21   -1    0    0  502  503 -0.00000000000E+00 -0.00000000000E+00 -0.24977049449E+03  0.24977049449E+03  0.00000000000E+00 0.  1.
         -6    2    1    2    0  503 -0.34359752287E+02 -0.11815431321E+02 -0.18707421369E+03  0.25637963830E+03  0.17150382069E+03 0.  0.
        -24    2    3    3    0    0 -0.23416977546E+02  0.57117328025E+02 -0.13818197582E+03  0.17103322329E+03  0.79670327161E+02 0.  0.
          6    2    1    2  501    0  0.34359752287E+02  0.11815431321E+02  0.24225545810E+03  0.29834259510E+03  0.17029503831E+03 0.  0.
         24    2    5    5    0    0  0.18730141255E+02  0.62893471065E+02  0.21347292561E+03  0.23748394689E+03  0.80755979144E+02 0.  0.
          5    1    5    5  501    0  0.15629611032E+02 -0.51078039744E+02  0.28782532494E+02  0.60858648209E+02  0.47000000000E+01 0. -1.
        -11    1    6    6    0    0  0.26117456096E+02  0.15808710132E+02  0.17081292315E+03  0.17351971514E+03  0.00000000000E+00 0.  1.
         12    1    6    6    0    0 -0.73873148411E+01  0.47084760933E+02  0.42660002458E+02  0.63964231743E+02  0.00000000000E+00 0. -1.
         -5    1    3    3    0  503 -0.10942774741E+02 -0.68932759346E+02 -0.48892237872E+02  0.85346415005E+02  0.47000000000E+01 0.  1.
         13    1    4    4    0    0  0.14081620602E+02 -0.66121476466E+01 -0.65601678388E+02  0.67421011136E+02  0.00000000000E+00 0. -1.
        -14    1    4    4    0    0 -0.37498598148E+02  0.63729475671E+02 -0.72580297430E+02  0.10361221215E+03  0.00000000000E+00 0.  1.
</event>
<event>
12    1  0.1565987E-001  0.3128618E+03  0.7818608E-02  0.1079638E+00
         21   -1    0    0  503  502  0.00000000000E+00  0.00000000000E+00  0.90180358005E+02  0.90180358005E+02  0.00000000000E+00 0. -1.
         21   -1    0    0  501  503 -0.00000000000E+00 -0.00000000000E+00 -0.12371082196E+04  0.12371082196E+04  0.00000000000E+00 0. -1.
          6    2    1    2  501    0  0.16484491837E+03  0.20226218576E+03 -0.32260987374E+03  0.44559550465E+03  0.16246348584E+03 0.  0.
         24    2    3    3    0    0  0.17472780525E+03  0.12652266817E+03 -0.26454071943E+03  0.34953165786E+03  0.75185079136E+02 0.  0.
         -6    2    1    2    0  502 -0.16484491837E+03 -0.20226218576E+03 -0.82431798785E+03  0.88169307295E+03  0.17262297323E+03 0.  0.
        -24    2    5    5    0    0 -0.38357224405E+02 -0.69010011067E+02 -0.17974195015E+03  0.21142772463E+03  0.78491119272E+02 0.  0.
          5    1    3    3  501    0 -0.98828868730E+01  0.75739517592E+02 -0.58069154313E+02  0.96063846793E+02  0.47000000000E+01 0. -1.
        -11    1    4    4    0    0  0.28296651306E+02  0.24170764050E+02 -0.99805470728E+02  0.10651787783E+03  0.00000000000E+00 0.  1.
         12    1    4    4    0    0  0.14643115394E+03  0.10235190412E+03 -0.16473524870E+03  0.24301378003E+03  0.00000000000E+00 0. -1.
         -5    1    5    5    0  502 -0.12648769397E+03 -0.13325217469E+03 -0.64457603770E+03  0.67026534832E+03  0.47000000000E+01 0.  1.
         13    1    6    6    0    0  0.11279581461E+01  0.13294335042E+02 -0.56535537209E+02  0.58088541050E+02  0.00000000000E+00 0. -1.
        -14    1    6    6    0    0 -0.39485182551E+02 -0.82304346109E+02 -0.12320641295E+03  0.15333918358E+03  0.00000000000E+00 0.  1.
</event>
<event>
12    1  0.1565987E-001  0.1788742E+03  0.7818608E-02  0.1168899E+00
         21   -1    0    0  503  502  0.00000000000E+00  0.00000000000E+00  0.47409948737E+03  0.47409948737E+03  0.00000000000E+00 0. -1.
         21   -1    0    0  501  503 -0.00000000000E+00 -0.00000000000E+00 -0.11122072759E+03  0.11122072759E+03  0.00000000000E+00 0.  1.
          6    2    1    2  501    0 -0.30774441261E+02  0.41107435658E+02 -0.20806361773E+01  0.17888625410E+03  0.17134490176E+03 0.  0.
         24    2    3    3    0    0  0.68962919932E+01  0.70199031715E+00  0.36549729125E+02  0.11131348385E+03  0.10491309429E+03 0.  0.
         -6    2    1    2    0  502  0.30774441261E+02 -0.41107435658E+02  0.36495939596E+03  0.40643396086E+03  0.17133685050E+03 0.  0.
        -24    2    5    5    0    0  0.47562000541E+02 -0.56653856746E+02  0.36714096948E+03  0.38297415229E+03  0.80030659588E+02 0.  0.
          5    1    3    3  501    0 -0.37670733254E+02  0.40405445340E+02 -0.38630365302E+02  0.67572770259E+02  0.47000000000E+01 0. -1.
        -13    1    4    4    0    0  0.20359917795E+02  0.40812475661E+02 -0.11754739644E+02  0.47099451443E+02  0.00000000000E+00 0.  1.
         14    1    4    4    0    0 -0.13463625802E+02 -0.40110485343E+02  0.48304468769E+02  0.64214032402E+02  0.00000000000E+00 0. -1.
         -5    1    5    5    0  502 -0.16787559280E+02  0.15546421089E+02 -0.21815735159E+01  0.23459808573E+02  0.47000000000E+01 0.  1.
         13    1    6    6    0    0  0.37940410533E+02 -0.16870100163E+02  0.30953507905E+03  0.31230760508E+03  0.00000000000E+00 0. -1.
        -14    1    6    6    0    0  0.96215900084E+01 -0.39783756584E+02  0.57605890430E+02  0.70666547209E+02  0.00000000000E+00 0.  1.
</event>
<event>
12    1  0.1565987E-001  0.2376136E+03  0.7818608E-02  0.1121402E+00
         21   -1    0    0  503  502  0.00000000000E+00  0.00000000000E+00  0.10401656273E+03  0.10401656273E+03  0.00000000000E+00 0.  1.
         21   -1    0    0  501  503 -0.00000000000E+00 -0.00000000000E+00 -0.56239817382E+03  0.56239817382E+03  0.00000000000E+00 0. -1.
          6    2    1    2  501    0  0.15094199762E+03  0.66510710253E+02 -0.29155789101E+03  0.37608666511E+03  0.17096202689E+03 0.  0.
         24    2    3    3    0    0  0.35142187203E+02 -0.23167876202E+02 -0.11566232068E+03  0.14714740106E+03  0.80640321210E+02 0.  0.
         -6    2    1    2    0  502 -0.15094199762E+03 -0.66510710253E+02 -0.16682372008E+03  0.29032807143E+03  0.17103530119E+03 0.  0.
        -24    2    5    5    0    0 -0.13575825514E+03 -0.77622119888E+02 -0.66169867816E+02  0.18782296212E+03  0.80271516474E+02 0.  0.
          5    1    3    3  501    0  0.11579981042E+03  0.89678586455E+02 -0.17589557034E+03  0.22893926406E+03  0.47000000000E+01 0. -1.
        -13    1    4    4    0    0  0.14351046490E+01  0.21641530872E+02 -0.38012214842E+01  0.22019642791E+02  0.00000000000E+00 0.  1.
         14    1    4    4    0    0  0.33707082554E+02 -0.44809407074E+02 -0.11186109919E+03  0.12512775827E+03  0.00000000000E+00 0. -1.
         -5    1    5    5    0  502 -0.15183742481E+02  0.11111409635E+02 -0.10065385226E+03  0.10250510931E+03  0.47000000000E+01 0.  1.
         13    1    6    6    0    0  0.27593475109E+01  0.10729077229E+02 -0.11820498361E+01  0.11141110298E+02  0.00000000000E+00 0. -1.
        -14    1    6    6    0    0 -0.13851760265E+03 -0.88351197117E+02 -0.64987817980E+02  0.17668185182E+03  0.00000000000E+00 0.  1.
</event>
<event>
12    1  0.1565987E-001  0.3955639E+03  0.7818608E-02  0.1045496E+00
         21   -1    0    0  501  502  0.00000000000E+00  0.00000000000E+00  0.93300451705E+03  0.93300451705E+03  0.00000000000E+00 0. -1.
         21   -1    0    0  502  503 -0.00000000000E+00 -0.00000000000E+00 -0.16696158601E+03  0.16696158601E+03  0.00000000000E+00 0.  1.
         -6    2    1    2    0  503 -0.35381721686E+03  0.17049643037E+02  0.39332707491E+03  0.55647009577E+03  0.17168420532E+03 0.  0.
        -24    2    3    3    0    0 -0.17518136108E+03  0.15095812228E+02  0.11157224170E+03  0.22281988603E+03  0.79271329466E+02 0.  0.
          6    2    1    2  501    0  0.35381721686E+03 -0.17049643037E+02  0.37271585612E+03  0.54349600729E+03  0.17604967271E+03 0.  0.
         24    2    5    5    0    0  0.29529664893E+03  0.33045147787E+02  0.34444652038E+03  0.46130482600E+03  0.76594023441E+02 0.  0.
          5    1    5    5  501    0  0.58520567921E+02 -0.50094790824E+02  0.28269335742E+02  0.82191181284E+02  0.47000000000E+01 0. -1.
        -13    1    6    6    0    0  0.72180433763E+02  0.29726452199E+02  0.53473314203E+02  0.94620675914E+02  0.00000000000E+00 0.  1.
         14    1    6    6    0    0  0.22311621517E+03  0.33186955872E+01  0.29097320618E+03  0.36668415009E+03  0.00000000000E+00 0. -1.
         -5    1    3    3    0  503 -0.17863585578E+03  0.19538308089E+01  0.28175483321E+03  0.33365020974E+03  0.47000000000E+01 0.  1.
         11    1    4    4    0    0 -0.22504808625E+00  0.16419557194E+02  0.18160382437E+02  0.24483708774E+02  0.00000000000E+00 0. -1.
        -12    1    4    4    0    0 -0.17495631299E+03 -0.13237449657E+01  0.93411859265E+02  0.19833617725E+03  0.00000000000E+00 0.  1.
</event>
<event>
12    1  0.1565987E-001  0.2783188E+03  0.7818608E-02  0.1096844E+00
         21   -1    0    0  501  502  0.00000000000E+00  0.00000000000E+00  0.44278934788E+03  0.44278934788E+03  0.00000000000E+00 0. -1.
         21   -1    0    0  502  503 -0.00000000000E+00 -0.00000000000E+00 -0.20781835467E+03  0.20781835467E+03  0.00000000000E+00 0.  1.
         -6    2    1    2    0  503 -0.59177973835E+02  0.20925772918E+03 -0.13677131879E+02  0.27865468528E+03  0.17369668932E+03 0.  0.
        -24    2    3    3    0    0 -0.90667857817E+02  0.15764134885E+03 -0.50864460876E+02  0.20751502721E+03  0.86045556711E+02 0.  0.
          6    2    1    2  501    0  0.59177973835E+02 -0.20925772918E+03  0.24864812509E+03  0.37195301727E+03  0.17097463886E+03 0.  0.
         24    2    5    5    0    0 -0.12661968100E+02 -0.15919474717E+03  0.21046230082E+03  0.27631031446E+03  0.80930320949E+02 0.  0.
          5    1    5    5  501    0  0.71839941935E+02 -0.50062982011E+02  0.38185824274E+02  0.95642702808E+02  0.47000000000E+01 0. -1.
        -13    1    6    6    0    0  0.41667113195E+01 -0.41738748995E+02  0.96182180668E+01  0.43034808814E+02  0.00000000000E+00 0.  1.
         14    1    6    6    0    0 -0.16828679419E+02 -0.11745599817E+03  0.20084408275E+03  0.23327550565E+03  0.00000000000E+00 0. -1.
         -5    1    3    3    0  503  0.31489883982E+02  0.51616380326E+02  0.37187328997E+02  0.71139658061E+02  0.47000000000E+01 0.  1.
         11    1    4    4    0    0  0.10795210453E+02  0.23035136575E+02 -0.27295145168E+02  0.37311915463E+02  0.00000000000E+00 0. -1.
        -12    1    4    4    0    0 -0.10146306827E+03  0.13460621228E+03 -0.23569315708E+02  0.17020311175E+03  0.00000000000E+00 0.  1.
</event>
<event>
12    1  0.1565987E-001  0.2160854E+03  0.7818608E-02  0.1136990E+00
         21   -1    0    0  501  502  0.00000000000E+00  0.00000000000E+00  0.18219216954E+03  0.18219216954E+03  0.00000000000E+00 0. -1.
         21   -1    0    0  502  503 -0.00000000000E+00 -0.00000000000E+00 -0.69244059471E+03  0.69244059471E+03  0.00000000000E+00 0. -1.
         -6    2    1    2    0  503  0.13693373622E+02 -0.13044915083E+03 -0.60275848547E+03  0.64032077913E+03  0.17172192332E+03 0.  0.
        -24    2    3    3    0    0 -0.24886003583E+02 -0.14607757373E+03 -0.52152245069E+03  0.54892056417E+03  0.85849568877E+02 0.  0.
          6    2    1    2  501    0 -0.13693373622E+02  0.13044915083E+03  0.92510060301E+02  0.23431198513E+03  0.17070297503E+03 0.  0.
         24    2    5    5    0    0 -0.39641521475E+02  0.46954516004E+02  0.10524676535E+03  0.14583049510E+03  0.80084173746E+02 0.  0.
          5    1    5    5  501    0  0.25948147853E+02  0.83494634829E+02 -0.12736705054E+02  0.88481490029E+02  0.47000000000E+01 0. -1.
        -13    1    6    6    0    0 -0.25859932225E+02 -0.17721475025E+02  0.52899429245E+02  0.61490945563E+02  0.00000000000E+00 0.  1.
         14    1    6    6    0    0 -0.13781589250E+02  0.64675991029E+02  0.52347336109E+02  0.84339549534E+02  0.00000000000E+00 0. -1.
         -5    1    3    3    0  503  0.38579377205E+02  0.15628422900E+02 -0.81236034776E+02  0.91400214956E+02  0.47000000000E+01 0.  1.
         11    1    4    4    0    0  0.50342663430E+01 -0.10430367255E+02 -0.17799855064E+03  0.17837494339E+03  0.00000000000E+00 0. -1.
        -12    1    4    4    0    0 -0.29920269926E+02 -0.13564720648E+03 -0.34352390005E+03  0.37054562079E+03  0.00000000000E+00 0.  1.
</event>
<event>
12    1  0.1565987E-001  0.1720262E+03  0.7818608E-02  0.1176303E+00
         21   -1    0    0  501  502  0.00000000000E+00  0.00000000000E+00  0.16873732974E+03  0.16873732974E+03  0.00000000000E+00 0. -1.
         21   -1    0    0  502  503 -0.00000000000E+00 -0.00000000000E+00 -0.41379173162E+03  0.41379173162E+03  0.00000000000E+00 0. -1.
         -6    2    1    2    0  503 -0.12663701456E+02  0.27776103390E+02 -0.34493633489E+03  0.38545311460E+03  0.16929603413E+03 0.  0.
        -24    2    3    3    0    0  0.67301239654E+01  0.71464350302E+02 -0.30283659196E+03  0.32158401615E+03  0.80955729118E+02 0.  0.
          6    2    1    2  501    0  0.12663701456E+02 -0.27776103390E+02  0.99881933010E+02  0.19707594676E+03  0.16712464508E+03 0.  0.
         24    2    5    5    0    0  0.78896486459E+01 -0.33770867626E+02 -0.78106444849E+01  0.89008791590E+02  0.81601720307E+02 0.  0.
          5    1    5    5  501    0  0.47740528097E+01  0.59947642360E+01  0.10769257750E+03  0.10806715517E+03  0.47000000000E+01 0. -1.
        -11    1    6    6    0    0  0.41427472915E+02 -0.19301772231E+02  0.12277085615E+02  0.47323575040E+02  0.00000000000E+00 0.  1.
         12    1    6    6    0    0 -0.33537824269E+02 -0.14469095395E+02 -0.20087730100E+02  0.41685216550E+02  0.00000000000E+00 0. -1.
         -5    1    3    3    0  503 -0.19393825421E+02 -0.43688246911E+02 -0.42099742933E+02  0.63869098456E+02  0.47000000000E+01 0.  1.
         13    1    4    4    0    0  0.17742017489E+02  0.18773160152E+02 -0.22766973518E+03  0.22913035382E+03  0.00000000000E+00 0. -1.
        -14    1    4    4    0    0 -0.11011893524E+02  0.52691190149E+02 -0.75166856784E+02  0.92453662324E+02  0.00000000000E+00 0.  1.
</event>
<event>
12    1  0.1565987E-001  0.2047981E+03  0.7818608E-02  0.1146229E+00
         21   -1    0    0  501  502  0.00000000000E+00  0.00000000000E+00  0.20969175554E+03  0.20969175554E+03  0.00000000000E+00 0.  1.
         21   -1    0    0  502  503 -0.00000000000E+00 -0.00000000000E+00 -0.25964741486E+03  0.25964741486E+03  0.00000000000E+00 0.  1.
         -6    2    1    2    0  503  0.40094026030E+02  0.10310592886E+03  0.89694977626E+02  0.22145903312E+03  0.16958935949E+03 0.  0.
        -24    2    3    3    0    0  0.28327655661E+02 -0.71602885633E+01  0.70721600308E+02  0.10885723375E+03  0.77424975178E+02 0.  0.
          6    2    1    2  501    0 -0.40094026030E+02 -0.10310592886E+03 -0.13965063695E+03  0.24788013728E+03  0.17234818993E+03 0.  0.
         24    2    5    5    0    0 -0.29222096007E+02 -0.55022073500E+02 -0.96580519972E+00  0.10061904749E+03  0.79005698982E+02 0.  0.
          5    1    5    5  501    0 -0.10871930023E+02 -0.48083855356E+02 -0.13868483175E+03  0.14726108979E+03  0.47000000000E+01 0. -1.
        -11    1    6    6    0    0 -0.48262940704E+02 -0.54446974731E+02 -0.18123625582E+02  0.74981666473E+02  0.00000000000E+00 0.  1.
         12    1    6    6    0    0  0.19040844697E+02 -0.57509876878E+00  0.17157820382E+02  0.25637381022E+02  0.00000000000E+00 0. -1.
         -5    1    3    3    0  503  0.11766370369E+02  0.11026621742E+03  0.18973377319E+02  0.11260179937E+03  0.47000000000E+01 0.  1.
         11    1    4    4    0    0  0.57851923429E+01 -0.20574911763E+02 -0.10278156264E+02  0.23715731923E+02  0.00000000000E+00 0. -1.
        -12    1    4    4    0    0  0.22542463318E+02  0.13414623199E+02  0.80999756571E+02  0.85141501823E+02  0.00000000000E+00 0.  1.
</event>
<event>
12    1  0.1565987E-001  0.3130762E+03  0.7818608E-02  0.1078972E+00
         21   -1    0    0  503  502  0.00000000000E+00  0.00000000000E+00  0.53466083522E+03  0.53466083522E+03  0.00000000000E+00 0.  1.
         21   -1    0    0  501  503 -0.00000000000E+00 -0.00000000000E+00 -0.18324257563E+03  0.18324257563E+03  0.00000000000E+00 0. -1.
          6    2    1    2  501    0  0.11174421078E+03 -0.23630461141E+03  0.19155940793E+03  0.36637597501E+03  0.17090848509E+03 0.  0.
         24    2    3    3    0    0 -0.15309456942E+01 -0.51064759472E+02  0.90912806031E+02  0.12700828233E+03  0.72498358780E+02 0.  0.
         -6    2    1    2    0  502 -0.11174421078E+03  0.23630461141E+03  0.15985885166E+03  0.35152743584E+03  0.17230800237E+03 0.  0.
        -24    2    5    5    0    0 -0.16706581998E+02  0.12757884611E+03  0.25041898883E+02  0.15391381364E+03  0.80665317657E+02 0.  0.
          5    1    3    3  501    0  0.11327515648E+03 -0.18523985194E+03  0.10064660190E+03  0.23936769267E+03  0.47000000000E+01 0. -1.
        -11    1    4    4    0    0  0.72375997212E+01 -0.65328575474E+02  0.88276043139E+02  0.11005846362E+03  0.00000000000E+00 0.  1.
         12    1    4    4    0    0 -0.87685454154E+01  0.14263816002E+02  0.26367628917E+01  0.16949818707E+02  0.00000000000E+00 0. -1.
         -5    1    5    5    0  502 -0.95037628785E+02  0.10872576530E+03  0.13481695277E+03  0.19761362220E+03  0.47000000000E+01 0.  1.
         11    1    6    6    0    0 -0.15883510420E+02  0.88209102130E+01 -0.19888623978E+02  0.26937923527E+02  0.00000000000E+00 0. -1.
        -12    1    6    6    0    0 -0.82307157809E+00  0.11875793590E+03  0.44930522860E+02  0.12697589011E+03  0.00000000000E+00 0.  1.
</event>
<event>
12    1  0.1565987E-001  0.2571527E+03  0.7818608E-02  0.1109045E+00
         21   -1    0    0  503  502  0.00000000000E+00  0.00000000000E+00  0.75095784738E+03  0.75095784738E+03  0.00000000000E+00 0. -1.
         21   -1    0    0  501  503 -0.00000000000E+00 -0.00000000000E+00 -0.87723576873E+02  0.87723576873E+02  0.00000000000E+00 0. -1.
          6    2    1    2  501    0  0.12267864522E+03  0.14650935793E+03  0.31924712252E+03  0.40919956123E+03  0.17032473020E+03 0.  0.
         24    2    3    3    0    0  0.15478099643E+03  0.10374919565E+03  0.24629559720E+03  0.31862910535E+03  0.78370486280E+02 0.  0.
         -6    2    1    2    0  502 -0.12267864522E+03 -0.14650935793E+03  0.34398714799E+03  0.42948186303E+03  0.17208274386E+03 0.  0.
        -24    2    5    5    0    0 -0.13021299416E+03 -0.16165227664E+03  0.34652104038E+03  0.41174531850E+03  0.79815371244E+02 0.  0.
          5    1    3    3  501    0 -0.32102351215E+02  0.42760162280E+02  0.72951525321E+02  0.90570455880E+02  0.47000000000E+01 0. -1.
        -13    1    4    4    0    0  0.72574051741E+02  0.69885340199E+02  0.74889542280E+02  0.12553643815E+03  0.00000000000E+00 0.  1.
         14    1    4    4    0    0  0.82206944690E+02  0.33863855452E+02  0.17140605492E+03  0.19309266720E+03  0.00000000000E+00 0. -1.
         -5    1    5    5    0  502  0.75343489438E+01  0.15142918709E+02 -0.25338923988E+01  0.17736544526E+02  0.47000000000E+01 0.  1.
         11    1    6    6    0    0 -0.10355845811E+03 -0.10018892659E+03  0.16948637187E+03  0.22245854784E+03  0.00000000000E+00 0. -1.
        -12    1    6    6    0    0 -0.26654536054E+02 -0.61463350045E+02  0.17703466851E+03  0.18928677066E+03  0.00000000000E+00 0.  1.
</event>
<event>
12    1  0.1565987E-001  0.3506004E+03  0.7818608E-02  0.1062422E+00
         21   -1    0    0  501  502  0.00000000000E+00  0.00000000000E+00  0.39469696634E+03  0.39469696634E+03  0.00000000000E+00 0.  1.
         21   -1    0    0  502  503 -0.00000000000E+00 -0.00000000000E+00 -0.31835295800E+03  0.31835295800E+03  0.00000000000E+00 0.  1.
         -6    2    1    2    0  503  0.23685286093E+03 -0.19221012082E+03 -0.16083052323E+02  0.35096912152E+03  0.17284863728E+03 0.  0.
        -24    2    3    3    0    0  0.21246874658E+03 -0.86195974410E+02 -0.11217292561E+02  0.24197669109E+03  0.76512594384E+02 0.  0.
          6    2    1    2  501    0 -0.23685286093E+03  0.19221012082E+03  0.92427060658E+02  0.36208080282E+03  0.17180144921E+03 0.  0.
         24    2    5    5    0    0 -0.55005514991E+02  0.39015220781E+02  0.64652680062E+02  0.12264262533E+03  0.79457223559E+02 0.  0.
          5    1    5    5  501    0 -0.18184734594E+03  0.15319490004E+03  0.27774380596E+02  0.23943817750E+03  0.47000000000E+01 0. -1.
        -11    1    6    6    0    0 -0.38482037734E+02  0.54043897733E+02  0.14742981436E+02  0.67962972360E+02  0.00000000000E+00 0.  1.
         12    1    6    6    0    0 -0.16523477257E+02 -0.15028676953E+02  0.49909698625E+02  0.54679652966E+02  0.00000000000E+00 0. -1.
         -5    1    3    3    0  503  0.24384114347E+02 -0.10601414641E+03 -0.48657597621E+01  0.10899243043E+03  0.47000000000E+01 0.  1.
         13    1    4    4    0    0  0.11162872078E+03 -0.46674986601E+01  0.96793687862E+00  0.11173045130E+03  0.00000000000E+00 0. -1.
        -14    1    4    4    0    0  0.10084002581E+03 -0.81528475750E+02 -0.12185229440E+02  0.13024623979E+03  0.00000000000E+00 0.  1.
</event>
<event>
12    1  0.1565987E-001  0.1752739E+03  0.7818608E-02  0.1172494E+00
         21   -1    0    0  503  502  0.00000000000E+00  0.00000000000E+00  0.14403531691E+04  0.14403531691E+04  0.00000000000E+00 0. -1.
         21   -1    0    0  501  503 -0.00000000000E+00 -0.00000000000E+00 -0.32953471585E+02  0.32953471585E+02  0.00000000000E+00 0. -1.
          6    2    1    2  501    0 -0.29764537624E+02  0.48182856975E+01  0.26565146276E+03  0.31818328969E+03  0.17251307949E+03 0.  0.
         24    2    3    3    0    0 -0.55856294162E+02  0.63592827451E+02  0.17247875422E+03  0.20487631668E+03  0.71143595466E+02 0.  0.
         -6    2    1    2    0  502  0.29764537624E+02 -0.48182856975E+01  0.11417482348E+04  0.11551233510E+04  0.17266088402E+03 0.  0.
        -24    2    5    5    0    0  0.68445022224E+02 -0.31637968673E+02  0.99257414812E+03  0.99862902711E+03  0.79817367480E+02 0.  0.
          5    1    3    3  501    0  0.26091756538E+02 -0.58774541753E+02  0.93172708534E+02  0.11330697301E+03  0.47000000000E+01 0. -1.
        -11    1    4    4    0    0 -0.39090444552E+01 -0.15210453701E+02  0.18445525301E+02  0.24225522367E+02  0.00000000000E+00 0.  1.
         12    1    4    4    0    0 -0.51947249707E+02  0.78803281152E+02  0.15403322892E+03  0.18065079431E+03  0.00000000000E+00 0. -1.
         -5    1    5    5    0  502 -0.38680484599E+02  0.26819682976E+02  0.14917408668E+03  0.15649432392E+03  0.47000000000E+01 0.  1.
         11    1    6    6    0    0  0.36309557770E+02 -0.55310487376E+02  0.48569493049E+03  0.49018078247E+03  0.00000000000E+00 0. -1.
        -12    1    6    6    0    0  0.32135464454E+02  0.23672518702E+02  0.50687921763E+03  0.50844824464E+03  0.00000000000E+00 0.  1.
</event>
<event>
12    1  0.1565987E-001  0.2068721E+03  0.7818608E-02  0.1144165E+00
         21   -1    0    0  503  502  0.00000000000E+00  0.00000000000E+00  0.18330435373E+03  0.18330435373E+03  0.00000000000E+00 0.  1.
         21   -1    0    0  501  503 -0.00000000000E+00 -0.00000000000E+00 -0.27516559885E+03  0.27516559885E+03  0.00000000000E+00 0. -1.
          6    2    1    2  501    0 -0.11035481654E+02  0.11399569655E+03 -0.13579417555E+03  0.24745931472E+03  0.17227667758E+03 0.  0.
         24    2    3    3    0    0 -0.11593742240E+02 -0.75438748512E+00 -0.96817468501E+02  0.12617795946E+03  0.80076658813E+02 0.  0.
         -6    2    1    2    0  502  0.11035481654E+02 -0.11399569655E+03  0.43932930439E+02  0.21101063786E+03  0.17169329115E+03 0.  0.
        -24    2    5    5    0    0  0.65968407584E+02 -0.85140701708E+02 -0.76731069139E-01  0.13479267814E+03  0.81044989391E+02 0.  0.
          5    1    3    3  501    0  0.55826058570E+00  0.11475008403E+03 -0.38976707051E+02  0.12128135526E+03  0.47000000000E+01 0. -1.
        -13    1    4    4    0    0 -0.25323370909E+02  0.89262822132E+01  0.10578604011E+01  0.26871373187E+02  0.00000000000E+00 0.  1.
         14    1    4    4    0    0  0.13729628669E+02 -0.96806696983E+01 -0.97875328902E+02  0.99306586271E+02  0.00000000000E+00 0. -1.
         -5    1    5    5    0  502 -0.54932925930E+02 -0.28854994841E+02  0.44009661508E+02  0.76217959725E+02  0.47000000000E+01 0.  1.
         13    1    6    6    0    0  0.83261422302E+02 -0.82282335673E+02 -0.25774402847E+01  0.11708753309E+03  0.00000000000E+00 0. -1.
        -14    1    6    6    0    0 -0.17293014718E+02 -0.28583660356E+01  0.25007092155E+01  0.17705145044E+02  0.00000000000E+00 0.  1.
</event>
<event>
12    1  0.1565987E-001  0.1917606E+03  0.7818608E-02  0.1156943E+00
         21   -1    0    0  501  502  0.00000000000E+00  0.00000000000E+00  0.63507485507E+03  0.63507485507E+03  0.00000000000E+00 0. -1.
         21   -1    0    0  502  503 -0.00000000000E+00 -0.00000000000E+00 -0.73196607808E+02  0.73196607808E+02  0.00000000000E+00 0.  1.
         -6    2    1    2    0  503 -0.47156289528E+02  0.70644674025E+02  0.11847751683E+03  0.22518107487E+03  0.17162519884E+03 0.  0.
        -24    2    3    3    0    0 -0.65872483157E+02  0.78186052398E+02  0.14236060429E+03  0.19356367210E+03  0.82146884753E+02 0.  0.
          6    2    1    2  501    0  0.47156289528E+02 -0.70644674025E+02  0.44340073043E+03  0.48309038800E+03  0.17192361566E+03 0.  0.
         24    2    5    5    0    0  0.64505711460E+02 -0.74854217869E+02  0.19158977773E+03  0.23060361884E+03  0.81897773768E+02 0.  0.
          5    1    5    5  501    0 -0.17349421932E+02  0.42095438444E+01  0.25181095270E+03  0.25248676916E+03  0.47000000000E+01 0. -1.
        -11    1    6    6    0    0  0.31549747041E+02 -0.43314878371E+02  0.27381881491E+02  0.60177509591E+02  0.00000000000E+00 0.  1.
         12    1    6    6    0    0  0.32955964420E+02 -0.31539339498E+02  0.16420789624E+03  0.17042610925E+03  0.00000000000E+00 0. -1.
         -5    1    3    3    0  503  0.18716193629E+02 -0.75413783728E+01 -0.23883087462E+02  0.31617402778E+02  0.47000000000E+01 0.  1.
         11    1    4    4    0    0 -0.44136692785E+01  0.68250877213E+02  0.82932015064E+02  0.10749596197E+03  0.00000000000E+00 0. -1.
        -12    1    4    4    0    0 -0.61458813878E+02  0.99351751852E+01  0.59428589226E+02  0.86067710128E+02  0.00000000000E+00 0.  1.
</event>
<event>
12    1  0.1565987E-001  0.2179982E+03  0.7818608E-02  0.1135549E+00
         21   -1    0    0  501  502  0.00000000000E+00  0.00000000000E+00  0.14400205901E+03  0.14400205901E+03  0.00000000000E+00 0.  1.
         21   -1    0    0  502  503 -0.00000000000E+00 -0.00000000000E+00 -0.35911361517E+03  0.35911361517E+03  0.00000000000E+00 0.  1.
         -6    2    1    2    0  503  0.66128916763E+00  0.13206033926E+03 -0.18056958591E+03  0.28239779602E+03  0.17234491385E+03 0.  0.
        -24    2    3    3    0    0  0.17648094428E+02  0.59552842062E+02 -0.18017471056E+03  0.20777786149E+03  0.82769059227E+02 0.  0.
          6    2    1    2  501    0 -0.66128916763E+00 -0.13206033926E+03 -0.34541970257E+02  0.22071787816E+03  0.17344412219E+03 0.  0.
         24    2    5    5    0    0  0.32645072078E+02 -0.13903881105E+03  0.10607961863E+02  0.16398500287E+03  0.79881541073E+02 0.  0.
          5    1    5    5  501    0 -0.33306361246E+02  0.69784717912E+01 -0.45149932120E+02  0.56732875288E+02  0.47000000000E+01 0. -1.
        -13    1    6    6    0    0 -0.82893710758E+00 -0.18588173154E+02  0.32131693922E+02  0.37130217778E+02  0.00000000000E+00 0.  1.
         14    1    6    6    0    0  0.33474009186E+02 -0.12045063789E+03 -0.21523732059E+02  0.12685478510E+03  0.00000000000E+00 0. -1.
         -5    1    3    3    0  503 -0.16986805260E+02  0.72507497195E+02 -0.39487535178E+00  0.74619934528E+02  0.47000000000E+01 0.  1.
         13    1    4    4    0    0  0.40792098031E+02  0.22747029656E+02 -0.14346163957E+03  0.15087300834E+03  0.00000000000E+00 0. -1.
        -14    1    4    4    0    0 -0.23144003603E+02  0.36805812406E+02 -0.36713070992E+02  0.56904853144E+02  0.00000000000E+00 0.  1.
</event>
<event>
12    1  0.1565987E-001  0.2042121E+03  0.7818608E-02  0.1146312E+00
         21   -1    0    0  503  502  0.00000000000E+00  0.00000000000E+00  0.11049872789E+03  0.11049872789E+03  0.00000000000E+00 0.  1.
         21   -1    0    0  501  503 -0.00000000000E+00 -0.00000000000E+00 -0.42522776932E+03  0.42522776932E+03  0.00000000000E+00 0.  1.
          6    2    1    2  501    0  0.59618537401E+02  0.92777404283E+02 -0.24799052459E+03  0.32125046810E+03  0.17187363447E+03 0.  0.
         24    2    3    3    0    0  0.40011883548E+02  0.12309293653E+03 -0.23875910667E+03  0.28369036363E+03  0.81984690960E+02 0.  0.
         -6    2    1    2    0  502 -0.59618537401E+02 -0.92777404283E+02 -0.66738516846E+02  0.21447602911E+03  0.17141738735E+03 0.  0.
        -24    2    5    5    0    0 -0.61939037853E+02  0.76493087935E+01 -0.14343606560E+02  0.10108191090E+03  0.78210340276E+02 0.  0.
          5    1    3    3  501    0  0.19606653854E+02 -0.30315532252E+02 -0.92314179174E+01  0.37560104470E+02  0.47000000000E+01 0. -1.
        -11    1    4    4    0    0  0.63510664236E+02  0.68854242952E+02 -0.15658700930E+03  0.18246644274E+03  0.00000000000E+00 0.  1.
         12    1    4    4    0    0 -0.23498780689E+02  0.54238693583E+02 -0.82172097364E+02  0.10122392089E+03  0.00000000000E+00 0. -1.
         -5    1    5    5    0  502  0.23205004518E+01 -0.10042671308E+03 -0.52394910286E+02  0.11339411821E+03  0.47000000000E+01 0.  1.
         13    1    6    6    0    0 -0.17861032564E+01  0.31353436578E+02 -0.18226931513E+02  0.36310455553E+02  0.00000000000E+00 0. -1.
        -14    1    6    6    0    0 -0.60152934597E+02 -0.23704127785E+02  0.38833249527E+01  0.64771455343E+02  0.00000000000E+00 0.  1.
</event>
<event>
12    1  0.1565987E-001  0.2068496E+03  0.7818608E-02  0.1144355E+00
         21   -1    0    0  503  502  0.00000000000E+00  0.00000000000E+00  0.11244848461E+04  0.11244848461E+04  0.00000000000E+00 0. -1.
         21   -1    0    0  501  503 -0.00000000000E+00 -0.00000000000E+00 -0.59750375160E+02  0.59750375160E+02  0.00000000000E+00 0. -1.
          6    2    1    2  501    0  0.11209292408E+03  0.16665988529E+02  0.17461272670E+03  0.27069610309E+03  0.17304391669E+03 0.  0.
         24    2    3    3    0    0  0.20853710137E+02  0.55682530052E+02  0.12511749472E+03  0.15970622670E+03  0.79474964496E+02 0.  0.
         -6    2    1    2    0  502 -0.11209292408E+03 -0.16665988529E+02  0.89012174423E+03  0.91353911815E+03  0.17144801557E+03 0.  0.
        -24    2    5    5    0    0 -0.41846070564E+02 -0.66187521446E+02  0.60905953071E+03  0.61959174102E+03  0.82513829038E+02 0.  0.
          5    1    3    3  501    0  0.91239213946E+02 -0.39016541523E+02  0.49495231981E+02  0.11098987640E+03  0.47000000000E+01 0. -1.
        -11    1    4    4    0    0  0.15418012215E+01 -0.16244491016E+02  0.55176608293E+02  0.57538845505E+02  0.00000000000E+00 0.  1.
         12    1    4    4    0    0  0.19311908915E+02  0.71927021068E+02  0.69940886425E+02  0.10216738119E+03  0.00000000000E+00 0. -1.
         -5    1    5    5    0  502 -0.70246853519E+02  0.49521532917E+02  0.28106221352E+03  0.29394737713E+03  0.47000000000E+01 0.  1.
         13    1    6    6    0    0 -0.36799184141E+02 -0.45207116276E+02  0.58232409922E+03  0.58523432901E+03  0.00000000000E+00 0. -1.
        -14    1    6    6    0    0 -0.50468864229E+01 -0.20980405170E+02  0.26735431485E+02  0.34357412015E+02  0.00000000000E+00 0.  1.
</event>
<event>
12    1  0.1565987E-001  0.1903422E+03  0.7818608E-02  0.1158669E+00
         21   -1    0    0  503  502  0.00000000000E+00  0.00000000000E+00  0.18211390397E+03  0.18211390397E+03  0.00000000000E+00 0. -1.
         21   -1    0    0  501  503 -0.00000000000E+00 -0.00000000000E+00 -0.29788755253E+03  0.29788755253E+03  0.00000000000E+00 0. -1.
          6    2    1    2  501    0 -0.48429189966E+02  0.57661575201E+02 -0.19808610037E+03  0.27471483829E+03  0.17481388824E+03 0.  0.
         24    2    3    3    0    0 -0.64741492934E+02 -0.24925703629E+02 -0.98525795644E+02  0.14424992297E+03  0.79296634614E+02 0.  0.
         -6    2    1    2    0  502  0.48429189966E+02 -0.57661575201E+02  0.82312451813E+02  0.20528661820E+03  0.17232821067E+03 0.  0.
        -24    2    5    5    0    0  0.23729092399E+02 -0.10238089065E+03  0.78521010294E+02  0.15384366900E+03  0.80358004182E+02 0.  0.
          5    1    3    3  501    0  0.16312302968E+02  0.82587278830E+02 -0.99560304728E+02  0.13046491532E+03  0.47000000000E+01 0. -1.
        -13    1    4    4    0    0 -0.30281153359E+02 -0.13434903443E+02 -0.10248779789E+03  0.10770883713E+03  0.00000000000E+00 0.  1.
         14    1    4    4    0    0 -0.34460339575E+02 -0.11490800186E+02  0.39620022485E+01  0.36541085840E+02  0.00000000000E+00 0. -1.
         -5    1    5    5    0  502  0.24700097567E+02  0.44719315449E+02  0.37914415192E+01  0.51442949205E+02  0.47000000000E+01 0.  1.
         13    1    6    6    0    0 -0.27555827763E+02 -0.36731896238E+02  0.12616774503E+02  0.47620781638E+02  0.00000000000E+00 0. -1.
        -14    1    6    6    0    0  0.51284920162E+02 -0.65648994412E+02  0.65904235791E+02  0.10622288736E+03  0.00000000000E+00 0.  1.
</event>
<event>
12    1  0.1565987E-001  0.2728205E+03  0.7818608E-02  0.1099859E+00
         21   -1    0    0  503  502  0.00000000000E+00  0.00000000000E+00  0.25566377848E+03  0.25566377848E+03  0.00000000000E+00 0. -1.
         21   -1    0    0  501  503 -0.00000000000E+00 -0.00000000000E+00 -0.29002197663E+03  0.29002197663E+03  0.00000000000E+00 0.  1.
          6    2    1    2  501    0  0.20827647023E+03 -0.28402081163E+02 -0.25448750963E+02  0.27271986679E+03  0.17187995970E+03 0.  0.
         24    2    3    3    0    0  0.20822217612E+03 -0.66330441408E+02 -0.22952297051E+02  0.23441992239E+03  0.81668169968E+02 0.  0.
         -6    2    1    2    0  502 -0.20827647023E+03  0.28402081163E+02 -0.89094471877E+01  0.27296588833E+03  0.17391156280E+03 0.  0.
        -24    2    5    5    0    0 -0.91295880734E+02  0.73704361624E+02  0.24830977089E+02  0.14297642274E+03  0.77835784017E+02 0.  0.
          5    1    3    3  501    0  0.54294112338E-01  0.37928360245E+02 -0.24964539116E+01  0.38299944397E+02  0.47000000000E+01 0. -1.
        -13    1    4    4    0    0  0.17340544427E+03 -0.63987211361E+02 -0.48594932124E+02  0.19111587780E+03  0.00000000000E+00 0.  1.
         14    1    4    4    0    0  0.34816731854E+02 -0.23432300463E+01  0.25642635073E+02  0.43304044586E+02  0.00000000000E+00 0. -1.
         -5    1    5    5    0  502 -0.11698058950E+03 -0.45302280461E+02 -0.33740424277E+02  0.12998946559E+03  0.47000000000E+01 0.  1.
         13    1    6    6    0    0 -0.30892971929E+02  0.65045109743E+02 -0.10023932379E+02  0.72702965802E+02  0.00000000000E+00 0. -1.
        -14    1    6    6    0    0 -0.60402908805E+02  0.86592518813E+01  0.34854909468E+02  0.70273456933E+02  0.00000000000E+00 0.  1.
</event>
<event>
12    1  0.1565987E-001  0.1986239E+03  0.7818608E-02  0.1151232E+00
         21   -1    0    0  503  502  0.00000000000E+00  0.00000000000E+00  0.14880858018E+03  0.14880858018E+03  0.00000000000E+00 0. -1.
         21   -1    0    0  501  503 -0.00000000000E+00 -0.00000000000E+00 -0.30590456860E+03  0.30590456860E+03  0.00000000000E+00 0.  1.
          6    2    1    2  501    0  0.94498140070E+02  0.23287601662E+02 -0.16335439525E+03  0.25599069460E+03  0.17138951662E+03 0.  0.
         24    2    3    3    0    0  0.12691459353E+03  0.41726432195E+02 -0.11157357125E+03  0.19200506605E+03  0.81048592784E+02 0.  0.
         -6    2    1    2    0  502 -0.94498140070E+02 -0.23287601662E+02  0.62584068330E+01  0.19872245417E+03  0.17314512776E+03 0.  0.
        -24    2    5    5    0    0 -0.68018565276E+01 -0.68991458963E+02 -0.22888559665E+01  0.99351299298E+02  0.71129144156E+02 0.  0.
          5    1    3    3  501    0 -0.32416453463E+02 -0.18438830533E+02 -0.51780824001E+02  0.63985628548E+02  0.47000000000E+01 0. -1.
        -13    1    4    4    0    0  0.12505897498E+02  0.40883452203E+01 -0.59243759159E+02  0.60687190067E+02  0.00000000000E+00 0.  1.
         14    1    4    4    0    0  0.11440869604E+03  0.37638086974E+02 -0.52329812092E+02  0.13131787598E+03  0.00000000000E+00 0. -1.
         -5    1    5    5    0  502 -0.87696283543E+02  0.45703857302E+02  0.85472627995E+01  0.99371154873E+02  0.47000000000E+01 0.  1.
         13    1    6    6    0    0 -0.11985866403E+01 -0.24775028644E+02  0.33854131940E+02  0.41968332152E+02  0.00000000000E+00 0. -1.
        -14    1    6    6    0    0 -0.56032698873E+01 -0.44216430320E+02 -0.36142987906E+02  0.57382967146E+02  0.00000000000E+00 0.  1.
</event>
<event>
12    1  0.1565987E-001  0.1993195E+03  0.7818608E-02  0.1151202E+00
         21   -1    0    0  503  502  0.00000000000E+00  0.00000000000E+00  0.67703778064E+03  0.67703778064E+03  0.00000000000E+00 0. -1.
         21   -1    0    0  501  503 -0.00000000000E+00 -0.00000000000E+00 -0.87637310746E+02  0.87637310746E+02  0.00000000000E+00 0. -1.
          6    2    1    2  501    0 -0.88986444415E+02  0.49337238900E+02  0.68341705677E+02  0.20679472975E+03  0.16655545949E+03 0.  0.
         24    2    3    3    0    0 -0.15404761288E+02  0.74655882672E+02  0.64055330892E+02  0.12871937625E+03  0.81576865101E+02 0.  0.
         -6    2    1    2    0  502  0.88986444415E+02 -0.49337238900E+02  0.52105876421E+03  0.55788036163E+03  0.17139285779E+03 0.  0.
        -24    2    5    5    0    0  0.87338240906E+02 -0.52571390527E+02  0.53067875813E+03  0.54657502685E+03  0.82052399213E+02 0.  0.
          5    1    3    3  501    0 -0.73581683127E+02 -0.25318643772E+02  0.42863747851E+01  0.78075353493E+02  0.47000000000E+01 0. -1.
        -13    1    4    4    0    0  0.28742515487E+02  0.73866153786E+01  0.82591054809E+01  0.30804335841E+02  0.00000000000E+00 0.  1.
         14    1    4    4    0    0 -0.44147276776E+02  0.67269267294E+02  0.55796225411E+02  0.97915040413E+02  0.00000000000E+00 0. -1.
         -5    1    5    5    0  502  0.16482035096E+01  0.32341516267E+01 -0.96199939198E+01  0.11305334784E+02  0.47000000000E+01 0.  1.
         13    1    6    6    0    0  0.73998416768E+02 -0.77291867856E+01  0.41800008761E+03  0.42456987559E+03  0.00000000000E+00 0. -1.
        -14    1    6    6    0    0  0.13339824137E+02 -0.44842203741E+02  0.11267867052E+03  0.12200515126E+03  0.00000000000E+00 0.  1.
</event>
<event>
12    1  0.1565987E-001  0.2924877E+03  0.7818608E-02  0.1089306E+00
         21   -1    0    0  503  502  0.00000000000E+00  0.00000000000E+00  0.61399592411E+02  0.61399592411E+02  0.00000000000E+00 0. -1.
         21   -1    0    0  501  503 -0.00000000000E+00 -0.00000000000E+00 -0.15793762860E+04  0.15793762860E+04  0.00000000000E+00 0.  1.
          6    2    1    2  501    0 -0.23451676295E+03  0.19388919278E+00 -0.47278029562E+03  0.55594087377E+03  0.17478815035E+03 0.  0.
         24    2    3    3    0    0 -0.20929168144E+03 -0.31616726791E+02 -0.46165484074E+03  0.51358422408E+03  0.76426029006E+02 0.  0.
         -6    2    1    2    0  502  0.23451676295E+03 -0.19388919278E+00 -0.10451963979E+04  0.10848350046E+04  0.17156143876E+03 0.  0.
        -24    2    5    5    0    0  0.14548274566E+03 -0.57065243867E+02 -0.51178890170E+03  0.54104547339E+03  0.79878989950E+02 0.  0.
          5    1    3    3  501    0 -0.25225081515E+02  0.31810615984E+02 -0.11125454877E+02  0.42356649690E+02  0.47000000000E+01 0. -1.
        -11    1    4    4    0    0 -0.17135789291E+03  0.33785231662E+01 -0.32337197929E+03  0.36598412380E+03  0.00000000000E+00 0.  1.
         12    1    4    4    0    0 -0.37933788525E+02 -0.34995249957E+02 -0.13828286145E+03  0.14760010028E+03  0.00000000000E+00 0. -1.
         -5    1    5    5    0  502  0.89034017292E+02  0.56871354674E+02 -0.53340749622E+03  0.54378953120E+03  0.47000000000E+01 0.  1.
         11    1    6    6    0    0  0.10775626861E+03 -0.39529995748E+02 -0.46258078811E+03  0.47660782570E+03  0.00000000000E+00 0. -1.
        -12    1    6    6    0    0  0.37726477054E+02 -0.17535248118E+02 -0.49208113583E+02  0.64437647691E+02  0.00000000000E+00 0.  1.
</event>
<event>
12    1  0.1565987E-001  0.2192428E+03  0.7818608E-02  0.1134504E+00
         21   -1    0    0  503  502  0.00000000000E+00  0.00000000000E+00  0.25987982667E+03  0.25987982667E+03  0.00000000000E+00 0.  1.
         21   -1    0    0  501  503 -0.00000000000E+00 -0.00000000000E+00 -0.18967887765E+03  0.18967887765E+03  0.00000000000E+00 0.  1.
          6    2    1    2  501    0  0.74342348452E+01 -0.13536983345E+03 -0.12561156048E+01  0.21924635712E+03  0.17229952881E+03 0.  0.
         24    2    3    3    0    0  0.65787926562E+02 -0.80424385333E+02  0.26035748418E+02  0.13444605378E+03  0.81251142413E+02 0.  0.
         -6    2    1    2    0  502 -0.74342348452E+01  0.13536983345E+03  0.71457064626E+02  0.23031234719E+03  0.17192267311E+03 0.  0.
        -24    2    5    5    0    0  0.23410693510E+02  0.15383281896E+03  0.79786440033E+02  0.19311342336E+03  0.81940963558E+02 0.  0.
          5    1    3    3  501    0 -0.58353691717E+02 -0.54945448114E+02 -0.27291864023E+02  0.84800303344E+02  0.47000000000E+01 0. -1.
        -13    1    4    4    0    0 -0.33880316751E+01  0.10157930143E+02 -0.10260595537E+02  0.14830445853E+02  0.00000000000E+00 0.  1.
         14    1    4    4    0    0  0.69175958237E+02 -0.90582315476E+02  0.36296343955E+02  0.11961560793E+03  0.00000000000E+00 0. -1.
         -5    1    5    5    0  502 -0.30844928356E+02 -0.18462985514E+02 -0.83293754079E+01  0.37198923829E+02  0.47000000000E+01 0.  1.
         11    1    6    6    0    0  0.26730602365E+02  0.19825065440E+02 -0.62053970490E+01  0.33853585852E+02  0.00000000000E+00 0. -1.
        -12    1    6    6    0    0 -0.33199088545E+01  0.13400775352E+03  0.85991837082E+02  0.15925983751E+03  0.00000000000E+00 0.  1.
</event>
<event>
12    1  0.1565987E-001  0.2729428E+03  0.7818608E-02  0.1100345E+00
         21   -1    0    0  503  502  0.00000000000E+00  0.00000000000E+00  0.50174427829E+03  0.50174427829E+03  0.00000000000E+00 0. -1.
         21   -1    0    0  501  503 -0.00000000000E+00 -0.00000000000E+00 -0.17283132473E+03  0.17283132473E+03  0.00000000000E+00 0. -1.
          6    2    1    2  501    0 -0.16770236373E+03  0.13255448830E+03  0.29438172580E+02  0.26938071116E+03  0.16125937607E+03 0.  0.
         24    2    3    3    0    0 -0.11167326006E+03  0.11834803596E+03 -0.32976519143E+02  0.18418231041E+03  0.79740190788E+02 0.  0.
         -6    2    1    2    0  502  0.16770236373E+03 -0.13255448830E+03  0.29947478098E+03  0.40519489186E+03  0.16971440945E+03 0.  0.
        -24    2    5    5    0    0  0.13501801168E+03 -0.39535471409E+02  0.24068860145E+03  0.29030925622E+03  0.80966316457E+02 0.  0.
          5    1    3    3  501    0 -0.56029103676E+02  0.14206452338E+02  0.62414691723E+02  0.85198400746E+02  0.47000000000E+01 0. -1.
        -11    1    4    4    0    0 -0.41169987300E+02  0.93394373711E+02 -0.38741723428E+02  0.10917141581E+03  0.00000000000E+00 0.  1.
         12    1    4    4    0    0 -0.70503272758E+02  0.24953662249E+02  0.57652042848E+01  0.75010894606E+02  0.00000000000E+00 0. -1.
         -5    1    5    5    0  502  0.32684352050E+02 -0.93019016890E+02  0.58786179525E+02  0.11488563563E+03  0.47000000000E+01 0.  1.
         11    1    6    6    0    0  0.79670385970E+02  0.94513872075E+00  0.68879411826E+02  0.10532158877E+03  0.00000000000E+00 0. -1.
        -12    1    6    6    0    0  0.55347625713E+02 -0.40480610130E+02  0.17180918963E+03  0.18498766745E+03  0.00000000000E+00 0.  1.
</event>
<event>
12    1  0.1565987E-001  0.1910166E+03  0.7818608E-02  0.1157631E+00
         21   -1    0    0  503  502  0.00000000000E+00  0.00000000000E+00  0.21109552395E+04  0.21109552395E+04  0.00000000000E+00 0. -1.
         21   -1    0    0  501  503 -0.00000000000E+00 -0.00000000000E+00 -0.25627175477E+02  0.25627175477E+02  0.00000000000E+00 0. -1.
          6    2    1    2  501    0  0.79901842257E+02 -0.23516520199E+02  0.43260545367E+03  0.47290041521E+03  0.17190111415E+03 0.  0.
         24    2    3    3    0    0 -0.24077042584E+02 -0.77033061824E+01  0.23953242554E+03  0.25298918217E+03  0.77386681673E+02 0.  0.
         -6    2    1    2    0  502 -0.79901842257E+02  0.23516520199E+02  0.16527226103E+04  0.16636819998E+04  0.17148888724E+03 0.  0.
        -24    2    5    5    0    0  0.39265556664E+00 -0.37494381587E+02  0.87532719326E+03  0.87975900543E+03  0.79826246041E+02 0.  0.
          5    1    3    3  501    0  0.10397888484E+03 -0.15813214016E+02  0.19307302812E+03  0.21991123304E+03  0.47000000000E+01 0. -1.
        -13    1    4    4    0    0 -0.10671833487E+02 -0.38314927369E+02  0.18339105011E+03  0.18765446690E+03  0.00000000000E+00 0.  1.
         14    1    4    4    0    0 -0.13405209097E+02  0.30611621186E+02  0.56141375437E+02  0.65334715264E+02  0.00000000000E+00 0. -1.
         -5    1    5    5    0  502 -0.80294497823E+02  0.61010901786E+02  0.77739541709E+03  0.78392299432E+03  0.47000000000E+01 0.  1.
         13    1    6    6    0    0 -0.23380429128E+02 -0.39675061028E+02  0.78438249624E+03  0.78573319603E+03  0.00000000000E+00 0. -1.
        -14    1    6    6    0    0  0.23773084694E+02  0.21806794407E+01  0.90944697018E+02  0.94025809405E+02  0.00000000000E+00 0.  1.
</event>
<event>
12    1  0.1565987E-001  0.2205686E+03  0.7818608E-02  0.1133728E+00
         21   -1    0    0  501  502  0.00000000000E+00  0.00000000000E+00  0.87310153224E+02  0.87310153224E+02  0.00000000000E+00 0.  1.
         21   -1    0    0  502  503 -0.00000000000E+00 -0.00000000000E+00 -0.55374004988E+03  0.55374004988E+03  0.00000000000E+00 0.  1.
         -6    2    1    2    0  503  0.88536025106E+02  0.10620508706E+03 -0.22711171254E+03  0.31559101490E+03  0.16999944251E+03 0.  0.
        -24    2    3    3    0    0  0.39810816676E+02  0.25059101738E+02 -0.19455630711E+03  0.21538741570E+03  0.79540697140E+02 0.  0.
          6    2    1    2  501    0 -0.88536025106E+02 -0.10620508706E+03 -0.23931818411E+03  0.32545918820E+03  0.17184976485E+03 0.  0.
         24    2    5    5    0    0 -0.12543900946E+03 -0.10526361493E+03 -0.21158741212E+03  0.27905011216E+03  0.79273945305E+02 0.  0.
          5    1    5    5  501    0  0.36902984353E+02 -0.94147213023E+00 -0.27730771992E+02  0.46409076043E+02  0.47000000000E+01 0. -1.
        -11    1    6    6    0    0 -0.66436044654E+02 -0.57347171704E+02 -0.51307469035E+02  0.10166072256E+03  0.00000000000E+00 0.  1.
         12    1    6    6    0    0 -0.59002964804E+02 -0.47916443226E+02 -0.16027994309E+03  0.17738938960E+03  0.00000000000E+00 0. -1.
         -5    1    3    3    0  503  0.48725208429E+02  0.81145985322E+02 -0.32555405433E+02  0.10020359920E+03  0.47000000000E+01 0.  1.
         13    1    4    4    0    0 -0.23806735504E+02  0.13862741146E+02 -0.65869432918E+02  0.71398308386E+02  0.00000000000E+00 0. -1.
        -14    1    4    4    0    0  0.63617552181E+02  0.11196360592E+02 -0.12868687419E+03  0.14398910731E+03  0.00000000000E+00 0.  1.
</event>
<event>
12    1  0.1565987E-001  0.2047407E+03  0.7818608E-02  0.1146044E+00
         21   -1    0    0  501  502  0.00000000000E+00  0.00000000000E+00  0.41683805106E+03  0.41683805106E+03  0.00000000000E+00 0. -1.
         21   -1    0    0  502  503 -0.00000000000E+00 -0.00000000000E+00 -0.42547020673E+03  0.42547020673E+03  0.00000000000E+00 0. -1.
         -6    2    1    2    0  503  0.61195460856E+02  0.91939168703E+02 -0.37268162356E+03  0.42521800934E+03  0.17239799233E+03 0.  0.
        -24    2    3    3    0    0 -0.23813784653E+02  0.76253627216E+02 -0.16717800286E+03  0.20222375795E+03  0.81020069337E+02 0.  0.
          6    2    1    2  501    0 -0.61195460856E+02 -0.91939168703E+02  0.36404946788E+03  0.41709024846E+03  0.17098118352E+03 0.  0.
         24    2    5    5    0    0  0.10324604341E+01 -0.51646721883E+02  0.31081943212E+03  0.32570467976E+03  0.82500722277E+02 0.  0.
          5    1    5    5  501    0 -0.62227921290E+02 -0.40292446820E+02  0.53230035765E+02  0.91385568698E+02  0.47000000000E+01 0. -1.
        -13    1    6    6    0    0  0.26305824102E+02  0.11315046255E+02  0.73617276643E+02  0.78990696122E+02  0.00000000000E+00 0.  1.
         14    1    6    6    0    0 -0.25273363668E+02 -0.62961768138E+02  0.23720215548E+03  0.24671398364E+03  0.00000000000E+00 0. -1.
         -5    1    3    3    0  503  0.85009245509E+02  0.15685541488E+02 -0.20550362070E+03  0.22299425139E+03  0.47000000000E+01 0.  1.
         11    1    4    4    0    0 -0.78707720930E+01  0.35891782489E+02 -0.15179877144E+03  0.15618270107E+03  0.00000000000E+00 0. -1.
        -12    1    4    4    0    0 -0.15943012560E+02  0.40361844727E+02 -0.15379231421E+02  0.46041056877E+02  0.00000000000E+00 0.  1.
</event>
<event>
12    1  0.1565987E-001  0.2059128E+03  0.7818608E-02  0.1145237E+00
         21   -1    0    0  501  502  0.00000000000E+00  0.00000000000E+00  0.10532899859E+04  0.10532899859E+04  0.00000000000E+00 0. -1.
         21   -1    0    0  502  503 -0.00000000000E+00 -0.00000000000E+00 -0.90988730305E+02  0.90988730305E+02  0.00000000000E+00 0. -1.
         -6    2    1    2    0  503 -0.13902800999E+02  0.12030956720E+03  0.51360891315E+02  0.21035557321E+03  0.16414580770E+03 0.  0.
        -24    2    3    3    0    0  0.70627586006E+01  0.31181922109E+02 -0.26353891869E+02  0.90168347037E+02  0.80085007119E+02 0.  0.
          6    2    1    2  501    0  0.13902800999E+02 -0.12030956720E+03  0.91094036430E+03  0.93392314302E+03  0.16653050747E+03 0.  0.
         24    2    5    5    0    0  0.84260183176E+01 -0.95844884290E+02  0.89540684072E+03  0.90405851154E+03  0.79442697913E+02 0.  0.
          5    1    5    5  501    0  0.54767826818E+01 -0.24464682911E+02  0.15533523580E+02  0.29864631478E+02  0.47000000000E+01 0. -1.
        -13    1    6    6    0    0 -0.19637204568E+02 -0.81266630118E+02  0.46233037415E+03  0.46982896871E+03  0.00000000000E+00 0.  1.
         14    1    6    6    0    0  0.28063222885E+02 -0.14578254172E+02  0.43307646657E+03  0.43422954283E+03  0.00000000000E+00 0. -1.
         -5    1    3    3    0  503 -0.20965559600E+02  0.89127645093E+02  0.77714783184E+02  0.12018722617E+03  0.47000000000E+01 0.  1.
         13    1    4    4    0    0 -0.49939719171E+01  0.24164010119E+02  0.26084512866E+02  0.35906001615E+02  0.00000000000E+00 0. -1.
        -14    1    4    4    0    0  0.12056730518E+02  0.70179119893E+01 -0.52438404735E+02  0.54262345421E+02  0.00000000000E+00 0.  1.
</event>
<event>
12    1  0.1565987E-001  0.2400911E+03  0.7818608E-02  0.1119735E+00
         21   -1    0    0  501  502  0.00000000000E+00  0.00000000000E+00  0.13902829380E+03  0.13902829380E+03  0.00000000000E+00 0.  1.
         21   -1    0    0  502  503 -0.00000000000E+00 -0.00000000000E+00 -0.42946693786E+03  0.42946693786E+03  0.00000000000E+00 0.  1.
         -6    2    1    2    0  503 -0.52155806347E+02 -0.15881524300E+03 -0.92316154685E+02  0.25722752939E+03  0.17234041869E+03 0.  0.
        -24    2    3    3    0    0 -0.56478770494E+02 -0.23104469622E+02 -0.63421254941E+02  0.11832789922E+03  0.79092149563E+02 0.  0.
          6    2    1    2  501    0  0.52155806347E+02  0.15881524300E+03 -0.19812248937E+03  0.31126770227E+03  0.17231526960E+03 0.  0.
         24    2    5    5    0    0  0.37353068253E+02  0.96127215942E+02 -0.20826359986E+03  0.24589307483E+03  0.80336690683E+02 0.  0.
          5    1    5    5  501    0  0.14802738095E+02  0.62688027057E+02  0.10141110487E+02  0.65374627443E+02  0.47000000000E+01 0. -1.
        -11    1    6    6    0    0  0.62468417808E+02  0.70552758752E+02 -0.13946202433E+03  0.16831414445E+03  0.00000000000E+00 0.  1.
         12    1    6    6    0    0 -0.25115349555E+02  0.25574457190E+02 -0.68801575529E+02  0.77578930381E+02  0.00000000000E+00 0. -1.
         -5    1    3    3    0  503  0.43229641462E+01 -0.13571077338E+03 -0.28894899744E+02  0.13889963017E+03  0.47000000000E+01 0.  1.
         13    1    4    4    0    0 -0.79028061036E+01 -0.65596472385E+01 -0.66146747770E+02  0.66939342368E+02  0.00000000000E+00 0. -1.
        -14    1    4    4    0    0 -0.48575964390E+02 -0.16544822383E+02  0.27254928286E+01  0.51388556851E+02  0.00000000000E+00 0.  1.
</event>
<event>
12    1  0.1565987E-001  0.2130947E+03  0.7818608E-02  0.1139325E+00
         21   -1    0    0  501  502  0.00000000000E+00  0.00000000000E+00  0.57302290040E+03  0.57302290040E+03  0.00000000000E+00 0. -1.
         21   -1    0    0  502  503 -0.00000000000E+00 -0.00000000000E+00 -0.11656525681E+03  0.11656525681E+03  0.00000000000E+00 0. -1.
         -6    2    1    2    0  503  0.12066155160E+03  0.29627308661E+02  0.42390259881E+03  0.47402099800E+03  0.17194622943E+03 0.  0.
        -24    2    3    3    0    0  0.10022597211E+03  0.23259089514E+02  0.14724443064E+03  0.19649622589E+03  0.79646805975E+02 0.  0.
          6    2    1    2  501    0 -0.12066155160E+03 -0.29627308661E+02  0.32555044788E+02  0.21556715921E+03  0.17312533534E+03 0.  0.
         24    2    5    5    0    0 -0.59854521201E+02  0.26199580119E+02 -0.34963978940E+02  0.10881958302E+03  0.79688393883E+02 0.  0.
          5    1    5    5  501    0 -0.60807030403E+02 -0.55826888780E+02  0.67519023728E+02  0.10674757619E+03  0.47000000000E+01 0. -1.
        -13    1    6    6    0    0 -0.32923103130E+02  0.30858357593E+02  0.18504364511E+02  0.48770692624E+02  0.00000000000E+00 0.  1.
         14    1    6    6    0    0 -0.26931418070E+02 -0.46587774735E+01 -0.53468343451E+02  0.60048890400E+02  0.00000000000E+00 0. -1.
         -5    1    3    3    0  503  0.20435579492E+02  0.63682191471E+01  0.27665816817E+03  0.27752477211E+03  0.47000000000E+01 0.  1.
         13    1    4    4    0    0  0.64089546807E+02 -0.15251054490E+02  0.12042380693E+03  0.13726601163E+03  0.00000000000E+00 0. -1.
        -14    1    4    4    0    0  0.36136425305E+02  0.38510144004E+02  0.26820623716E+02  0.59230214262E+02  0.00000000000E+00 0.  1.
</event>
<event>
12    1  0.1565987E-001  0.2334245E+03  0.7818608E-02  0.1126757E+00
         21   -1    0    0  503  502  0.00000000000E+00  0.00000000000E+00  0.17578011554E+03  0.17578011554E+03  0.00000000000E+00 0. -1.
         21   -1    0    0  501  503 -0.00000000000E+00 -0.00000000000E+00 -0.35354087461E+03  0.35354087461E+03  0.00000000000E+00 0.  1.
          6    2    1    2  501    0  0.13880309100E+03  0.74191011363E+02 -0.19733096204E+03  0.29507759443E+03  0.15284199003E+03 0.  0.
         24    2    3    3    0    0  0.93512873788E+02  0.10143830558E+03 -0.17799183511E+03  0.23860007104E+03  0.78832183341E+02 0.  0.
         -6    2    1    2    0  502 -0.13880309100E+03 -0.74191011363E+02  0.19570202970E+02  0.23424339572E+03  0.17238437097E+03 0.  0.
        -24    2    5    5    0    0 -0.23737629823E+01 -0.53942418501E+02  0.12272816225E+02  0.96046764393E+02  0.78478912250E+02 0.  0.
          5    1    3    3  501    0  0.45290217214E+02 -0.27247294219E+02 -0.19339126923E+02  0.56477523385E+02  0.47000000000E+01 0. -1.
        -11    1    4    4    0    0  0.63466285410E+01  0.63445833873E+02 -0.74402311524E+02  0.97986516877E+02  0.00000000000E+00 0.  1.
         12    1    4    4    0    0  0.87166245247E+02  0.37992471709E+02 -0.10358952359E+03  0.14061355416E+03  0.00000000000E+00 0. -1.
         -5    1    5    5    0  502 -0.13642932802E+03 -0.20248592862E+02  0.72973867449E+01  0.13819663133E+03  0.47000000000E+01 0.  1.
         13    1    6    6    0    0  0.23387193745E+02  0.91567759350E+00  0.24864043281E+02  0.34147034205E+02  0.00000000000E+00 0. -1.
        -14    1    6    6    0    0 -0.25760956728E+02 -0.54858096094E+02 -0.12591227055E+02  0.61899730188E+02  0.00000000000E+00 0.  1.
</event>
<event>
12    1  0.1565987E-001  0.1925247E+03  0.7818608E-02  0.1156604E+00
         21   -1    0    0  501  502  0.00000000000E+00  0.00000000000E+00  0.15447565451E+03  0.15447565451E+03  0.00000000000E+00 0.  1.
         21   -1    0    0  502  503 -0.00000000000E+00 -0.00000000000E+00 -0.23776349071E+03  0.23776349071E+03  0.00000000000E+00 0. -1.
         -6    2    1    2    0  503  0.82268376317E+02  0.23340119443E+02 -0.44384322586E+02  0.19582318940E+03  0.17048139634E+03 0.  0.
        -24    2    3    3    0    0  0.12012765954E+03  0.42946739331E+01 -0.16954664756E+02  0.14512279049E+03  0.79523989170E+02 0.  0.
          6    2    1    2  501    0 -0.82268376317E+02 -0.23340119443E+02 -0.38903513616E+02  0.19641595582E+03  0.17249028208E+03 0.  0.
         24    2    5    5    0    0 -0.97081081382E+02  0.24573789786E+02  0.87622034382E+01  0.12706705885E+03  0.77721642609E+02 0.  0.
          5    1    5    5  501    0  0.14812705064E+02 -0.47913909229E+02 -0.47665717055E+02  0.69348896972E+02  0.47000000000E+01 0. -1.
        -13    1    6    6    0    0 -0.97470615259E+02 -0.43402942397E+01  0.10300740747E+02  0.98109450376E+02  0.00000000000E+00 0.  1.
         14    1    6    6    0    0  0.38953387781E+00  0.28914084025E+02 -0.15385373086E+01  0.28957608477E+02  0.00000000000E+00 0. -1.
         -5    1    3    3    0  503 -0.37859283220E+02  0.19045445510E+02 -0.27429657829E+02  0.50700398906E+02  0.47000000000E+01 0.  1.
         13    1    4    4    0    0 -0.29907389572E+01 -0.42048528788E+01 -0.21020345998E+02  0.21644404661E+02  0.00000000000E+00 0. -1.
        -14    1    4    4    0    0  0.12311839849E+03  0.84995268120E+01  0.40656812418E+01  0.12347838583E+03  0.00000000000E+00 0.  1.
</event>
<event>
12    1  0.1565987E-001  0.2456586E+03  0.7818608E-02  0.1116093E+00
         21   -1    0    0  503  502  0.00000000000E+00  0.00000000000E+00  0.20190017221E+03  0.20190017221E+03  0.00000000000E+00 0. -1.
         21   -1    0    0  501  503 -0.00000000000E+00 -0.00000000000E+00 -0.21104796869E+04  0.21104796869E+04  0.00000000000E+00 0.  1.
          6    2    1    2  501    0 -0.77681208096E+02  0.15620352738E+03 -0.20255333879E+04  0.20403758571E+04  0.17295727978E+03 0.  0.
         24    2    3    3    0    0 -0.83819272067E+01  0.15399496557E+03 -0.15812652220E+04  0.15907053541E+04  0.78480028953E+02 0.  0.
         -6    2    1    2    0  502  0.77681208096E+02 -0.15620352738E+03  0.11695387315E+03  0.27200400210E+03  0.17284113126E+03 0.  0.
        -24    2    5    5    0    0  0.86313819414E+02 -0.11626785914E+03  0.14736550604E+03  0.22085386045E+03  0.78048349201E+02 0.  0.
          5    1    3    3  501    0 -0.69299280889E+02  0.22085618064E+01 -0.44426816586E+03  0.44967050300E+03  0.47000000000E+01 0. -1.
        -11    1    4    4    0    0  0.37749881566E+01  0.70239743148E+02 -0.10847928344E+04  0.10870710030E+04  0.00000000000E+00 0.  1.
         12    1    4    4    0    0 -0.12156915363E+02  0.83755222422E+02 -0.49647238762E+03  0.50363435103E+03  0.00000000000E+00 0. -1.
         -5    1    5    5    0  502 -0.86326113183E+01 -0.39935668234E+02 -0.30411632893E+02  0.51150141649E+02  0.47000000000E+01 0.  1.
         13    1    6    6    0    0  0.81915839929E+02 -0.10170741190E+03  0.83049436221E+02  0.15476372741E+03  0.00000000000E+00 0. -1.
        -14    1    6    6    0    0  0.43979794847E+01 -0.14560447243E+02  0.64316069818E+02  0.66090133033E+02  0.00000000000E+00 0.  1.
</event>
<event>
12    1  0.1565987E-001  0.1741616E+03  0.7818608E-02  0.1173916E+00
         21   -1    0    0  501  502  0.00000000000E+00  0.00000000000E+00  0.93436740133E+02  0.93436740133E+02  0.00000000000E+00 0. -1.
         21   -1    0    0  502  503 -0.00000000000E+00 -0.00000000000E+00 -0.66293146972E+03  0.66293146972E+03  0.00000000000E+00 0. -1.
         -6    2    1    2    0  503  0.11965593437E+02 -0.10339013019E+02 -0.55643512236E+03  0.58305428600E+03  0.17344216443E+03 0.  0.
        -24    2    3    3    0    0  0.55267286387E+02 -0.44895527058E+01 -0.18783563313E+03  0.21184420226E+03  0.80753401986E+02 0.  0.
          6    2    1    2  501    0 -0.11965593437E+02  0.10339013019E+02 -0.13059607223E+02  0.17331392386E+03  0.17209617150E+03 0.  0.
         24    2    5    5    0    0 -0.59506019921E+01  0.74526529426E+02 -0.12598858474E+02  0.10867245363E+03  0.77854721693E+02 0.  0.
          5    1    5    5  501    0 -0.60149914449E+01 -0.64187516407E+02 -0.46074874979E+00  0.64641470234E+02  0.47000000000E+01 0. -1.
        -11    1    6    6    0    0 -0.30199071695E+01  0.21293621071E+02 -0.42438067814E+02  0.47576546086E+02  0.00000000000E+00 0.  1.
         12    1    6    6    0    0 -0.29306948226E+01  0.53232908355E+02  0.29839209341E+02  0.61095907540E+02  0.00000000000E+00 0. -1.
         -5    1    3    3    0  503 -0.43301692950E+02 -0.58494603132E+01 -0.36859948924E+03  0.37121008373E+03  0.47000000000E+01 0.  1.
         11    1    4    4    0    0  0.50280471057E+02  0.32380015044E+02 -0.10107175646E+03  0.11743973389E+03  0.00000000000E+00 0. -1.
        -12    1    4    4    0    0  0.49868153296E+01 -0.36869567749E+02 -0.86763876672E+02  0.94404468371E+02  0.00000000000E+00 0.  1.
</event>
<event>
12    1  0.1565987E-001  0.1919159E+03  0.7818608E-02  0.1157345E+00
         21   -1    0    0  501  502  0.00000000000E+00  0.00000000000E+00  0.38059714349E+03  0.38059714349E+03  0.00000000000E+00 0.  1.
         21   -1    0    0  502  503 -0.00000000000E+00 -0.00000000000E+00 -0.97870157987E+02  0.97870157987E+02  0.00000000000E+00 0.  1.
         -6    2    1    2    0  503 -0.40519888839E+02  0.68656208001E+02  0.10454055804E+03  0.21854157910E+03  0.17457421698E+03 0.  0.
        -24    2    3    3    0    0  0.26876729201E+02  0.30216000540E+02  0.18419057715E+01  0.89743066496E+02  0.80094070356E+02 0.  0.
          6    2    1    2  501    0  0.40519888839E+02 -0.68656208001E+02  0.17818642747E+03  0.25992572237E+03  0.17162587780E+03 0.  0.
         24    2    5    5    0    0 -0.87417341078E+00 -0.49529334148E+02  0.19115218074E+03  0.21228638515E+03  0.77925823686E+02 0.  0.
          5    1    5    5  501    0  0.41394062249E+02 -0.19126873853E+02 -0.12965753277E+02  0.47639337222E+02  0.47000000000E+01 0. -1.
        -13    1    6    6    0    0  0.58959142009E+01 -0.56253201358E+02  0.66633107101E+02  0.87402262152E+02  0.00000000000E+00 0.  1.
         14    1    6    6    0    0 -0.67700876116E+01  0.67238672102E+01  0.12451907364E+03  0.12488412300E+03  0.00000000000E+00 0. -1.
         -5    1    3    3    0  503 -0.67396618040E+02  0.38440207461E+02  0.10269865227E+03  0.12879851261E+03  0.47000000000E+01 0.  1.
         11    1    4    4    0    0 -0.63593509383E+00 -0.22944426836E+01  0.35425435897E+02  0.35505357189E+02  0.00000000000E+00 0. -1.
        -12    1    4    4    0    0  0.27512664295E+02  0.32510443223E+02 -0.33583530125E+02  0.54237709307E+02  0.00000000000E+00 0.  1.
</event>
<event>
12    1  0.1565987E-001  0.2397362E+03  0.7818608E-02  0.1120266E+00
         21   -1    0    0  501  502  0.00000000000E+00  0.00000000000E+00  0.14288267460E+03  0.14288267460E+03  0.00000000000E+00 0.  1.
         21   -1    0    0  502  503 -0.00000000000E+00 -0.00000000000E+00 -0.56637048681E+03  0.56637048681E+03  0.00000000000E+00 0. -1.
         -6    2    1    2    0  503 -0.77956115218E+02  0.14535817643E+03 -0.40381409544E+03  0.46871102750E+03  0.17151690373E+03 0.  0.
        -24    2    3    3    0    0 -0.11288292327E+03  0.10065794919E+03 -0.35378969796E+03  0.39293159375E+03  0.79708907187E+02 0.  0.
          6    2    1    2  501    0  0.77956115218E+02 -0.14535817643E+03 -0.19673716769E+02  0.24054213392E+03  0.17397502035E+03 0.  0.
         24    2    5    5    0    0  0.63865655968E+02 -0.12712137397E+03 -0.82320332237E+02  0.17362569024E+03  0.55951563679E+02 0.  0.
          5    1    5    5  501    0  0.14090459250E+02 -0.18236802457E+02  0.62646615468E+02  0.66916443684E+02  0.47000000000E+01 0. -1.
        -11    1    6    6    0    0  0.48299132210E+02 -0.49159834850E+02 -0.17642663233E+02  0.71139012508E+02  0.00000000000E+00 0.  1.
         12    1    6    6    0    0  0.15566523758E+02 -0.77961539121E+02 -0.64677669004E+02  0.10248667773E+03  0.00000000000E+00 0. -1.
         -5    1    3    3    0  503  0.34926808050E+02  0.44700227235E+02 -0.50024397486E+02  0.75779433748E+02  0.47000000000E+01 0.  1.
         13    1    4    4    0    0 -0.15939856137E+02  0.29336998235E+02 -0.16996472225E+03  0.17321300554E+03  0.00000000000E+00 0. -1.
        -14    1    4    4    0    0 -0.96943067132E+02  0.71320950958E+02 -0.18382497570E+03  0.21971858820E+03  0.00000000000E+00 0.  1.
</event>
<event>
12    1  0.1565987E-001  0.2643950E+03  0.7818608E-02  0.1104655E+00
         21   -1    0    0  503  502  0.00000000000E+00  0.00000000000E+00  0.79435077676E+02  0.79435077676E+02  0.00000000000E+00 0. -1.
         21   -1    0    0  501  503 -0.00000000000E+00 -0.00000000000E+00 -0.13812260485E+04  0.13812260485E+04  0.00000000000E+00 0.  1.
          6    2    1    2  501    0 -0.60223998159E+02 -0.19392156756E+03 -0.10914015150E+04  0.11227729587E+04  0.16801590900E+03 0.  0.
         24    2    3    3    0    0 -0.11104931821E+02 -0.11164793982E+03 -0.36918703733E+03  0.39421446814E+03  0.80730393203E+02 0.  0.
         -6    2    1    2    0  502  0.60223998159E+02  0.19392156756E+03 -0.21038945580E+03  0.33788816738E+03  0.16932863381E+03 0.  0.
        -24    2    5    5    0    0  0.10315627257E+03  0.11681662731E+03 -0.14245437523E+03  0.22641791498E+03  0.81758682823E+02 0.  0.
          5    1    3    3  501    0 -0.49119066338E+02 -0.82273627738E+02 -0.72221447765E+03  0.72855849060E+03  0.47000000000E+01 0. -1.
        -11    1    4    4    0    0 -0.34367223074E+01 -0.18874121755E+01 -0.13928064220E+03  0.13933581979E+03  0.00000000000E+00 0.  1.
         12    1    4    4    0    0 -0.76682095137E+01 -0.10976052765E+03 -0.22990639512E+03  0.25487864835E+03  0.00000000000E+00 0. -1.
         -5    1    5    5    0  502 -0.42932274415E+02  0.77104940253E+02 -0.67935080568E+02  0.11147025240E+03  0.47000000000E+01 0.  1.
         13    1    6    6    0    0  0.80226907307E+02  0.11449367843E+03 -0.82841228995E+02  0.16250485617E+03  0.00000000000E+00 0. -1.
        -14    1    6    6    0    0  0.22929365267E+02  0.23229488732E+01 -0.59613146235E+02  0.63913058814E+02  0.00000000000E+00 0.  1.
</event>
<event>
12    1  0.1565987E-001  0.1794617E+03  0.7818608E-02  0.1168427E+00
         21   -1    0    0  501  502  0.00000000000E+00  0.00000000000E+00  0.11244062649E+03  0.11244062649E+03  0.00000000000E+00 0.  1.
         21   -1    0    0  502  503 -0.00000000000E+00 -0.00000000000E+00 -0.28687376773E+03  0.28687376773E+03  0.00000000000E+00 0.  1.
         -6    2    1    2    0  503  0.36442177951E+02 -0.36679251512E+02 -0.99761307040E+02  0.20532614798E+03  0.17185199690E+03 0.  0.
        -24    2    3    3    0    0 -0.40647847787E+02  0.77550137499E+01 -0.36712746544E+02  0.96172646078E+02  0.78669970934E+02 0.  0.
          6    2    1    2  501    0 -0.36442177951E+02  0.36679251512E+02 -0.74671834204E+02  0.19398824623E+03  0.17141224294E+03 0.  0.
         24    2    5    5    0    0  0.37536428447E+02 -0.13687154069E+02 -0.33952187593E+02  0.95551522215E+02  0.79881291353E+02 0.  0.
          5    1    5    5  501    0 -0.73978606398E+02  0.50366405581E+02 -0.40719646611E+02  0.98436724020E+02  0.47000000000E+01 0. -1.
        -13    1    6    6    0    0  0.21759674714E+02  0.32951668257E+02 -0.20599371509E+02  0.44537961237E+02  0.00000000000E+00 0.  1.
         14    1    6    6    0    0  0.15776753733E+02 -0.46638822326E+02 -0.13352816084E+02  0.51013560978E+02  0.00000000000E+00 0. -1.
         -5    1    3    3    0  503  0.77090025738E+02 -0.44434265262E+02 -0.63048560496E+02  0.10915350191E+03  0.47000000000E+01 0.  1.
         11    1    4    4    0    0 -0.34175147050E+02 -0.15531737566E+01  0.19126482988E+02  0.39194073226E+02  0.00000000000E+00 0. -1.
        -12    1    4    4    0    0 -0.64727007373E+01  0.93081875065E+01 -0.55839229532E+02  0.56978572851E+02  0.00000000000E+00 0.  1.
</event>
<event>
12    1  0.1565987E-001  0.2654618E+03  0.7818608E-02  0.1104166E+00
         21   -1    0    0  501  502  0.00000000000E+00  0.00000000000E+00  0.20082054313E+03  0.20082054313E+03  0.00000000000E+00 0.  1.
         21   -1    0    0  502  503 -0.00000000000E+00 -0.00000000000E+00 -0.44114729658E+03  0.44114729658E+03  0.00000000000E+00 0.  1.
         -6    2    1    2    0  503 -0.16161674035E+03  0.11748865317E+03 -0.26688664116E+03  0.37518065213E+03  0.17207117168E+03 0.  0.
        -24    2    3    3    0    0 -0.12287829129E+03  0.81416555539E+01 -0.13492155962E+03  0.19941289039E+03  0.79976950297E+02 0.  0.
          6    2    1    2  501    0  0.16161674035E+03 -0.11748865317E+03  0.26559887706E+02  0.26678718757E+03  0.17477534560E+03 0.  0.
         24    2    5    5    0    0  0.10114112563E+03 -0.10401187420E+03 -0.45438120240E+02  0.17168341953E+03  0.79765760208E+02 0.  0.
          5    1    5    5  501    0  0.60475614718E+02 -0.13476778968E+02  0.71998007946E+02  0.95103768038E+02  0.47000000000E+01 0. -1.
        -11    1    6    6    0    0  0.53542194095E+02 -0.81075954941E+02  0.67810861510E+01  0.97396407262E+02  0.00000000000E+00 0.  1.
         12    1    6    6    0    0  0.47598931535E+02 -0.22935919262E+02 -0.52219206391E+02  0.74287012269E+02  0.00000000000E+00 0. -1.
         -5    1    3    3    0  503 -0.38738449063E+02  0.10934699762E+03 -0.13196508154E+03  0.17576776174E+03  0.47000000000E+01 0.  1.
         11    1    4    4    0    0 -0.96672537037E+02  0.15166299066E+02 -0.49253624681E+02  0.10955142897E+03  0.00000000000E+00 0. -1.
        -12    1    4    4    0    0 -0.26205754248E+02 -0.70246435122E+01 -0.85667934939E+02  0.89861461422E+02  0.00000000000E+00 0.  1.
</event>
<event>
12    1  0.1565987E-001  0.1731499E+03  0.7818608E-02  0.1174674E+00
         21   -1    0    0  501  502  0.00000000000E+00  0.00000000000E+00  0.74398088275E+02  0.74398088275E+02  0.00000000000E+00 0.  1.
         21   -1    0    0  502  503 -0.00000000000E+00 -0.00000000000E+00 -0.11346641505E+04  0.11346641505E+04  0.00000000000E+00 0.  1.
         -6    2    1    2    0  503 -0.13021863821E+02 -0.16166692929E+02 -0.10159567060E+04  0.10306060934E+04  0.17190101885E+03 0.  0.
        -24    2    3    3    0    0 -0.12342728131E+02  0.57850448790E+02 -0.57341639469E+03  0.58189347304E+03  0.79338735176E+02 0.  0.
          6    2    1    2  501    0  0.13021863821E+02  0.16166692929E+02 -0.44309356190E+02  0.17845614539E+03  0.17161685781E+03 0.  0.
         24    2    5    5    0    0 -0.56422179647E+02  0.12181943596E+02 -0.29038925572E+01  0.97370660753E+02  0.78362943268E+02 0.  0.
          5    1    5    5  501    0  0.69444043468E+02  0.39847493325E+01 -0.41405463633E+02  0.81085484639E+02  0.47000000000E+01 0. -1.
        -13    1    6    6    0    0 -0.19505278980E+02  0.40522973418E+02  0.15141760477E+02  0.47453558276E+02  0.00000000000E+00 0.  1.
         14    1    6    6    0    0 -0.36916900667E+02 -0.28341029822E+02 -0.18045653035E+02  0.49917102476E+02  0.00000000000E+00 0. -1.
         -5    1    3    3    0  503 -0.67913568989E+00 -0.74017141719E+02 -0.44254031134E+03  0.44871262034E+03  0.47000000000E+01 0.  1.
         13    1    4    4    0    0 -0.24505630730E+02  0.13166434193E+02 -0.57220355214E+02  0.63624287639E+02  0.00000000000E+00 0. -1.
        -14    1    4    4    0    0  0.12162902599E+02  0.44684014598E+02 -0.51619603948E+03  0.51826918540E+03  0.00000000000E+00 0.  1.
</event>
<event>
12    1  0.1565987E-001  0.2237771E+03  0.7818608E-02  0.1132037E+00
         21   -1    0    0  503  502  0.00000000000E+00  0.00000000000E+00  0.19248058383E+03  0.19248058383E+03  0.00000000000E+00 0.  1.
         21   -1    0    0  501  503 -0.00000000000E+00 -0.00000000000E+00 -0.25558441826E+03  0.25558441826E+03  0.00000000000E+00 0.  1.
          6    2    1    2  501    0 -0.11705141848E+03  0.66295854644E+02 -0.47197567452E+02  0.22372330477E+03  0.17241905873E+03 0.  0.
         24    2    3    3    0    0 -0.26087224725E+02  0.29924318628E+02  0.37310351928E+02  0.94258824641E+02  0.76919799288E+02 0.  0.
         -6    2    1    2    0  502  0.11705141848E+03 -0.66295854644E+02 -0.15906266974E+02  0.22434169731E+03  0.17882956387E+03 0.  0.
        -24    2    5    5    0    0  0.12716659374E+03 -0.58754502694E+02  0.40984006945E+02  0.16587989760E+03  0.78822696301E+02 0.  0.
          5    1    3    3  501    0 -0.90964193753E+02  0.36371536015E+02 -0.84507919380E+02  0.12946448013E+03  0.47000000000E+01 0. -1.
        -11    1    4    4    0    0  0.25507612526E+02  0.10167531434E+02 -0.23528199679E+00  0.27460377817E+02  0.00000000000E+00 0.  1.
         12    1    4    4    0    0 -0.51594837252E+02  0.19756787194E+02  0.37545633925E+02  0.66798446824E+02  0.00000000000E+00 0. -1.
         -5    1    5    5    0  502 -0.10115175258E+02 -0.75413519492E+01 -0.56890273919E+02  0.58461799718E+02  0.47000000000E+01 0.  1.
         13    1    6    6    0    0  0.46433438329E+02  0.91416764704E+01  0.37420217264E+02  0.60331642641E+02  0.00000000000E+00 0. -1.
        -14    1    6    6    0    0  0.80733155407E+02 -0.67896179165E+02  0.35637896802E+01  0.10554825496E+03  0.00000000000E+00 0.  1.
</event>
<event>
12    1  0.1565987E-001  0.1893062E+03  0.7818608E-02  0.1159206E+00
         21   -1    0    0  503  502  0.00000000000E+00  0.00000000000E+00  0.22624895458E+03  0.22624895458E+03  0.00000000000E+00 0.  1.
         21   -1    0    0  501  503 -0.00000000000E+00 -0.00000000000E+00 -0.18132231017E+03  0.18132231017E+03  0.00000000000E+00 0.  1.
          6    2    1    2  501    0  0.71294731952E+02  0.28855573427E+02 -0.50709273498E+02  0.19547919148E+03  0.17240968929E+03 0.  0.
         24    2    3    3    0    0  0.11138269064E+03 -0.28580567621E+01 -0.42734420340E+02  0.14353222761E+03  0.79755861343E+02 0.  0.
         -6    2    1    2    0  502 -0.71294731952E+02 -0.28855573427E+02  0.95635917907E+02  0.21209207327E+03  0.17297755874E+03 0.  0.
        -24    2    5    5    0    0 -0.10138269550E+03  0.20962871121E+02  0.62458475405E+02  0.14493557203E+03  0.79920998355E+02 0.  0.
          5    1    3    3  501    0 -0.40087958690E+02  0.31713630189E+02 -0.79748531582E+01  0.51946963863E+02  0.47000000000E+01 0. -1.
        -13    1    4    4    0    0  0.77658506986E+02 -0.28632306694E+02  0.74170632254E+00  0.82771992982E+02  0.00000000000E+00 0.  1.
         14    1    4    4    0    0  0.33724183656E+02  0.25774249932E+02 -0.43476126662E+02  0.60760234631E+02  0.00000000000E+00 0. -1.
         -5    1    5    5    0  502  0.30087963544E+02 -0.49818444548E+02  0.33177442502E+02  0.67156501237E+02  0.47000000000E+01 0.  1.
         13    1    6    6    0    0  0.11876763875E+02 -0.28645267934E+01  0.16210378196E+02  0.20298753537E+02  0.00000000000E+00 0. -1.
        -14    1    6    6    0    0 -0.11325945937E+03  0.23827397915E+02  0.46248097209E+02  0.12463681849E+03  0.00000000000E+00 0.  1.
</event>
<event>
12    1  0.1565987E-001  0.1927735E+03  0.7818608E-02  0.1156099E+00
         21   -1    0    0  501  502  0.00000000000E+00  0.00000000000E+00  0.63729730544E+03  0.63729730544E+03  0.00000000000E+00 0.  1.
         21   -1    0    0  502  503 -0.00000000000E+00 -0.00000000000E+00 -0.21002845694E+03  0.21002845694E+03  0.00000000000E+00 0. -1.
         -6    2    1    2    0  503  0.85641091943E+02 -0.94511191579E+01 -0.14655192909E+03  0.24215507539E+03  0.17244678116E+03 0.  0.
        -24    2    3    3    0    0  0.49887394586E+02  0.28865179461E+01 -0.17229699431E+03  0.19616113506E+03  0.79346408442E+02 0.  0.
          6    2    1    2  501    0 -0.85641091943E+02  0.94511191579E+01  0.57382077760E+03  0.60517068699E+03  0.17186493332E+03 0.  0.
         24    2    5    5    0    0 -0.56449135805E+02 -0.26855124071E+02  0.16111450803E+03  0.18981677941E+03  0.78516383169E+02 0.  0.
          5    1    5    5  501    0 -0.29191956138E+02  0.36306243229E+02  0.41270626957E+03  0.41535390758E+03  0.47000000000E+01 0. -1.
        -13    1    6    6    0    0 -0.40068777842E+02 -0.14032268772E+02  0.16345924213E+03  0.16888260823E+03  0.00000000000E+00 0.  1.
         14    1    6    6    0    0 -0.16380357963E+02 -0.12822855299E+02 -0.23447341002E+01  0.20934171181E+02  0.00000000000E+00 0. -1.
         -5    1    3    3    0  503  0.35753697357E+02 -0.12337637104E+02  0.25745065219E+02  0.45993940331E+02  0.47000000000E+01 0.  1.
         11    1    4    4    0    0  0.22094183879E+02  0.30698591305E+02 -0.14077239728E+03  0.14576496254E+03  0.00000000000E+00 0. -1.
        -12    1    4    4    0    0  0.27793210707E+02 -0.27812073359E+02 -0.31524597037E+02  0.50396172516E+02  0.00000000000E+00 0.  1.
</event>
<event>
12    1  0.1565987E-001  0.3269181E+03  0.7818608E-02  0.1072542E+00
         21   -1    0    0  503  502  0.00000000000E+00  0.00000000000E+00  0.43282221061E+03  0.43282221061E+03  0.00000000000E+00 0.  1.
         21   -1    0    0  501  503 -0.00000000000E+00 -0.00000000000E+00 -0.26170510123E+03  0.26170510123E+03  0.00000000000E+00 0.  1.
          6    2    1    2  501    0  0.25205769894E+03 -0.11750807827E+03  0.23755593195E+01  0.32662903231E+03  0.17128820571E+03 0.  0.
         24    2    3    3    0    0  0.18088652441E+03 -0.14850254855E+02 -0.11702353504E+02  0.20083458720E+03  0.85188740791E+02 0.  0.
         -6    2    1    2    0  502 -0.25205769894E+03  0.11750807827E+03  0.16874155006E+03  0.36789827952E+03  0.17185517539E+03 0.  0.
        -24    2    5    5    0    0 -0.10032716239E+03  0.11197369633E+03  0.11971120066E+03  0.20827732142E+03  0.80280899776E+02 0.  0.
          5    1    3    3  501    0  0.71171174530E+02 -0.10265782341E+03  0.14077912823E+02  0.12579444511E+03  0.47000000000E+01 0. -1.
        -11    1    4    4    0    0  0.11827185376E+03 -0.50280709683E+02 -0.57420000193E+01  0.12864428368E+03  0.00000000000E+00 0.  1.
         12    1    4    4    0    0  0.62614670646E+02  0.35430454828E+02 -0.59603534843E+01  0.72190303525E+02  0.00000000000E+00 0. -1.
         -5    1    5    5    0  502 -0.15173053655E+03  0.55343819310E+01  0.49030349398E+02  0.15962095811E+03  0.47000000000E+01 0.  1.
         11    1    6    6    0    0  0.13860684216E+02  0.16339162398E+02  0.13185853914E+02  0.25158567890E+02  0.00000000000E+00 0. -1.
        -12    1    6    6    0    0 -0.11418784661E+03  0.95634533936E+02  0.10652534675E+03  0.18311875353E+03  0.00000000000E+00 0.  1.
</event>
<event>
12    1  0.1565987E-001  0.1976216E+03  0.7818608E-02  0.1151873E+00
         21   -1    0    0  501  502  0.00000000000E+00  0.00000000000E+00  0.14084846448E+03  0.14084846448E+03  0.00000000000E+00 0.  1.
         21   -1    0    0  502  503 -0.00000000000E+00 -0.00000000000E+00 -0.36101664081E+03  0.36101664081E+03  0.00000000000E+00 0.  1.
         -6    2    1    2    0  503 -0.92576008609E+02  0.25810131878E+02 -0.23134919113E+03  0.30392741336E+03  0.17208411920E+03 0.  0.
        -24    2    3    3    0    0 -0.57800776659E+02 -0.49032852960E+02 -0.16211404154E+03  0.19610169715E+03  0.80185801184E+02 0.  0.
          6    2    1    2  501    0  0.92576008609E+02 -0.25810131878E+02  0.11181014796E+02  0.19793769193E+03  0.17267841358E+03 0.  0.
         24    2    5    5    0    0 -0.52854651359E+01 -0.26288771295E+02 -0.34228013744E+02  0.89950808412E+02  0.78743605272E+02 0.  0.
          5    1    5    5  501    0  0.97861473744E+02  0.47863941726E+00  0.45409028540E+02  0.10798688352E+03  0.47000000000E+01 0. -1.
        -11    1    6    6    0    0  0.15620270576E+02  0.16873648655E+00  0.20436287042E+02  0.25722813861E+02  0.00000000000E+00 0.  1.
         12    1    6    6    0    0 -0.20905735712E+02 -0.26457507782E+02 -0.54664300786E+02  0.64227994551E+02  0.00000000000E+00 0. -1.
         -5    1    3    3    0  503 -0.34775231949E+02  0.74842984838E+02 -0.69235149591E+02  0.10782571621E+03  0.47000000000E+01 0.  1.
         13    1    4    4    0    0 -0.48590920237E+00 -0.21054563279E+02  0.87491064719E+00  0.21078335116E+02  0.00000000000E+00 0. -1.
        -14    1    4    4    0    0 -0.57314867457E+02 -0.27978289681E+02 -0.16298895218E+03  0.17502336204E+03  0.00000000000E+00 0.  1.
</event>
<event>
12    1  0.1565987E-001  0.2498267E+03  0.7818608E-02  0.1113781E+00
         21   -1    0    0  503  502  0.00000000000E+00  0.00000000000E+00  0.34064581554E+03  0.34064581554E+03  0.00000000000E+00 0. -1.
         21   -1    0    0  501  503 -0.00000000000E+00 -0.00000000000E+00 -0.18153545537E+03  0.18153545537E+03  0.00000000000E+00 0. -1.
          6    2    1    2  501    0  0.32339046653E+02 -0.17559825223E+03  0.79612431668E+02  0.26001089863E+03  0.17142627572E+03 0.  0.
         24    2    3    3    0    0  0.13107090084E+02 -0.22182996416E+02  0.61694933286E+02  0.10428923791E+03  0.80038110984E+02 0.  0.
         -6    2    1    2    0  502 -0.32339046653E+02  0.17559825223E+03  0.79497928500E+02  0.26217037229E+03  0.17473643966E+03 0.  0.
        -24    2    5    5    0    0 -0.38833871879E+02  0.16365259719E+02  0.39038077497E+02  0.97682019507E+02  0.79005785291E+02 0.  0.
          5    1    3    3  501    0  0.19231956568E+02 -0.15341525581E+03  0.17917498382E+02  0.15572166072E+03  0.47000000000E+01 0. -1.
        -11    1    4    4    0    0  0.45636992313E+02 -0.19194448559E+02  0.47705179126E+02  0.68752789313E+02  0.00000000000E+00 0.  1.
         12    1    4    4    0    0 -0.32529902229E+02 -0.29885478572E+01  0.13989754160E+02  0.35536448595E+02  0.00000000000E+00 0. -1.
         -5    1    5    5    0  502  0.64948252269E+01  0.15923299251E+03  0.40459851003E+02  0.16448835278E+03  0.47000000000E+01 0.  1.
         11    1    6    6    0    0  0.17349973023E+02 -0.15404608017E+01  0.34367200644E+02  0.38529197546E+02  0.00000000000E+00 0. -1.
        -12    1    6    6    0    0 -0.56183844903E+02  0.17905720521E+02  0.46708768526E+01  0.59152821961E+02  0.00000000000E+00 0.  1.
</event>
<event>
12    1  0.1565987E-001  0.1924815E+03  0.7818608E-02  0.1156534E+00
         21   -1    0    0  501  502  0.00000000000E+00  0.00000000000E+00  0.26848924462E+02  0.26848924462E+02  0.00000000000E+00 0. -1.
         21   -1    0    0  502  503 -0.00000000000E+00 -0.00000000000E+00 -0.13928680325E+04  0.13928680325E+04  0.00000000000E+00 0. -1.
         -6    2    1    2    0  503 -0.82641222496E+02 -0.20113073190E+02 -0.77064291088E+03  0.79399981961E+03  0.17120487748E+03 0.  0.
        -24    2    3    3    0    0 -0.55227847320E+01  0.16208649607E+02 -0.18266269692E+03  0.19985392591E+03  0.79263543833E+02 0.  0.
          6    2    1    2  501    0  0.82641222496E+02  0.20113073190E+02 -0.59537619720E+03  0.62571713740E+03  0.17267024201E+03 0.  0.
         24    2    5    5    0    0  0.12984779800E+02 -0.44562320895E+02 -0.22169350072E+03  0.24010622695E+03  0.79678020864E+02 0.  0.
          5    1    5    5  501    0  0.69656442695E+02  0.64675394085E+02 -0.37368269648E+03  0.38561091045E+03  0.47000000000E+01 0. -1.
        -11    1    6    6    0    0 -0.23592349049E+02 -0.49947400430E+02 -0.13343152729E+03  0.14441369125E+03  0.00000000000E+00 0.  1.
         12    1    6    6    0    0  0.36577128849E+02  0.53850795347E+01 -0.88261973425E+02  0.95692535703E+02  0.00000000000E+00 0. -1.
         -5    1    3    3    0  503 -0.77118437764E+02 -0.36321722796E+02 -0.58798021396E+03  0.59414589370E+03  0.47000000000E+01 0.  1.
         11    1    4    4    0    0 -0.33740019774E+02 -0.11202147044E+02 -0.49105975474E+02  0.60624036982E+02  0.00000000000E+00 0. -1.
        -12    1    4    4    0    0  0.28217235042E+02  0.27410796651E+02 -0.13355672145E+03  0.13922988892E+03  0.00000000000E+00 0.  1.
</event>
<event>
12    1  0.1565987E-001  0.2189624E+03  0.7818608E-02  0.1134961E+00
         21   -1    0    0  501  502  0.00000000000E+00  0.00000000000E+00  0.19670440778E+03  0.19670440778E+03  0.00000000000E+00 0. -1.
         21   -1    0    0  502  503 -0.00000000000E+00 -0.00000000000E+00 -0.25163976546E+03  0.25163976546E+03  0.00000000000E+00 0.  1.
         -6    2    1    2    0  503  0.12365315048E+03 -0.49362682746E+02 -0.71540657175E+02  0.23035321947E+03  0.17383257467E+03 0.  0.
        -24    2    3    3    0    0  0.10851317897E+03 -0.84592399682E+02 -0.11593669301E+02  0.15903643990E+03  0.78912558902E+02 0.  0.
          6    2    1    2  501    0 -0.12365315048E+03  0.49362682746E+02  0.16605299498E+02  0.21799095377E+03  0.17180670500E+03 0.  0.
         24    2    5    5    0    0 -0.10291141795E+03  0.74365565284E+02 -0.36501677634E+02  0.15555855334E+03  0.82128520023E+02 0.  0.
          5    1    5    5  501    0 -0.20741732530E+02 -0.25002882538E+02  0.53106977132E+02  0.62432400432E+02  0.47000000000E+01 0. -1.
        -11    1    6    6    0    0 -0.29872933901E+02 -0.15847703644E+02 -0.17032684553E+02  0.37863626790E+02  0.00000000000E+00 0.  1.
         12    1    6    6    0    0 -0.73038484049E+02  0.90213268928E+02 -0.19468993081E+02  0.11769492655E+03  0.00000000000E+00 0. -1.
         -5    1    3    3    0  503  0.15139971508E+02  0.35229716936E+02 -0.59946987875E+02  0.71316779568E+02  0.47000000000E+01 0.  1.
         11    1    4    4    0    0  0.67867247579E+02 -0.25886498980E+02  0.27455995629E+02  0.77652468211E+02  0.00000000000E+00 0. -1.
        -12    1    4    4    0    0  0.40645931394E+02 -0.58705900702E+02 -0.39049664930E+02  0.81383971686E+02  0.00000000000E+00 0.  1.
</event>
<event>
12    1  0.1565987E-001  0.1787160E+03  0.7818608E-02  0.1169135E+00
         21   -1    0    0  503  502  0.00000000000E+00  0.00000000000E+00  0.52632969067E+02  0.52632969067E+02  0.00000000000E+00 0. -1.
         21   -1    0    0  501  503 -0.00000000000E+00 -0.00000000000E+00 -0.10110085417E+04  0.10110085417E+04  0.00000000000E+00 0. -1.
          6    2    1    2  501    0 -0.13657635146E+02  0.48888173023E+02 -0.81619829696E+03  0.83553520000E+03  0.17135584619E+03 0.  0.
         24    2    3    3    0    0 -0.15256388685E+02 -0.30105435062E+02 -0.58588928346E+03  0.59200516525E+03  0.77876624111E+02 0.  0.
         -6    2    1    2    0  502  0.13657635146E+02 -0.48888173023E+02 -0.14217727563E+03  0.22810631073E+03  0.17100154042E+03 0.  0.
        -24    2    5    5    0    0 -0.39171667094E+02 -0.72744420860E+02 -0.12353874558E+03  0.16703634643E+03  0.76244010269E+02 0.  0.
          5    1    3    3  501    0  0.15987535389E+01  0.78993608085E+02 -0.23030901350E+03  0.24353003476E+03  0.47000000000E+01 0. -1.
        -13    1    4    4    0    0 -0.11339789139E+02  0.75017069579E+01 -0.16581809652E+02  0.21443480042E+02  0.00000000000E+00 0.  1.
         14    1    4    4    0    0 -0.39165995463E+01 -0.37607142020E+02 -0.56930747381E+03  0.57056168520E+03  0.00000000000E+00 0. -1.
         -5    1    5    5    0  502  0.52829302241E+02  0.23856247837E+02 -0.18638530058E+02  0.61069964294E+02  0.47000000000E+01 0.  1.
         13    1    6    6    0    0  0.85431044964E+01 -0.95950183521E+01  0.68091376869E+01  0.14540060786E+02  0.00000000000E+00 0. -1.
        -14    1    6    6    0    0 -0.47714771591E+02 -0.63149402508E+02 -0.13034788326E+03  0.15249628565E+03  0.00000000000E+00 0.  1.
</event>
<event>
12    1  0.1565987E-001  0.1783818E+03  0.7818608E-02  0.1170065E+00
         21   -1    0    0  501  502  0.00000000000E+00  0.00000000000E+00  0.40562643439E+03  0.40562643439E+03  0.00000000000E+00 0. -1.
         21   -1    0    0  502  503 -0.00000000000E+00 -0.00000000000E+00 -0.11306539105E+03  0.11306539105E+03  0.00000000000E+00 0.  1.
         -6    2    1    2    0  503  0.36361287260E+02  0.35872057150E+02  0.10588082106E+01  0.17838497612E+03  0.17091264124E+03 0.  0.
        -24    2    3    3    0    0  0.64964453758E+02  0.25246680872E+01  0.51324386255E+02  0.11146033322E+03  0.74581894962E+02 0.  0.
          6    2    1    2  501    0 -0.36361287260E+02 -0.35872057150E+02  0.29150223513E+03  0.34030684933E+03  0.16800669903E+03 0.  0.
         24    2    5    5    0    0 -0.98993931027E+01  0.38533844475E+02  0.11871540187E+03  0.15027040601E+03  0.83096288302E+02 0.  0.
          5    1    5    5  501    0 -0.26461894157E+02 -0.74405901625E+02  0.17278683326E+03  0.19003644331E+03  0.47000000000E+01 0. -1.
        -13    1    6    6    0    0  0.18675849288E+02  0.27470925172E+02  0.63727359038E+01  0.33823820590E+02  0.00000000000E+00 0.  1.
         14    1    6    6    0    0 -0.28575242391E+02  0.11062919304E+02  0.11234266596E+03  0.11644658542E+03  0.00000000000E+00 0. -1.
         -5    1    3    3    0  503 -0.28603166499E+02  0.33347389063E+02 -0.50265578044E+02  0.66924642899E+02  0.47000000000E+01 0.  1.
         13    1    4    4    0    0  0.66137064990E+02 -0.15027630407E+02  0.12676704325E+02  0.68997390340E+02  0.00000000000E+00 0. -1.
        -14    1    4    4    0    0 -0.11726112320E+01  0.17552298494E+02  0.38647681930E+02  0.42462942880E+02  0.00000000000E+00 0.  1.
</event>
<event>
12    1  0.1565987E-001  0.2204124E+03  0.7818608E-02  0.1133576E+00
         21   -1    0    0  501  502  0.00000000000E+00  0.00000000000E+00  0.76166304026E+03  0.76166304026E+03  0.00000000000E+00 0. -1.
         21   -1    0    0  502  503 -0.00000000000E+00 -0.00000000000E+00 -0.63908411439E+02  0.63908411439E+02  0.00000000000E+00 0. -1.
         -6    2    1    2    0  503  0.13778632226E+03  0.75328292161E+01  0.33058683871E+03  0.39732765164E+03  0.17187143659E+03 0.  0.
        -24    2    3    3    0    0  0.15861459430E+03  0.38679969715E+02  0.25989170837E+03  0.31717871072E+03  0.80024401715E+02 0.  0.
          6    2    1    2  501    0 -0.13778632226E+03 -0.75328292161E+01  0.36716779011E+03  0.42824380006E+03  0.17186841500E+03 0.  0.
         24    2    5    5    0    0 -0.60066379116E+02  0.65312318180E+02  0.14180199831E+03  0.17892746450E+03  0.63510330041E+02 0.  0.
          5    1    5    5  501    0 -0.77719943141E+02 -0.72845147396E+02  0.22536579180E+03  0.24931633556E+03  0.47000000000E+01 0. -1.
        -11    1    6    6    0    0 -0.23415710403E+02  0.68372309628E+02  0.97004473533E+02  0.12096667352E+03  0.00000000000E+00 0.  1.
         12    1    6    6    0    0 -0.36650668713E+02 -0.30599914483E+01  0.44797524777E+02  0.57960790979E+02  0.00000000000E+00 0. -1.
         -5    1    3    3    0  503 -0.20828272044E+02 -0.31147140499E+02  0.70695130344E+02  0.80148940929E+02  0.47000000000E+01 0.  1.
         13    1    4    4    0    0  0.10903572916E+03 -0.10542356263E+02  0.13280007168E+03  0.17215048808E+03  0.00000000000E+00 0. -1.
        -14    1    4    4    0    0  0.49578865139E+02  0.49222325979E+02  0.12709163669E+03  0.14502822263E+03  0.00000000000E+00 0.  1.
</event>
<event>
12    1  0.1565987E-001  0.1862221E+03  0.7818608E-02  0.1162164E+00
         21   -1    0    0  501  502  0.00000000000E+00  0.00000000000E+00  0.11471102128E+03  0.11471102128E+03  0.00000000000E+00 0.  1.
         21   -1    0    0  502  503 -0.00000000000E+00 -0.00000000000E+00 -0.30739954325E+03  0.30739954325E+03  0.00000000000E+00 0.  1.
         -6    2    1    2    0  503 -0.18481937633E+01  0.71183274873E+02 -0.12808069231E+03  0.22601623318E+03  0.17207033294E+03 0.  0.
        -24    2    3    3    0    0  0.31799507474E+02  0.50585717992E+02 -0.77752085195E+01  0.99320035225E+02  0.78954999773E+02 0.  0.
          6    2    1    2  501    0  0.18481937633E+01 -0.71183274873E+02 -0.64607829672E+02  0.19609433135E+03  0.17090447826E+03 0.  0.
         24    2    5    5    0    0  0.52543271473E+02 -0.73471119497E+02 -0.54412598451E+01  0.11800465135E+03  0.75740937774E+02 0.  0.
          5    1    5    5  501    0 -0.50695077709E+02  0.22878446240E+01 -0.59166569827E+02  0.78089679997E+02  0.47000000000E+01 0. -1.
        -11    1    6    6    0    0  0.63232625845E+02 -0.53467586804E+02 -0.26611791559E+02  0.86978935726E+02  0.00000000000E+00 0.  1.
         12    1    6    6    0    0 -0.10689354373E+02 -0.20003532693E+02  0.21170531714E+02  0.31025715626E+02  0.00000000000E+00 0. -1.
         -5    1    3    3    0  503 -0.33647701237E+02  0.20597556881E+02 -0.12030548379E+03  0.12669619796E+03  0.47000000000E+01 0.  1.
         11    1    4    4    0    0  0.82537969033E+01  0.30879027932E+02  0.34526189350E+02  0.47049944531E+02  0.00000000000E+00 0. -1.
        -12    1    4    4    0    0  0.23545710571E+02  0.19706690060E+02 -0.42301397869E+02  0.52270090694E+02  0.00000000000E+00 0.  1.
</event>
<event>
12    1  0.1565987E-001  0.2061561E+03  0.7818608E-02  0.1144815E+00
         21   -1    0    0  503  502  0.00000000000E+00  0.00000000000E+00  0.29352579472E+03  0.29352579472E+03  0.00000000000E+00 0.  1.
         21   -1    0    0  501  503 -0.00000000000E+00 -0.00000000000E+00 -0.17222322293E+03  0.17222322293E+03  0.00000000000E+00 0.  1.
          6    2    1    2  501    0 -0.27426632300E+02 -0.10831563512E+03 -0.33365993915E+02  0.20802295504E+03  0.17226654725E+03 0.  0.
         24    2    3    3    0    0  0.17109457882E+02 -0.12904473469E+03 -0.70477428475E+01  0.15209533005E+03  0.78345654917E+02 0.  0.
         -6    2    1    2    0  502  0.27426632300E+02  0.10831563512E+03  0.15466856571E+03  0.25772606261E+03  0.17325086193E+03 0.  0.
        -24    2    5    5    0    0  0.84462942746E+02  0.56448552355E+02  0.10536491642E+03  0.16609487350E+03  0.78519511150E+02 0.  0.
          5    1    3    3  501    0 -0.44536090182E+02  0.20729099567E+02 -0.26318251068E+02  0.55927624989E+02  0.47000000000E+01 0. -1.
        -11    1    4    4    0    0 -0.15203116226E+02 -0.86798038577E+02 -0.31468304133E+02  0.93569698134E+02  0.00000000000E+00 0.  1.
         12    1    4    4    0    0  0.32312574108E+02 -0.42246696108E+02  0.24420561286E+02  0.58525631915E+02  0.00000000000E+00 0. -1.
         -5    1    5    5    0  502 -0.57036310446E+02  0.51867082763E+02  0.49303649288E+02  0.91631189105E+02  0.47000000000E+01 0.  1.
         13    1    6    6    0    0  0.68655598660E+02  0.10317595837E+02  0.92511713326E+02  0.11566529779E+03  0.00000000000E+00 0. -1.
        -14    1    6    6    0    0  0.15807344086E+02  0.46130956519E+02  0.12853203095E+02  0.50429575709E+02  0.00000000000E+00 0.  1.
</event>
<event>
12    1  0.1565987E-001  0.2472412E+03  0.7818608E-02  0.1117308E+00
         21   -1    0    0  501  502  0.00000000000E+00  0.00000000000E+00  0.19520158791E+03  0.19520158791E+03  0.00000000000E+00 0. -1.
         21   -1    0    0  502  503 -0.00000000000E+00 -0.00000000000E+00 -0.33428279684E+03  0.33428279684E+03  0.00000000000E+00 0. -1.
         -6    2    1    2    0  503  0.13409105895E+03 -0.82106269322E+02  0.21569700804E+02  0.23463373026E+03  0.17281748705E+03 0.  0.
        -24    2    3    3    0    0  0.14407612479E+03 -0.18166688503E+02  0.20587200143E+00  0.16632213010E+03  0.81086683695E+02 0.  0.
          6    2    1    2  501    0 -0.13409105895E+03  0.82106269322E+02 -0.16065090974E+03  0.29485065448E+03  0.19080446037E+03 0.  0.
         24    2    5    5    0    0  0.17313592730E+01  0.74705631661E+02 -0.74788875698E+02  0.13392558614E+03  0.82211663949E+02 0.  0.
          5    1    5    5  501    0 -0.13582241823E+03  0.74006376612E+01 -0.85862034037E+02  0.16092506834E+03  0.47000000000E+01 0. -1.
        -13    1    6    6    0    0  0.24209596597E+02  0.13102240227E+02  0.76644324064E+01  0.28574757925E+02  0.00000000000E+00 0.  1.
         14    1    6    6    0    0 -0.22478237324E+02  0.61603391433E+02 -0.82453308104E+02  0.10535082822E+03  0.00000000000E+00 0. -1.
         -5    1    3    3    0  503 -0.99850658386E+01 -0.63939580819E+02  0.21363828803E+02  0.68311600159E+02  0.47000000000E+01 0.  1.
         13    1    4    4    0    0  0.10318945095E+03 -0.32006441680E+02  0.32037180643E+02  0.11268920108E+03  0.00000000000E+00 0. -1.
        -14    1    4    4    0    0  0.40886673846E+02  0.13839753178E+02 -0.31831308642E+02  0.53632929027E+02  0.00000000000E+00 0.  1.
</event>
<event>
12    1  0.1565987E-001  0.1899366E+03  0.7818608E-02  0.1162316E+00
         21   -1    0    0  501  502  0.00000000000E+00  0.00000000000E+00  0.56334638670E+03  0.56334638670E+03  0.00000000000E+00 0.  1.
         21   -1    0    0  502  503 -0.00000000000E+00 -0.00000000000E+00 -0.47342202419E+03  0.47342202419E+03  0.00000000000E+00 0.  1.
         -6    2    1    2    0  503 -0.12018799467E+01 -0.34869725135E+02 -0.43989403613E+03  0.47914786293E+03  0.18670449722E+03 0.  0.
        -24    2    3    3    0    0 -0.48201123688E+02 -0.77072141386E+02 -0.23274817200E+03  0.26253421637E+03  0.80554577106E+02 0.  0.
          6    2    1    2  501    0  0.12018799467E+01  0.34869725135E+02  0.52981839864E+03  0.55762054796E+03  0.17034024106E+03 0.  0.
         24    2    5    5    0    0  0.11335699697E+02  0.67525060196E+02  0.19558756070E+03  0.22161250008E+03  0.78546002115E+02 0.  0.
          5    1    5    5  501    0 -0.10133819750E+02 -0.32655335061E+02  0.33423083795E+03  0.33600804789E+03  0.47000000000E+01 0. -1.
        -11    1    6    6    0    0 -0.20149890654E+02  0.53031649318E+02  0.16797749005E+03  0.17729864942E+03  0.00000000000E+00 0.  1.
         12    1    6    6    0    0  0.31485590351E+02  0.14493410878E+02  0.27610070643E+02  0.44313850652E+02  0.00000000000E+00 0. -1.
         -5    1    3    3    0  503  0.46999243742E+02  0.42202416251E+02 -0.20714586414E+03  0.21661364657E+03  0.47000000000E+01 0.  1.
         11    1    4    4    0    0  0.15149525433E+02 -0.49560817553E+02 -0.11249271137E+03  0.12385633963E+03  0.00000000000E+00 0. -1.
        -12    1    4    4    0    0 -0.63350649122E+02 -0.27511323833E+02 -0.12025546063E+03  0.13867787673E+03  0.00000000000E+00 0.  1.
</event>
<event>
12    1  0.1565987E-001  0.2359680E+03  0.7818608E-02  0.1122641E+00
         21   -1    0    0  503  502  0.00000000000E+00  0.00000000000E+00  0.80630259752E+03  0.80630259752E+03  0.00000000000E+00 0.  1.
         21   -1    0    0  501  503 -0.00000000000E+00 -0.00000000000E+00 -0.77703179650E+02  0.77703179650E+02  0.00000000000E+00 0.  1.
          6    2    1    2  501    0  0.15551001718E+03  0.44130824553E+02  0.21439389957E+03  0.31824237348E+03  0.17082906364E+03 0.  0.
         24    2    3    3    0    0  0.27597276591E+02 -0.26691400526E+02  0.66240457604E+02  0.11003817290E+03  0.79035186687E+02 0.  0.
         -6    2    1    2    0  502 -0.15551001718E+03 -0.44130824553E+02  0.51420551829E+03  0.56576340369E+03  0.17190118904E+03 0.  0.
        -24    2    5    5    0    0 -0.12046867936E+03 -0.72514433413E+02  0.48657614370E+03  0.51266917662E+03  0.79386996899E+02 0.  0.
          5    1    3    3  501    0  0.12791274059E+03  0.70822225079E+02  0.14815344197E+03  0.20820420057E+03  0.47000000000E+01 0. -1.
        -11    1    4    4    0    0  0.43455097724E+02 -0.38446783813E+02  0.22832093072E+02  0.62352266822E+02  0.00000000000E+00 0.  1.
         12    1    4    4    0    0 -0.15857821133E+02  0.11755383287E+02  0.43408364532E+02  0.47685906080E+02  0.00000000000E+00 0. -1.
         -5    1    5    5    0  502 -0.35041337815E+02  0.28383608860E+02  0.27629374595E+02  0.53094227071E+02  0.47000000000E+01 0.  1.
         11    1    6    6    0    0 -0.14703289113E+02 -0.17532448971E+02  0.21333182571E+03  0.21455545050E+03  0.00000000000E+00 0. -1.
        -12    1    6    6    0    0 -0.10576539025E+03 -0.54981984443E+02  0.27324431799E+03  0.29811372612E+03  0.00000000000E+00 0.  1.
</event>
<event>
12    1  0.1565987E-001  0.1941041E+03  0.7818608E-02  0.1155329E+00
         21   -1    0    0  503  502  0.00000000000E+00  0.00000000000E+00  0.65600620241E+03  0.65600620241E+03  0.00000000000E+00 0. -1.
         21   -1    0    0  501  503 -0.00000000000E+00 -0.00000000000E+00 -0.11846206090E+03  0.11846206090E+03  0.00000000000E+00 0.  1.
          6    2    1    2  501    0  0.65734749441E+02  0.58937536671E+02 -0.11520629625E+02  0.19210365299E+03  0.17022455191E+03 0.  0.
         24    2    3    3    0    0 -0.67210387776E+01  0.60547192501E+02 -0.23104060378E+02  0.11855980141E+03  0.99052985930E+02 0.  0.
         -6    2    1    2    0  502 -0.65734749441E+02 -0.58937536671E+02  0.54906477113E+03  0.58236461032E+03  0.17286331578E+03 0.  0.
        -24    2    5    5    0    0 -0.10965349255E+03 -0.25056211720E+02  0.36910298881E+03  0.39398962984E+03  0.79618527338E+02 0.  0.
          5    1    3    3  501    0  0.72455788218E+02 -0.16096558300E+01  0.11583430753E+02  0.73543851587E+02  0.47000000000E+01 0. -1.
        -11    1    4    4    0    0  0.24682053460E+02  0.36998612104E+01 -0.43787970831E+02  0.50401181786E+02  0.00000000000E+00 0.  1.
         12    1    4    4    0    0 -0.31403092238E+02  0.56847331290E+02  0.20683910453E+02  0.68158619620E+02  0.00000000000E+00 0. -1.
         -5    1    5    5    0  502  0.43918743107E+02 -0.33881324950E+02  0.17996178232E+03  0.18837498048E+03  0.47000000000E+01 0.  1.
         13    1    6    6    0    0 -0.61041799388E+01 -0.32957588804E+02  0.10416920583E+03  0.10942891352E+03  0.00000000000E+00 0. -1.
        -14    1    6    6    0    0 -0.10354931261E+03  0.79013770837E+01  0.26493378299E+03  0.28456071631E+03  0.00000000000E+00 0.  1.
</event>
<event>
12    1  0.1565987E-001  0.3287008E+03  0.7818608E-02  0.1071751E+00
         21   -1    0    0  501  502  0.00000000000E+00  0.00000000000E+00  0.16717586569E+04  0.16717586569E+04  0.00000000000E+00 0.  1.
         21   -1    0    0  502  503 -0.00000000000E+00 -0.00000000000E+00 -0.10262275971E+03  0.10262275971E+03  0.00000000000E+00 0.  1.
         -6    2    1    2    0  503  0.24610370600E+03 -0.13389400825E+03  0.24452608959E+03  0.40967937894E+03  0.17189981236E+03 0.  0.
        -24    2    3    3    0    0  0.11177858899E+03 -0.64366742887E+02  0.20115634445E+03  0.25226177357E+03  0.80836853879E+02 0.  0.
          6    2    1    2  501    0 -0.24610370600E+03  0.13389400825E+03  0.13246098076E+04  0.13647020377E+04  0.17124797717E+03 0.  0.
         24    2    5    5    0    0 -0.45675136457E+02  0.99161829038E+01  0.38807174601E+03  0.39895479151E+03  0.79879264157E+02 0.  0.
          5    1    5    5  501    0 -0.20042856954E+03  0.12397782535E+03  0.93653806162E+03  0.96574724619E+03  0.47000000000E+01 0. -1.
        -13    1    6    6    0    0 -0.25941231268E+02  0.30649983125E+02  0.79567527667E+02  0.89125531720E+02  0.00000000000E+00 0.  1.
         14    1    6    6    0    0 -0.19733905189E+02 -0.20733800222E+02  0.30850421834E+03  0.30982925979E+03  0.00000000000E+00 0. -1.
         -5    1    3    3    0  503  0.13432511701E+03 -0.69527265366E+02  0.43369745142E+02  0.15741760538E+03  0.47000000000E+01 0.  1.
         13    1    4    4    0    0  0.11121811429E+03 -0.57557868379E+02  0.12901550666E+03  0.17979815938E+03  0.00000000000E+00 0. -1.
        -14    1    4    4    0    0  0.56047469970E+00 -0.68088745076E+01  0.72140837787E+02  0.72463614184E+02  0.00000000000E+00 0.  1.
</event>
<event>
12    1  0.1565987E-001  0.1886530E+03  0.7818608E-02  0.1160149E+00
         21   -1    0    0  501  502  0.00000000000E+00  0.00000000000E+00  0.22994064315E+03  0.22994064315E+03  0.00000000000E+00 0.  1.
         21   -1    0    0  502  503 -0.00000000000E+00 -0.00000000000E+00 -0.22081343153E+03  0.22081343153E+03  0.00000000000E+00 0.  1.
         -6    2    1    2    0  503  0.77667588444E+02 -0.18963107655E+02  0.12934277725E+03  0.22705398268E+03  0.16861821752E+03 0.  0.
        -24    2    3    3    0    0  0.31497767746E+01 -0.55730925216E+02  0.10130230830E+03  0.13922952958E+03  0.77503852289E+02 0.  0.
          6    2    1    2  501    0 -0.77667588444E+02  0.18963107655E+02 -0.12021556562E+03  0.22370009200E+03  0.17087450130E+03 0.  0.
         24    2    5    5    0    0 -0.29852541645E-01  0.51444463923E+02 -0.28779597176E+02  0.99340601540E+02  0.79960966360E+02 0.  0.
          5    1    5    5  501    0 -0.77637735903E+02 -0.32481356269E+02 -0.91435968449E+02  0.12435949046E+03  0.47000000000E+01 0. -1.
        -13    1    6    6    0    0 -0.14005769616E+02  0.49897963825E+02 -0.51215297075E+02  0.72862713584E+02  0.00000000000E+00 0.  1.
         14    1    6    6    0    0  0.13975917074E+02  0.15465000989E+01  0.22435699900E+02  0.26477887956E+02  0.00000000000E+00 0. -1.
         -5    1    3    3    0  503  0.74517811670E+02  0.36767817562E+02  0.28040468943E+02  0.87824453103E+02  0.47000000000E+01 0.  1.
         13    1    4    4    0    0 -0.11684832695E+02  0.60147053919E+01 -0.60763303642E+01  0.14478735675E+02  0.00000000000E+00 0. -1.
        -14    1    4    4    0    0  0.14834609469E+02 -0.61745630608E+02  0.10737863867E+03  0.12475079390E+03  0.00000000000E+00 0.  1.
</event>
<event>
12    1  0.1565987E-001  0.1825443E+03  0.7818608E-02  0.1165665E+00
         21   -1    0    0  501  502  0.00000000000E+00  0.00000000000E+00  0.10439670572E+03  0.10439670572E+03  0.00000000000E+00 0. -1.
         21   -1    0    0  502  503 -0.00000000000E+00 -0.00000000000E+00 -0.32738492797E+03  0.32738492797E+03  0.00000000000E+00 0.  1.
         -6    2    1    2    0  503 -0.47588539572E+02  0.31685999948E+02 -0.73380529071E+02  0.19674130013E+03  0.17336021873E+03 0.  0.
        -24    2    3    3    0    0 -0.65107887835E+02 -0.33468660836E+02 -0.22223379880E+02  0.11194034908E+03  0.81716429335E+02 0.  0.
          6    2    1    2  501    0  0.47588539572E+02 -0.31685999948E+02 -0.14960769319E+03  0.23504033356E+03  0.17202565171E+03 0.  0.
         24    2    5    5    0    0 -0.40857036900E+02 -0.12102997727E+02 -0.77071204698E+02  0.11889496716E+03  0.79876546019E+02 0.  0.
          5    1    5    5  501    0  0.88445576472E+02 -0.19583002221E+02 -0.72536488490E+02  0.11614536640E+03  0.47000000000E+01 0. -1.
        -13    1    6    6    0    0 -0.32800836856E+02 -0.43903770764E+02 -0.62131970795E+02  0.82848160997E+02  0.00000000000E+00 0.  1.
         14    1    6    6    0    0 -0.80562000439E+01  0.31800773037E+02 -0.14939233904E+02  0.36046806162E+02  0.00000000000E+00 0. -1.
         -5    1    3    3    0  503  0.17519348263E+02  0.65154660784E+02 -0.51157149191E+02  0.84800951048E+02  0.47000000000E+01 0.  1.
         13    1    4    4    0    0 -0.32206421456E+02 -0.15992634648E+02  0.30657887128E+02  0.47253825127E+02  0.00000000000E+00 0. -1.
        -14    1    4    4    0    0 -0.32901466379E+02 -0.17476026187E+02 -0.52881267008E+02  0.64686523957E+02  0.00000000000E+00 0.  1.
</event>
<event>
12    1  0.1565987E-001  0.2519206E+03  0.7818608E-02  0.1112314E+00
         21   -1    0    0  503  502  0.00000000000E+00  0.00000000000E+00  0.74509556748E+03  0.74509556748E+03  0.00000000000E+00 0. -1.
         21   -1    0    0  501  503 -0.00000000000E+00 -0.00000000000E+00 -0.95915769368E+02  0.95915769368E+02  0.00000000000E+00 0.  1.
          6    2    1    2  501    0  0.14138690618E+03  0.11649598924E+03  0.18005907472E+03  0.30852824860E+03  0.17090007912E+03 0.  0.
         24    2    3    3    0    0  0.14980338457E+03  0.96611650173E+02  0.87078731605E+02  0.21295807410E+03  0.77418155795E+02 0.  0.
         -6    2    1    2    0  502 -0.14138690618E+03 -0.11649598924E+03  0.46912072340E+03  0.53248308826E+03  0.17292314307E+03 0.  0.
        -24    2    5    5    0    0 -0.15058851664E+03 -0.13577157085E+03  0.35834643542E+03  0.41957050898E+03  0.80724367044E+02 0.  0.
          5    1    3    3  501    0 -0.84164783865E+01  0.19884339064E+02  0.92980343114E+02  0.95570174500E+02  0.47000000000E+01 0. -1.
        -11    1    4    4    0    0  0.74333614422E+01  0.28483539585E+02 -0.55459244783E+01  0.29955369601E+02  0.00000000000E+00 0.  1.
         12    1    4    4    0    0  0.14237002313E+03  0.68128110588E+02  0.92624656083E+02  0.18300270450E+03  0.00000000000E+00 0. -1.
         -5    1    5    5    0  502  0.92016104521E+01  0.19275581610E+02  0.11077428798E+03  0.11291257928E+03  0.47000000000E+01 0.  1.
         13    1    6    6    0    0  0.72689634632E+01 -0.17975303865E+02  0.18656277815E+02  0.26907361089E+02  0.00000000000E+00 0. -1.
        -14    1    6    6    0    0 -0.15785748010E+03 -0.11779626698E+03  0.33969015760E+03  0.39266314789E+03  0.00000000000E+00 0.  1.
</event>
<event>
12    1  0.1565987E-001  0.1934894E+03  0.7818608E-02  0.1155951E+00
         21   -1    0    0  503  502  0.00000000000E+00  0.00000000000E+00  0.12999339516E+04  0.12999339516E+04  0.00000000000E+00 0. -1.
         21   -1    0    0  501  503 -0.00000000000E+00 -0.00000000000E+00 -0.29176982797E+02  0.29176982797E+02  0.00000000000E+00 0. -1.
          6    2    1    2  501    0 -0.59885299183E+02 -0.65994463734E+02  0.53121098582E+03  0.56535232804E+03  0.17174581527E+03 0.  0.
         24    2    3    3    0    0 -0.97007716894E+02 -0.49172847904E+02  0.48646672815E+03  0.50464665079E+03  0.78675907683E+02 0.  0.
         -6    2    1    2    0  502  0.59885299183E+02  0.65994463734E+02  0.73954598295E+03  0.76375860633E+03  0.16869330020E+03 0.  0.
        -24    2    5    5    0    0  0.10753118560E+03  0.69579079891E+02  0.57537965500E+03  0.59271576608E+03  0.62016350581E+02 0.  0.
          5    1    3    3  501    0  0.37122417712E+02 -0.16821615830E+02  0.44744257666E+02  0.60705677247E+02  0.47000000000E+01 0. -1.
        -11    1    4    4    0    0  0.12383800670E+02  0.23421399925E+01  0.32654934705E+02  0.35002698458E+02  0.00000000000E+00 0.  1.
         12    1    4    4    0    0 -0.10939151756E+03 -0.51514987897E+02  0.45381179345E+03  0.46964395233E+03  0.00000000000E+00 0. -1.
         -5    1    5    5    0  502 -0.47645886414E+02 -0.35846161571E+01  0.16416632795E+03  0.17104284025E+03  0.47000000000E+01 0.  1.
         11    1    6    6    0    0  0.41759378997E+02  0.24893579313E+02  0.10559241240E+03  0.11624669278E+03  0.00000000000E+00 0. -1.
        -12    1    6    6    0    0  0.65771806599E+02  0.44685500578E+02  0.46978724260E+03  0.47646907331E+03  0.00000000000E+00 0.  1.
</event>
<event>
12    1  0.1565987E-001  0.2071403E+03  0.7818608E-02  0.1143908E+00
         21   -1    0    0  501  502  0.00000000000E+00  0.00000000000E+00  0.28708397133E+03  0.28708397133E+03  0.00000000000E+00 0.  1.
         21   -1    0    0  502  503 -0.00000000000E+00 -0.00000000000E+00 -0.17385447851E+03  0.17385447851E+03  0.00000000000E+00 0.  1.
         -6    2    1    2    0  503  0.10769611379E+03  0.40019754730E+02 -0.30111730534E+02  0.20903804434E+03  0.17201788852E+03 0.  0.
        -24    2    3    3    0    0  0.83737882079E+02 -0.28095499359E+02 -0.56627884468E+02  0.13197390789E+03  0.80056262004E+02 0.  0.
          6    2    1    2  501    0 -0.10769611379E+03 -0.40019754730E+02  0.14334122335E+03  0.25190040550E+03  0.17235740276E+03 0.  0.
         24    2    5    5    0    0 -0.59575390839E+02 -0.41701969643E+01  0.16094828679E+03  0.18918762011E+03  0.79504634123E+02 0.  0.
          5    1    5    5  501    0 -0.48120722948E+02 -0.35849557766E+02 -0.17607063432E+02  0.62712785393E+02  0.47000000000E+01 0. -1.
        -13    1    6    6    0    0 -0.62392111681E+02 -0.32891946191E+02  0.11678612963E+03  0.13643187237E+03  0.00000000000E+00 0.  1.
         14    1    6    6    0    0  0.28167208414E+01  0.28721749227E+02  0.44162157154E+02  0.52755747738E+02  0.00000000000E+00 0. -1.
         -5    1    3    3    0  503  0.23958231708E+02  0.68115254089E+02  0.26516153934E+02  0.77064136443E+02  0.47000000000E+01 0.  1.
         13    1    4    4    0    0  0.16884510963E+01 -0.36456466237E+02 -0.21255942287E+02  0.42234344793E+02  0.00000000000E+00 0. -1.
        -14    1    4    4    0    0  0.82049430983E+02  0.83609668783E+01 -0.35371942181E+02  0.89739563100E+02  0.00000000000E+00 0.  1.
</event>
<event>
12    1  0.1565987E-001  0.1993708E+03  0.7818608E-02  0.1150628E+00
         21   -1    0    0  501  502  0.00000000000E+00  0.00000000000E+00  0.18918839446E+03  0.18918839446E+03  0.00000000000E+00 0.  1.
         21   -1    0    0  502  503 -0.00000000000E+00 -0.00000000000E+00 -0.21501840917E+04  0.21501840917E+04  0.00000000000E+00 0.  1.
         -6    2    1    2    0  503  0.65087268412E+02 -0.73379427573E+02 -0.20916711551E+04  0.21009929509E+04  0.17164575650E+03 0.  0.
        -24    2    3    3    0    0 -0.21416687561E+02  0.35849858710E+01 -0.96340205254E+03  0.96678851027E+03  0.77877995114E+02 0.  0.
          6    2    1    2  501    0 -0.65087268412E+02  0.73379427573E+02  0.13067545786E+03  0.23837953527E+03  0.17357371531E+03 0.  0.
         24    2    5    5    0    0 -0.66031512829E+02  0.66797386147E+02  0.16342116044E+03  0.20463659669E+03  0.79671886775E+02 0.  0.
          5    1    5    5  501    0  0.94424441694E+00  0.65820414256E+01 -0.32745702577E+02  0.33742938582E+02  0.47000000000E+01 0. -1.
        -11    1    6    6    0    0 -0.77654278561E+02  0.75310470186E+02  0.15007164004E+03  0.18499554330E+03  0.00000000000E+00 0.  1.
         12    1    6    6    0    0  0.11622765732E+02 -0.85130840389E+01  0.13349520402E+02  0.19641053385E+02  0.00000000000E+00 0. -1.
         -5    1    3    3    0  503  0.86503955973E+02 -0.76964413444E+02 -0.11282691025E+04  0.11342044406E+04  0.47000000000E+01 0.  1.
         13    1    4    4    0    0 -0.15017946424E+01  0.40702487575E+01 -0.13691541381E+01  0.45493840406E+01  0.00000000000E+00 0. -1.
        -14    1    4    4    0    0 -0.19914892919E+02 -0.48526288650E+00 -0.96203289840E+03  0.96223912623E+03  0.00000000000E+00 0.  1.
</event>
<event>
12    1  0.1565987E-001  0.2044154E+03  0.7818608E-02  0.1146850E+00
         21   -1    0    0  501  502  0.00000000000E+00  0.00000000000E+00  0.34114010526E+03  0.34114010526E+03  0.00000000000E+00 0.  1.
         21   -1    0    0  502  503 -0.00000000000E+00 -0.00000000000E+00 -0.17674558655E+03  0.17674558655E+03  0.00000000000E+00 0. -1.
         -6    2    1    2    0  503 -0.36517953983E+02 -0.97971591194E+02 -0.63698190111E+02  0.21411001361E+03  0.17565205624E+03 0.  0.
        -24    2    3    3    0    0  0.14177009294E+02 -0.12375517038E+02  0.19602792044E+02  0.84272381008E+02  0.79771070761E+02 0.  0.
          6    2    1    2  501    0  0.36517953983E+02  0.97971591194E+02  0.22809270882E+03  0.30377567820E+03  0.17123488314E+03 0.  0.
         24    2    5    5    0    0 -0.21834194879E+02 -0.13508160059E+01  0.11860256385E+03  0.14477852195E+03  0.80098036782E+02 0.  0.
          5    1    5    5  501    0  0.58352148862E+02  0.99322407200E+02  0.10949014497E+03  0.15899715625E+03  0.47000000000E+01 0. -1.
        -11    1    6    6    0    0 -0.41361748624E+02 -0.84565729964E+01  0.11647461302E+03  0.12388964184E+03  0.00000000000E+00 0.  1.
         12    1    6    6    0    0  0.19527553745E+02  0.71057569905E+01  0.21279508293E+01  0.20888880114E+02  0.00000000000E+00 0. -1.
         -5    1    3    3    0  503 -0.50694963278E+02 -0.85596074156E+02 -0.83300982156E+02  0.12983763261E+03  0.47000000000E+01 0.  1.
         13    1    4    4    0    0  0.17306815796E+02  0.32437583763E+02  0.12246609517E+02  0.38751801997E+02  0.00000000000E+00 0. -1.
        -14    1    4    4    0    0 -0.31298065013E+01 -0.44813100801E+02  0.73561825275E+01  0.45520579011E+02  0.00000000000E+00 0.  1.
</event>
<event>
12    1  0.1565987E-001  0.3083146E+03  0.7818608E-02  0.1081211E+00
         21   -1    0    0  503  502  0.00000000000E+00  0.00000000000E+00  0.14201767023E+03  0.14201767023E+03  0.00000000000E+00 0.  1.
         21   -1    0    0  501  503 -0.00000000000E+00 -0.00000000000E+00 -0.12023515055E+04  0.12023515055E+04  0.00000000000E+00 0. -1.
          6    2    1    2  501    0  0.11414345806E+03 -0.22855869357E+03 -0.97791089731E+03  0.10252275023E+04  0.17179610886E+03 0.  0.
         24    2    3    3    0    0  0.66919376556E+02 -0.23727372803E+03 -0.84344486154E+03  0.88236648429E+03  0.79964699434E+02 0.  0.
         -6    2    1    2    0  502 -0.11414345806E+03  0.22855869357E+03 -0.82422937914E+02  0.31914167337E+03  0.17259797671E+03 0.  0.
        -24    2    5    5    0    0 -0.69837055936E+02  0.53113635109E+02 -0.64123574927E+02  0.13720491927E+03  0.83756100635E+02 0.  0.
          5    1    3    3  501    0  0.47224081500E+02  0.87150344665E+01 -0.13446603577E+03  0.14286101804E+03  0.47000000000E+01 0. -1.
        -11    1    4    4    0    0 -0.32161311721E+01 -0.77210004125E+02 -0.17217259484E+03  0.18871971453E+03  0.00000000000E+00 0.  1.
         12    1    4    4    0    0  0.70135507728E+02 -0.16006372391E+03 -0.67127226670E+03  0.69364676976E+03  0.00000000000E+00 0. -1.
         -5    1    5    5    0  502 -0.44306402121E+02  0.17544505846E+03 -0.18299362988E+02  0.18193675410E+03  0.47000000000E+01 0.  1.
         13    1    6    6    0    0 -0.60314833187E+02  0.74848912590E+02 -0.59434733611E+02  0.11301648719E+03  0.00000000000E+00 0. -1.
        -14    1    6    6    0    0 -0.95222227490E+01 -0.21735277482E+02 -0.46888413154E+01  0.24188432073E+02  0.00000000000E+00 0.  1.
</event>
<event>
12    1  0.1565987E-001  0.2095095E+03  0.7818608E-02  0.1142111E+00
         21   -1    0    0  501  502  0.00000000000E+00  0.00000000000E+00  0.35117599999E+03  0.35117599999E+03  0.00000000000E+00 0. -1.
         21   -1    0    0  502  503 -0.00000000000E+00 -0.00000000000E+00 -0.12478802918E+03  0.12478802918E+03  0.00000000000E+00 0.  1.
         -6    2    1    2    0  503  0.83051379236E+02  0.86275371732E+02  0.12391077175E+03  0.24273490058E+03  0.17095432501E+03 0.  0.
        -24    2    3    3    0    0  0.66354019271E+02  0.85606210096E+02  0.20983221912E+02  0.13835377142E+03  0.83487672053E+02 0.  0.
          6    2    1    2  501    0 -0.83051379236E+02 -0.86275371732E+02  0.10247719906E+03  0.23322912859E+03  0.17191067081E+03 0.  0.
         24    2    5    5    0    0 -0.44981067170E+02 -0.51707100447E+02  0.13651754325E+03  0.17138133904E+03  0.77702014867E+02 0.  0.
          5    1    5    5  501    0 -0.38070312066E+02 -0.34568271285E+02 -0.34040344190E+02  0.61847789556E+02  0.47000000000E+01 0. -1.
        -11    1    6    6    0    0  0.75731652667E+01 -0.59323978792E+01 -0.69590929553E+01  0.11873295731E+02  0.00000000000E+00 0.  1.
         12    1    6    6    0    0 -0.52554232437E+02 -0.45774702568E+02  0.14347663621E+03  0.15950804331E+03  0.00000000000E+00 0. -1.
         -5    1    3    3    0  503  0.16697359965E+02  0.66916163613E+00  0.10292754984E+03  0.10438112915E+03  0.47000000000E+01 0.  1.
         13    1    4    4    0    0  0.48362086439E+01 -0.12337765013E+02  0.18385601850E+02  0.22663620959E+02  0.00000000000E+00 0. -1.
        -14    1    4    4    0    0  0.61517810627E+02  0.97943975109E+02  0.25976200616E+01  0.11569015046E+03  0.00000000000E+00 0.  1.
</event>
<event>
12    1  0.1565987E-001  0.1842896E+03  0.7818608E-02  0.1163774E+00
         21   -1    0    0  501  502  0.00000000000E+00  0.00000000000E+00  0.52527698600E+03  0.52527698600E+03  0.00000000000E+00 0.  1.
         21   -1    0    0  502  503 -0.00000000000E+00 -0.00000000000E+00 -0.24212030596E+03  0.24212030596E+03  0.00000000000E+00 0.  1.
         -6    2    1    2    0  503 -0.41623198565E+02 -0.51512202552E+02 -0.18697263740E+03  0.26252893237E+03  0.17197870660E+03 0.  0.
        -24    2    3    3    0    0 -0.20833554048E+02 -0.85504211674E+02 -0.18685916361E+03  0.22240700720E+03  0.82483468870E+02 0.  0.
          6    2    1    2  501    0  0.41623198565E+02  0.51512202552E+02  0.47012931744E+03  0.50486835959E+03  0.17171047645E+03 0.  0.
         24    2    5    5    0    0  0.71264267854E+01  0.19770287341E+02  0.93002539996E+02  0.12481011048E+03  0.80538444316E+02 0.  0.
          5    1    5    5  501    0  0.34496771779E+02  0.31741915211E+02  0.37712677745E+03  0.38005824910E+03  0.47000000000E+01 0. -1.
        -11    1    6    6    0    0  0.26943235592E+02  0.43081353109E+02  0.70159972663E+02  0.86627724742E+02  0.00000000000E+00 0.  1.
         12    1    6    6    0    0 -0.19816808807E+02 -0.23311065768E+02  0.22842567333E+02  0.38182385741E+02  0.00000000000E+00 0. -1.
         -5    1    3    3    0  503 -0.20789644517E+02  0.33992009122E+02 -0.11347379435E+00  0.40121925173E+02  0.47000000000E+01 0.  1.
         13    1    4    4    0    0  0.16461927048E+02  0.18549115419E+01 -0.51155217116E+01  0.17337943977E+02  0.00000000000E+00 0. -1.
        -14    1    4    4    0    0 -0.37295481096E+02 -0.87359123215E+02 -0.18174364190E+03  0.20506906322E+03  0.00000000000E+00 0.  1.
</event>
<event>
12    1  0.1565987E-001  0.1825689E+03  0.7818608E-02  0.1166754E+00
         21   -1    0    0  503  502  0.00000000000E+00  0.00000000000E+00  0.37291434290E+03  0.37291434290E+03  0.00000000000E+00 0. -1.
         21   -1    0    0  501  503 -0.00000000000E+00 -0.00000000000E+00 -0.55248704497E+03  0.55248704497E+03  0.00000000000E+00 0. -1.
          6    2    1    2  501    0 -0.40161415292E+02  0.49374294903E+02 -0.51492662973E+03  0.54633399394E+03  0.17111586323E+03 0.  0.
         24    2    3    3    0    0 -0.32048787782E+02 -0.25274643932E+02 -0.15920117044E+03  0.18273947915E+03  0.79892253359E+02 0.  0.
         -6    2    1    2    0  502  0.40161415292E+02 -0.49374294903E+02  0.33535392766E+03  0.37906739394E+03  0.16486076572E+03 0.  0.
        -24    2    5    5    0    0  0.69255448115E+02 -0.67877277853E+01  0.13231493360E+03  0.16952741791E+03  0.79936934060E+02 0.  0.
          5    1    3    3  501    0 -0.81126275103E+01  0.74648938834E+02 -0.35572545929E+03  0.36359451478E+03  0.47000000000E+01 0. -1.
        -13    1    4    4    0    0 -0.47187105182E+02 -0.36920024991E+02 -0.15003283188E+03  0.16155358796E+03  0.00000000000E+00 0.  1.
         14    1    4    4    0    0  0.15138317400E+02  0.11645381059E+02 -0.91683385665E+01  0.21185891197E+02  0.00000000000E+00 0. -1.
         -5    1    5    5    0  502 -0.29094032823E+02 -0.42586567117E+02  0.20303899407E+03  0.20953997603E+03  0.47000000000E+01 0.  1.
         13    1    6    6    0    0  0.34219295105E+02 -0.41891110025E+02  0.51372069402E+02  0.74598356357E+02  0.00000000000E+00 0. -1.
        -14    1    6    6    0    0  0.35036153010E+02  0.35103382239E+02  0.80942864195E+02  0.94929061548E+02  0.00000000000E+00 0.  1.
</event>
<event>
12    1  0.1565987E-001  0.2072192E+03  0.7818608E-02  0.1143794E+00
         21   -1    0    0  501  502  0.00000000000E+00  0.00000000000E+00  0.12498599456E+03  0.12498599456E+03  0.00000000000E+00 0.  1.
         21   -1    0    0  502  503 -0.00000000000E+00 -0.00000000000E+00 -0.45725878935E+03  0.45725878935E+03  0.00000000000E+00 0.  1.
         -6    2    1    2    0  503  0.10108028266E+03  0.56616899722E+02 -0.31134955961E+03  0.37400314149E+03  0.17180542685E+03 0.  0.
        -24    2    3    3    0    0  0.48632851948E+02  0.40796166028E+02 -0.60452966285E+02  0.11715256402E+03  0.77721815938E+02 0.  0.
          6    2    1    2  501    0 -0.10108028266E+03 -0.56616899722E+02 -0.20923235176E+02  0.20824164243E+03  0.17176758423E+03 0.  0.
         24    2    5    5    0    0 -0.70121814844E+02  0.28712836913E+02 -0.36751829059E+02  0.11597992193E+03  0.79744275230E+02 0.  0.
          5    1    5    5  501    0 -0.30958467816E+02 -0.85329736635E+02  0.15828593883E+02  0.92261720491E+02  0.47000000000E+01 0. -1.
        -13    1    6    6    0    0 -0.19201958497E+02  0.12532965240E+02  0.25267008622E+02  0.34120553227E+02  0.00000000000E+00 0.  1.
         14    1    6    6    0    0 -0.50919856347E+02  0.16179871672E+02 -0.62018837681E+02  0.81859368706E+02  0.00000000000E+00 0. -1.
         -5    1    3    3    0  503  0.52447430713E+02  0.15820733694E+02 -0.25089659333E+03  0.25685057747E+03  0.47000000000E+01 0.  1.
         13    1    4    4    0    0 -0.11960043121E+02 -0.10467042652E+02  0.21864806889E+01  0.16043139068E+02  0.00000000000E+00 0. -1.
        -14    1    4    4    0    0  0.60592895068E+02  0.51263208681E+02 -0.62639446974E+02  0.10110942495E+03  0.00000000000E+00 0.  1.
</event>
<event>
12    1  0.1565987E-001  0.2335682E+03  0.7818608E-02  0.1124376E+00
         21   -1    0    0  503  502  0.00000000000E+00  0.00000000000E+00  0.25429565421E+04  0.25429565421E+04  0.00000000000E+00 0.  1.
         21   -1    0    0  501  503 -0.00000000000E+00 -0.00000000000E+00 -0.22371438350E+02  0.22371438350E+02  0.00000000000E+00 0. -1.
          6    2    1    2  501    0 -0.11808523912E+03 -0.10558607621E+03  0.98083742927E+03  0.10079657789E+04  0.16988350573E+03 0.  0.
         24    2    3    3    0    0 -0.63554727405E+02 -0.50413288805E+02  0.83518158428E+03  0.84287390033E+03  0.79545144891E+02 0.  0.
         -6    2    1    2    0  502  0.11808523912E+03  0.10558607621E+03  0.15397476745E+04  0.15573622016E+04  0.17164376677E+03 0.  0.
        -24    2    5    5    0    0 -0.25792343714E+01  0.57129166190E+02  0.54497204140E+03  0.55411316099E+03  0.82319348825E+02 0.  0.
          5    1    3    3  501    0 -0.54530511716E+02 -0.55172787407E+02  0.14565584499E+03  0.16509187853E+03  0.47000000000E+01 0. -1.
        -13    1    4    4    0    0 -0.34771794683E+02  0.63871024356E+01  0.52689521311E+03  0.52807995454E+03  0.00000000000E+00 0.  1.
         14    1    4    4    0    0 -0.28782932722E+02 -0.56800391240E+02  0.30828637117E+03  0.31479394580E+03  0.00000000000E+00 0. -1.
         -5    1    5    5    0  502  0.12066447349E+03  0.48456910022E+02  0.99477563308E+03  0.10032490406E+04  0.47000000000E+01 0.  1.
         13    1    6    6    0    0  0.16065959893E+02  0.63840075445E+01  0.20302779438E+02  0.26665960934E+02  0.00000000000E+00 0. -1.
        -14    1    6    6    0    0 -0.18645194265E+02  0.50745158646E+02  0.52466926196E+03  0.52744720005E+03  0.00000000000E+00 0.  1.
</event>
<event>
12    1  0.1565987E-001  0.2107645E+03  0.7818608E-02  0.1141228E+00
         21   -1    0    0  501  502  0.00000000000E+00  0.00000000000E+00  0.14350409073E+04  0.14350409073E+04  0.00000000000E+00 0.  1.
         21   -1    0    0  502  503 -0.00000000000E+00 -0.00000000000E+00 -0.10661648694E+03  0.10661648694E+03  0.00000000000E+00 0. -1.
         -6    2    1    2    0  503  0.88400564549E+02 -0.81526326428E+02  0.13398555094E+02  0.20984858258E+03  0.17145175595E+03 0.  0.
        -24    2    3    3    0    0  0.54190913268E+02  0.11587430072E+02  0.29543940612E+02  0.10923429253E+03  0.89377640493E+02 0.  0.
          6    2    1    2  501    0 -0.88400564549E+02  0.81526326428E+02  0.13150258653E+04  0.13318088117E+04  0.17309096677E+03 0.  0.
         24    2    5    5    0    0 -0.10946051143E+03  0.10728263108E+03  0.11916025579E+04  0.12038935609E+04  0.77148449964E+02 0.  0.
          5    1    5    5  501    0  0.21059946885E+02 -0.25756304649E+02  0.12342330738E+03  0.12791525084E+03  0.47000000000E+01 0. -1.
        -11    1    6    6    0    0 -0.61330260781E+02  0.89575395447E+02  0.98739063687E+03  0.99334053685E+03  0.00000000000E+00 0.  1.
         12    1    6    6    0    0 -0.48130250654E+02  0.17707235631E+02  0.20421192106E+03  0.21055302402E+03  0.00000000000E+00 0. -1.
         -5    1    3    3    0  503  0.34209651281E+02 -0.93113756500E+02 -0.16145385518E+02  0.10061429006E+03  0.47000000000E+01 0.  1.
         11    1    4    4    0    0  0.24531164932E+02  0.46023177056E+01 -0.31986537375E+02  0.40572132732E+02  0.00000000000E+00 0. -1.
        -12    1    4    4    0    0  0.29659748336E+02  0.69851123660E+01  0.61530477987E+02  0.68662159793E+02  0.00000000000E+00 0.  1.
</event>
<event>
12    1  0.1565987E-001  0.2228634E+03  0.7818608E-02  0.1132082E+00
         21   -1    0    0  503  502  0.00000000000E+00  0.00000000000E+00  0.13796537953E+03  0.13796537953E+03  0.00000000000E+00 0. -1.
         21   -1    0    0  501  503 -0.00000000000E+00 -0.00000000000E+00 -0.50995173482E+03  0.50995173482E+03  0.00000000000E+00 0. -1.
          6    2    1    2  501    0 -0.17859630227E+02  0.13845787705E+03 -0.36276942058E+03  0.42486317352E+03  0.17151534509E+03 0.  0.
         24    2    3    3    0    0  0.54571200971E+02  0.97488368858E+02 -0.25888306193E+03  0.29167461763E+03  0.74643450978E+02 0.  0.
         -6    2    1    2    0  502  0.17859630227E+02 -0.13845787705E+03 -0.92169347119E+01  0.22305394083E+03  0.17371977010E+03 0.  0.
        -24    2    5    5    0    0 -0.44292750567E+02 -0.10868551959E+03  0.27088962203E+02  0.14501856514E+03  0.80760029978E+02 0.  0.
          5    1    3    3  501    0 -0.72430831198E+02  0.40969508191E+02 -0.10388635865E+03  0.13318855590E+03  0.47000000000E+01 0. -1.
        -11    1    4    4    0    0  0.24069299863E+02 -0.61344569097E+01 -0.33105366254E+02  0.41387534745E+02  0.00000000000E+00 0.  1.
         12    1    4    4    0    0  0.30501901108E+02  0.10362282577E+03 -0.22577769568E+03  0.25028708288E+03  0.00000000000E+00 0. -1.
         -5    1    5    5    0  502  0.62152380794E+02 -0.29772357461E+02 -0.36305896915E+02  0.78035375682E+02  0.47000000000E+01 0.  1.
         13    1    6    6    0    0  0.22847055887E+02 -0.36059551957E+02  0.15594635973E+02  0.45447463309E+02  0.00000000000E+00 0. -1.
        -14    1    6    6    0    0 -0.67139806454E+02 -0.72625967631E+02  0.11494326230E+02  0.99571101835E+02  0.00000000000E+00 0.  1.
</event>
<event>
12    1  0.1565987E-001  0.2498843E+03  0.7818608E-02  0.1113772E+00
         21   -1    0    0  503  502  0.00000000000E+00  0.00000000000E+00  0.66474706103E+03  0.66474706103E+03  0.00000000000E+00 0. -1.
         21   -1    0    0  501  503 -0.00000000000E+00 -0.00000000000E+00 -0.29580364009E+03  0.29580364009E+03  0.00000000000E+00 0. -1.
          6    2    1    2  501    0  0.73486706347E+02  0.16441157233E+03 -0.21290635033E+03  0.32828539519E+03  0.17323604002E+03 0.  0.
         24    2    3    3    0    0 -0.25473087222E+02  0.55385397100E+02 -0.10371241363E+03  0.14491376860E+03  0.80791801591E+02 0.  0.
         -6    2    1    2    0  502 -0.73486706347E+02 -0.16441157233E+03  0.58184977126E+03  0.63226530593E+03  0.16964315383E+03 0.  0.
        -24    2    5    5    0    0 -0.16340102557E+02 -0.15484796621E+03  0.32857695836E+03  0.37240687400E+03  0.80493295687E+02 0.  0.
          5    1    3    3  501    0  0.98959793569E+02  0.10902617523E+03 -0.10919393670E+03  0.18337162659E+03  0.47000000000E+01 0. -1.
        -11    1    4    4    0    0 -0.31584524705E+02  0.25728534870E+02 -0.42667059536E+01  0.40960279382E+02  0.00000000000E+00 0.  1.
         12    1    4    4    0    0  0.61114374824E+01  0.29656862231E+02 -0.99445707675E+02  0.10395348922E+03  0.00000000000E+00 0. -1.
         -5    1    5    5    0  502 -0.57146603790E+02 -0.95636061148E+01  0.25327281291E+03  0.25985843193E+03  0.47000000000E+01 0.  1.
         11    1    6    6    0    0  0.31852115918E+02 -0.72967927556E+02  0.13388162500E+03  0.15576638037E+03  0.00000000000E+00 0. -1.
        -12    1    6    6    0    0 -0.48192218475E+02 -0.81880038656E+02  0.19469533336E+03  0.21664049364E+03  0.00000000000E+00 0.  1.
</event>
<event>
12    1  0.1565987E-001  0.2036705E+03  0.7818608E-02  0.1146919E+00
         21   -1    0    0  503  502  0.00000000000E+00  0.00000000000E+00  0.18970498828E+03  0.18970498828E+03  0.00000000000E+00 0. -1.
         21   -1    0    0  501  503 -0.00000000000E+00 -0.00000000000E+00 -0.65434418958E+03  0.65434418958E+03  0.00000000000E+00 0. -1.
          6    2    1    2  501    0 -0.26816414575E+02  0.10333746224E+03 -0.57695534540E+03  0.61146241939E+03  0.17207866964E+03 0.  0.
         24    2    3    3    0    0 -0.69823851741E+02  0.30013445843E+02 -0.25138805676E+03  0.27494763448E+03  0.81388386268E+02 0.  0.
         -6    2    1    2    0  502  0.26816414575E+02 -0.10333746224E+03  0.11231614410E+03  0.23258675847E+03  0.17344720465E+03 0.  0.
        -24    2    5    5    0    0  0.20424021761E+02 -0.13608739993E+03  0.12125763552E+03  0.19772329087E+03  0.73852315455E+02 0.  0.
          5    1    3    3  501    0  0.43007437165E+02  0.73324016395E+02 -0.32556728864E+03  0.33651478491E+03  0.47000000000E+01 0. -1.
        -13    1    4    4    0    0  0.17353949229E+02 -0.38122777263E+01 -0.44042745939E+02  0.47491646478E+02  0.00000000000E+00 0.  1.
         14    1    4    4    0    0 -0.87177800970E+02  0.33825723570E+02 -0.20734531082E+03  0.22745598800E+03  0.00000000000E+00 0. -1.
         -5    1    5    5    0  502  0.63923928143E+01  0.32749937688E+02 -0.89414914222E+01  0.34863467603E+02  0.47000000000E+01 0.  1.
         11    1    6    6    0    0  0.42901059399E+02 -0.56567758926E+02  0.73910293304E+02  0.10248484622E+03  0.00000000000E+00 0. -1.
        -12    1    6    6    0    0 -0.22477037638E+02 -0.79519641000E+02  0.47347342214E+02  0.95238444656E+02  0.00000000000E+00 0.  1.
</event>
<event>
12    1  0.1565987E-001  0.2014204E+03  0.7818608E-02  0.1148768E+00
         21   -1    0    0  503  502  0.00000000000E+00  0.00000000000E+00  0.71961715716E+03  0.71961715716E+03  0.00000000000E+00 0.  1.
         21   -1    0    0  501  503 -0.00000000000E+00 -0.00000000000E+00 -0.56233427087E+02  0.56233427087E+02  0.00000000000E+00 0. -1.
          6    2    1    2  501    0  0.49662917975E+02 -0.90102866260E+02  0.31064338055E+03  0.36965368254E+03  0.17192906448E+03 0.  0.
         24    2    3    3    0    0 -0.38967407709E+02 -0.13218908691E+02  0.15360248270E+03  0.17356591862E+03  0.69557221094E+02 0.  0.
         -6    2    1    2    0  502 -0.49662917975E+02  0.90102866260E+02  0.35274034953E+03  0.40619690171E+03  0.17316245794E+03 0.  0.
        -24    2    5    5    0    0 -0.87443553841E+02  0.15858096969E+02  0.20434487867E+03  0.23595305311E+03  0.77583242295E+02 0.  0.
          5    1    3    3  501    0  0.88630325684E+02 -0.76883957569E+02  0.15704089785E+03  0.19608776392E+03  0.47000000000E+01 0. -1.
        -13    1    4    4    0    0 -0.60870243792E+01  0.19525759777E+02  0.10224968627E+02  0.22866069712E+02  0.00000000000E+00 0.  1.
         14    1    4    4    0    0 -0.32880383330E+02 -0.32744668468E+02  0.14337751407E+03  0.15069984891E+03  0.00000000000E+00 0. -1.
         -5    1    5    5    0  502  0.37780635866E+02  0.74244769291E+02  0.14839547086E+03  0.17024384860E+03  0.47000000000E+01 0.  1.
         13    1    6    6    0    0 -0.28770177051E+02  0.43859788936E+02  0.80512163476E+02  0.96091688718E+02  0.00000000000E+00 0. -1.
        -14    1    6    6    0    0 -0.58673376790E+02 -0.28001691968E+02  0.12383271519E+03  0.13986136439E+03  0.00000000000E+00 0.  1.
</event>
<event>
12    1  0.1565987E-001  0.2334699E+03  0.7818608E-02  0.1124228E+00
         21   -1    0    0  501  502  0.00000000000E+00  0.00000000000E+00  0.15837551616E+04  0.15837551616E+04  0.00000000000E+00 0.  1.
         21   -1    0    0  502  503 -0.00000000000E+00 -0.00000000000E+00 -0.42865081965E+02  0.42865081965E+02  0.00000000000E+00 0.  1.
         -6    2    1    2    0  503 -0.56217184362E+01  0.15802073543E+03  0.40931329978E+03  0.47121709676E+03  0.17177315960E+03 0.  0.
        -24    2    3    3    0    0 -0.30078567516E+02  0.13307852675E+03  0.17980871211E+03  0.23902171136E+03  0.78648528559E+02 0.  0.
          6    2    1    2  501    0  0.56217184362E+01 -0.15802073543E+03  0.11315767799E+04  0.11554031468E+04  0.17172147913E+03 0.  0.
         24    2    5    5    0    0 -0.16352637899E+02 -0.25016136184E+02  0.26044585143E+03  0.27389065102E+03  0.79314761271E+02 0.  0.
          5    1    5    5  501    0  0.21974356335E+02 -0.13300459924E+03  0.87113092844E+03  0.88151249580E+03  0.47000000000E+01 0. -1.
        -13    1    6    6    0    0 -0.28141834048E+02 -0.15235975516E+02  0.25592721821E+03  0.25792021788E+03  0.00000000000E+00 0.  1.
         14    1    6    6    0    0  0.11789196149E+02 -0.97801606684E+01  0.45186332242E+01  0.15970433142E+02  0.00000000000E+00 0. -1.
         -5    1    3    3    0  503  0.24456849079E+02  0.24942208676E+02  0.22950458767E+03  0.23219538540E+03  0.47000000000E+01 0.  1.
         11    1    4    4    0    0 -0.44058000807E+02  0.52194452434E+02  0.47062263675E+02  0.82947121482E+02  0.00000000000E+00 0. -1.
        -12    1    4    4    0    0  0.13979433291E+02  0.80884074316E+02  0.13274644844E+03  0.15607458988E+03  0.00000000000E+00 0.  1.
</event>
<event>
12    1  0.1565987E-001  0.1868621E+03  0.7818608E-02  0.1161331E+00
         21   -1    0    0  501  502  0.00000000000E+00  0.00000000000E+00  0.62850132992E+02  0.62850132992E+02  0.00000000000E+00 0.  1.
         21   -1    0    0  502  503 -0.00000000000E+00 -0.00000000000E+00 -0.83147407434E+03  0.83147407434E+03  0.00000000000E+00 0. -1.
         -6    2    1    2    0  503 -0.45482219564E+02  0.54797393021E+02 -0.64197490149E+03  0.66861739538E+03  0.17276012468E+03 0.  0.
        -24    2    3    3    0    0 -0.40102705345E+02  0.29961717229E+02 -0.63473372558E+03  0.64177946338E+03  0.80548406293E+02 0.  0.
          6    2    1    2  501    0  0.45482219564E+02 -0.54797393021E+02 -0.12664903985E+03  0.22570681195E+03  0.17272000199E+03 0.  0.
         24    2    5    5    0    0  0.90112145311E+02 -0.93191857553E+01 -0.66236565385E+02  0.13777584653E+03  0.79924059816E+02 0.  0.
          5    1    5    5  501    0 -0.44629925747E+02 -0.45478207266E+02 -0.60412474468E+02  0.87930965420E+02  0.47000000000E+01 0. -1.
        -11    1    6    6    0    0  0.50392570276E+01 -0.22033812833E+02 -0.43153752673E+02  0.48714775881E+02  0.00000000000E+00 0.  1.
         12    1    6    6    0    0  0.85072888283E+02  0.12714627077E+02 -0.23082812712E+02  0.89061070649E+02  0.00000000000E+00 0. -1.
         -5    1    3    3    0  503 -0.53795142185E+01  0.24835675793E+02 -0.72411759145E+01  0.26837931998E+02  0.47000000000E+01 0.  1.
         13    1    4    4    0    0 -0.52286768126E+02 -0.67694702932E+01 -0.27821987716E+03  0.28317138255E+03  0.00000000000E+00 0. -1.
        -14    1    4    4    0    0  0.12184062780E+02  0.36731187522E+02 -0.35651384842E+03  0.35860808083E+03  0.00000000000E+00 0.  1.
</event>
<event>
12    1  0.1565987E-001  0.1849533E+03  0.7818608E-02  0.1164366E+00
         21   -1    0    0  503  502  0.00000000000E+00  0.00000000000E+00  0.29561005885E+02  0.29561005885E+02  0.00000000000E+00 0. -1.
         21   -1    0    0  501  503 -0.00000000000E+00 -0.00000000000E+00 -0.11249980677E+04  0.11249980677E+04  0.00000000000E+00 0. -1.
          6    2    1    2  501    0  0.50367473870E+02  0.27837461460E+02 -0.55779154781E+03  0.58599033916E+03  0.17012189776E+03 0.  0.
         24    2    3    3    0    0 -0.35770665050E+02  0.48590692547E+01 -0.22766824807E+03  0.24400895295E+03  0.80027413473E+02 0.  0.
         -6    2    1    2    0  502 -0.50367473870E+02 -0.27837461460E+02 -0.53764551402E+03  0.56856873444E+03  0.17577229689E+03 0.  0.
        -24    2    5    5    0    0 -0.96763044239E+02 -0.29624672777E+01 -0.43969432620E+03  0.45726806292E+03  0.79944467802E+02 0.  0.
          5    1    3    3  501    0  0.86138138920E+02  0.22978392206E+02 -0.33012329974E+03  0.34198138621E+03  0.47000000000E+01 0. -1.
        -11    1    4    4    0    0 -0.23397231753E+02  0.75220246761E+01 -0.10923325087E+02  0.26894801354E+02  0.00000000000E+00 0.  1.
         12    1    4    4    0    0 -0.12373433297E+02 -0.26629554214E+01 -0.21674492298E+03  0.21711415159E+03  0.00000000000E+00 0. -1.
         -5    1    5    5    0  502  0.46395570369E+02 -0.24874994183E+02 -0.97951187823E+02  0.11130067152E+03  0.47000000000E+01 0.  1.
         13    1    6    6    0    0 -0.64111237565E+02 -0.36841333238E+02 -0.20561153336E+03  0.21850317450E+03  0.00000000000E+00 0. -1.
        -14    1    6    6    0    0 -0.32651806673E+02  0.33878865960E+02 -0.23408279284E+03  0.23876488842E+03  0.00000000000E+00 0.  1.
</event>
<event>
12    1  0.1565987E-001  0.2449830E+03  0.7818608E-02  0.1117108E+00
         21   -1    0    0  501  502  0.00000000000E+00  0.00000000000E+00  0.25421149410E+04  0.25421149410E+04  0.00000000000E+00 0. -1.
         21   -1    0    0  502  503 -0.00000000000E+00 -0.00000000000E+00 -0.40102533054E+02  0.40102533054E+02  0.00000000000E+00 0.  1.
         -6    2    1    2    0  503  0.16892165557E+03 -0.13008030668E+02  0.40894910420E+03  0.47486589994E+03  0.17191427667E+03 0.  0.
        -24    2    3    3    0    0  0.10458422463E+03  0.19311870779E+02  0.12617453505E+03  0.18303130980E+03  0.79181049991E+02 0.  0.
          6    2    1    2  501    0 -0.16892165557E+03  0.13008030668E+02  0.20930633037E+04  0.21073515741E+04  0.17695459537E+03 0.  0.
         24    2    5    5    0    0 -0.10525364304E+03  0.89813951971E+01  0.18851554763E+04  0.18898255198E+04  0.80438364070E+02 0.  0.
          5    1    5    5  501    0 -0.63668012529E+02  0.40266354714E+01  0.20790782736E+03  0.21752605428E+03  0.47000000000E+01 0. -1.
        -13    1    6    6    0    0 -0.37092357656E+01  0.27024480281E+02  0.55929695308E+03  0.55996175110E+03  0.00000000000E+00 0.  1.
         14    1    6    6    0    0 -0.10154440727E+03 -0.18043085084E+02  0.13258585233E+04  0.13298637687E+04  0.00000000000E+00 0. -1.
         -5    1    3    3    0  503  0.64337430940E+02 -0.32319901448E+02  0.28277456914E+03  0.29183459014E+03  0.47000000000E+01 0.  1.
         11    1    4    4    0    0  0.55586925703E+02  0.22730035195E+02  0.11913163756E+03  0.13341254768E+03  0.00000000000E+00 0. -1.
        -12    1    4    4    0    0  0.48997298923E+02 -0.34181644158E+01  0.70428974914E+01  0.49618762125E+02  0.00000000000E+00 0.  1.
</event>
<event>
12    1  0.1565987E-001  0.1803437E+03  0.7818608E-02  0.1167982E+00
         21   -1    0    0  501  502  0.00000000000E+00  0.00000000000E+00  0.14267677303E+03  0.14267677303E+03  0.00000000000E+00 0. -1.
         21   -1    0    0  502  503 -0.00000000000E+00 -0.00000000000E+00 -0.39744301871E+03  0.39744301871E+03  0.00000000000E+00 0. -1.
         -6    2    1    2    0  503  0.32490998775E+02 -0.41890061630E+02 -0.30553603509E+03  0.35479024768E+03  0.17237577801E+03 0.  0.
        -24    2    3    3    0    0  0.66085184030E+02 -0.60843413861E+02 -0.28825564254E+03  0.31226377580E+03  0.79675452079E+02 0.  0.
          6    2    1    2  501    0 -0.32490998775E+02  0.41890061630E+02  0.50769789415E+02  0.18532954405E+03  0.17017351767E+03 0.  0.
         24    2    5    5    0    0 -0.14144784383E+02 -0.37153392459E+02 -0.14088460287E+01  0.88742012696E+02  0.79326606342E+02 0.  0.
          5    1    5    5  501    0 -0.18346214392E+02  0.79043454089E+02  0.52178635444E+02  0.96587531357E+02  0.47000000000E+01 0. -1.
        -13    1    6    6    0    0  0.12506015665E+02 -0.42189834629E+01 -0.33230479769E+02  0.35755629416E+02  0.00000000000E+00 0.  1.
         14    1    6    6    0    0 -0.26650800048E+02 -0.32934408997E+02  0.31821633740E+02  0.52986383280E+02  0.00000000000E+00 0. -1.
         -5    1    3    3    0  503 -0.33594185256E+02  0.18953352231E+02 -0.17280392557E+02  0.42526471882E+02  0.47000000000E+01 0.  1.
         13    1    4    4    0    0  0.84225039038E+01  0.73542946199E+01 -0.13053772438E+03  0.13101573077E+03  0.00000000000E+00 0. -1.
        -14    1    4    4    0    0  0.57662680127E+02 -0.68197708481E+02 -0.15771791815E+03  0.18124804503E+03  0.00000000000E+00 0.  1.
</event>
<event>
12    1  0.1565987E-001  0.2205773E+03  0.7818608E-02  0.1133555E+00
         21   -1    0    0  503  502  0.00000000000E+00  0.00000000000E+00  0.35511238489E+03  0.35511238489E+03  0.00000000000E+00 0. -1.
         21   -1    0    0  501  503 -0.00000000000E+00 -0.00000000000E+00 -0.15313617402E+03  0.15313617402E+03  0.00000000000E+00 0. -1.
          6    2    1    2  501    0 -0.53181662963E+02 -0.12829034253E+03  0.18419994863E+03  0.28695608790E+03  0.17066772995E+03 0.  0.
         24    2    3    3    0    0 -0.10515664389E+03 -0.95605787882E+02  0.14216253741E+03  0.21239797167E+03  0.68588081284E+02 0.  0.
         -6    2    1    2    0  502  0.53181662963E+02  0.12829034253E+03  0.17776262238E+02  0.22129247101E+03  0.17136995350E+03 0.  0.
        -24    2    5    5    0    0  0.55324183276E+02  0.10576759681E+03 -0.47870360444E+02  0.15169769004E+03  0.80455378715E+02 0.  0.
          5    1    3    3  501    0  0.51974980926E+02 -0.32684554649E+02  0.42037411218E+02  0.74558116237E+02  0.47000000000E+01 0. -1.
        -11    1    4    4    0    0 -0.56618323782E+02 -0.17330225943E+02  0.27391240920E+02  0.65239952470E+02  0.00000000000E+00 0.  1.
         12    1    4    4    0    0 -0.48538320107E+02 -0.78275561938E+02  0.11477129649E+03  0.14715801920E+03  0.00000000000E+00 0. -1.
         -5    1    5    5    0  502 -0.21425203133E+01  0.22522745719E+02  0.65646622682E+02  0.69594780965E+02  0.47000000000E+01 0.  1.
         11    1    6    6    0    0  0.53908503520E+02  0.10867302488E+03 -0.62675655648E+02  0.13654373255E+03  0.00000000000E+00 0. -1.
        -12    1    6    6    0    0  0.14156797562E+01 -0.29054280714E+01  0.14805295203E+02  0.15153957487E+02  0.00000000000E+00 0.  1.
</event>
<event>
12    1  0.1565987E-001  0.2161795E+03  0.7818608E-02  0.1136767E+00
         21   -1    0    0  501  502  0.00000000000E+00  0.00000000000E+00  0.24776129731E+03  0.24776129731E+03  0.00000000000E+00 0. -1.
         21   -1    0    0  502  503 -0.00000000000E+00 -0.00000000000E+00 -0.21924688405E+03  0.21924688405E+03  0.00000000000E+00 0.  1.
         -6    2    1    2    0  503  0.11892850949E+02 -0.13141395211E+03 -0.73031355360E+02  0.22816694502E+03  0.17121772461E+03 0.  0.
        -24    2    3    3    0    0  0.21870419902E+02 -0.43444698219E+01 -0.42995105380E+01  0.83279534575E+02  0.80123688155E+02 0.  0.
          6    2    1    2  501    0 -0.11892850949E+02  0.13141395211E+03  0.10154576862E+03  0.23884123633E+03  0.17123821517E+03 0.  0.
         24    2    5    5    0    0 -0.40151308564E+02  0.15445870788E+03  0.75991400849E+02  0.19406717121E+03  0.80110885155E+02 0.  0.
          5    1    5    5  501    0  0.28258457615E+02 -0.23044755768E+02  0.25554367772E+02  0.44774065120E+02  0.47000000000E+01 0. -1.
        -13    1    6    6    0    0 -0.47266515460E+01  0.59655813579E+02 -0.10720062087E+02  0.60795370381E+02  0.00000000000E+00 0.  1.
         14    1    6    6    0    0 -0.35424657018E+02  0.94802894303E+02  0.86711462936E+02  0.13327180083E+03  0.00000000000E+00 0. -1.
         -5    1    3    3    0  503 -0.99775689529E+01 -0.12706948229E+03 -0.68731844822E+02  0.14488741044E+03  0.47000000000E+01 0.  1.
         13    1    4    4    0    0  0.19694881359E+02 -0.65203568666E+01  0.36703624827E+02  0.42161113373E+02  0.00000000000E+00 0. -1.
        -14    1    4    4    0    0  0.21755385429E+01  0.21758870447E+01 -0.41003135365E+02  0.41118421202E+02  0.00000000000E+00 0.  1.
</event>
<event>
12    1  0.1565987E-001  0.2104065E+03  0.7818608E-02  0.1141292E+00
         21   -1    0    0  501  502  0.00000000000E+00  0.00000000000E+00  0.73453315257E+02  0.73453315257E+02  0.00000000000E+00 0. -1.
         21   -1    0    0  502  503 -0.00000000000E+00 -0.00000000000E+00 -0.11121492044E+04  0.11121492044E+04  0.00000000000E+00 0. -1.
         -6    2    1    2    0  503  0.60924821536E+02 -0.10532294700E+03 -0.92098988546E+03  0.94471860756E+03  0.17165698734E+03 0.  0.
        -24    2    3    3    0    0  0.44626976494E+02 -0.11453467754E+03 -0.44906072254E+03  0.47239488325E+03  0.79947694144E+02 0.  0.
          6    2    1    2  501    0 -0.60924821536E+02  0.10532294700E+03 -0.11770600373E+03  0.24088391214E+03  0.17136393662E+03 0.  0.
         24    2    5    5    0    0 -0.28916898327E+02 -0.46234337528E+01 -0.88340370855E+02  0.12257438513E+03  0.79767760521E+02 0.  0.
          5    1    5    5  501    0 -0.32007923209E+02  0.10994638075E+03 -0.29365632872E+02  0.11830952701E+03  0.47000000000E+01 0. -1.
        -13    1    6    6    0    0  0.76458105467E+01  0.98474731330E+01  0.10436123765E+02  0.16258653858E+02  0.00000000000E+00 0.  1.
         14    1    6    6    0    0 -0.36562708874E+02 -0.14470906886E+02 -0.98776494620E+02  0.10631573127E+03  0.00000000000E+00 0. -1.
         -5    1    3    3    0  503  0.16297845042E+02  0.92117305424E+01 -0.47192916292E+03  0.47232372431E+03  0.47000000000E+01 0.  1.
         11    1    4    4    0    0 -0.20343851014E+02 -0.41923978090E+02 -0.18960148563E+03  0.19524398983E+03  0.00000000000E+00 0. -1.
        -12    1    4    4    0    0  0.64970827508E+02 -0.72610699451E+02 -0.25945923692E+03  0.27715089342E+03  0.00000000000E+00 0.  1.
</event>
<event>
12    1  0.1565987E-001  0.2005622E+03  0.7818608E-02  0.1149494E+00
         21   -1    0    0  503  502  0.00000000000E+00  0.00000000000E+00  0.13371528240E+03  0.13371528240E+03  0.00000000000E+00 0.  1.
         21   -1    0    0  501  503 -0.00000000000E+00 -0.00000000000E+00 -0.30016246689E+03  0.30016246689E+03  0.00000000000E+00 0.  1.
          6    2    1    2  501    0 -0.97855540986E+02 -0.31474916520E+02 -0.70717887910E+02  0.21164074896E+03  0.17095148341E+03 0.  0.
         24    2    3    3    0    0 -0.13232787528E+03 -0.45757516949E+02 -0.63772794100E+02  0.17339602599E+03  0.79967466063E+02 0.  0.
         -6    2    1    2    0  502  0.97855540986E+02  0.31474916520E+02 -0.95729296575E+02  0.22223700033E+03  0.17221733020E+03 0.  0.
        -24    2    5    5    0    0  0.11508481444E+03 -0.15563194088E+02 -0.41538002010E+02  0.14828959929E+03  0.82326618545E+02 0.  0.
          5    1    3    3  501    0  0.34472334299E+02  0.14282600429E+02 -0.69450938101E+01  0.38244722971E+02  0.47000000000E+01 0. -1.
        -11    1    4    4    0    0 -0.54432368794E+02 -0.71441477544E+01  0.14097808999E+02  0.56680418473E+02  0.00000000000E+00 0.  1.
         12    1    4    4    0    0 -0.77895506490E+02 -0.38613369195E+02 -0.77870603099E+02  0.11671560752E+03  0.00000000000E+00 0. -1.
         -5    1    5    5    0  502 -0.17229273458E+02  0.47038110608E+02 -0.54191294565E+02  0.73947401036E+02  0.47000000000E+01 0.  1.
         11    1    6    6    0    0  0.64322661289E+02 -0.19302163303E+02 -0.63895299254E+02  0.92696210981E+02  0.00000000000E+00 0. -1.
        -12    1    6    6    0    0  0.50762153154E+02  0.37389692155E+01  0.22357297244E+02  0.55593388309E+02  0.00000000000E+00 0.  1.
</event>
<event>
12    1  0.1565987E-001  0.2275310E+03  0.7818608E-02  0.1128973E+00
         21   -1    0    0  503  502  0.00000000000E+00  0.00000000000E+00  0.13619303744E+03  0.13619303744E+03  0.00000000000E+00 0. -1.
         21   -1    0    0  501  503 -0.00000000000E+00 -0.00000000000E+00 -0.37506196073E+03  0.37506196073E+03  0.00000000000E+00 0.  1.
          6    2    1    2  501    0 -0.35179356044E+02  0.13875576543E+03 -0.11267685452E+03  0.25390240759E+03  0.17686042380E+03 0.  0.
         24    2    3    3    0    0 -0.48722668907E+02  0.14051800605E+03 -0.14225113062E+03  0.22098957389E+03  0.80509621249E+02 0.  0.
         -6    2    1    2    0  502  0.35179356044E+02 -0.13875576543E+03 -0.12619206877E+03  0.25735259059E+03  0.17267069274E+03 0.  0.
        -24    2    5    5    0    0  0.47986703709E+01  0.14134605132E+01 -0.53863709983E+02  0.96654490265E+02  0.80098477684E+02 0.  0.
          5    1    3    3  501    0  0.13543312863E+02 -0.17622406216E+01  0.29574276106E+02  0.32912833705E+02  0.47000000000E+01 0. -1.
        -11    1    4    4    0    0 -0.15319095423E+02  0.13137956446E+03 -0.97088249797E+02  0.16407739908E+03  0.00000000000E+00 0.  1.
         12    1    4    4    0    0 -0.33403573484E+02  0.91384415919E+01 -0.45162880828E+02  0.56912174804E+02  0.00000000000E+00 0. -1.
         -5    1    5    5    0  502  0.30380685673E+02 -0.14016922594E+03 -0.72328358787E+02  0.16069810032E+03  0.47000000000E+01 0.  1.
         13    1    6    6    0    0  0.34173188975E+02  0.10578931995E+02 -0.55286124902E+02  0.65850408150E+02  0.00000000000E+00 0. -1.
        -14    1    6    6    0    0 -0.29374518604E+02 -0.91654714815E+01  0.14224149188E+01  0.30804082115E+02  0.00000000000E+00 0.  1.
</event>
<event>
12    1  0.1565987E-001  0.2920635E+03  0.7818608E-02  0.1089346E+00
         21   -1    0    0  503  502  0.00000000000E+00  0.00000000000E+00  0.16459775877E+03  0.16459775877E+03  0.00000000000E+00 0.  1.
         21   -1    0    0  501  503 -0.00000000000E+00 -0.00000000000E+00 -0.65138411605E+03  0.65138411605E+03  0.00000000000E+00 0.  1.
          6    2    1    2  501    0  0.20013648744E+03  0.12354851250E+03 -0.42868384457E+03  0.51872044972E+03  0.17315374041E+03 0.  0.
         24    2    3    3    0    0  0.15049488450E+03  0.18999708673E+02 -0.30040601279E+03  0.34588517193E+03  0.79894182814E+02 0.  0.
         -6    2    1    2    0  502 -0.20013648744E+03 -0.12354851250E+03 -0.58102512708E+02  0.29726142510E+03  0.17224867002E+03 0.  0.
        -24    2    5    5    0    0 -0.92471786578E+02  0.67822430483E+01 -0.20319480058E+02  0.12397714650E+03  0.79752250449E+02 0.  0.
          5    1    3    3  501    0  0.49641602938E+02  0.10454880382E+03 -0.12827783178E+03  0.17283527779E+03  0.47000000000E+01 0. -1.
        -11    1    4    4    0    0  0.93315460823E+02  0.27635251459E+02 -0.10990820619E+03  0.14680359716E+03  0.00000000000E+00 0.  1.
         12    1    4    4    0    0  0.57179423681E+02 -0.86355427852E+01 -0.19049780660E+03  0.19908157477E+03  0.00000000000E+00 0. -1.
         -5    1    5    5    0  502 -0.10766470086E+03 -0.13033075555E+03 -0.37783032649E+02  0.17328427860E+03  0.47000000000E+01 0.  1.
         13    1    6    6    0    0 -0.73000383094E+02  0.34427117149E+02  0.62798915750E+01  0.80955045335E+02  0.00000000000E+00 0. -1.
        -14    1    6    6    0    0 -0.19471403484E+02 -0.27644874101E+02 -0.26599371633E+02  0.43022101169E+02  0.00000000000E+00 0.  1.
</event>
<event>
12    1  0.1565987E-001  0.1898063E+03  0.7818608E-02  0.1158739E+00
         21   -1    0    0  501  502  0.00000000000E+00  0.00000000000E+00  0.10497334360E+03  0.10497334360E+03  0.00000000000E+00 0. -1.
         21   -1    0    0  502  503 -0.00000000000E+00 -0.00000000000E+00 -0.36747957672E+03  0.36747957672E+03  0.00000000000E+00 0.  1.
         -6    2    1    2    0  503  0.20533445126E+02 -0.76971040383E+02 -0.19314214855E+03  0.27079571495E+03  0.17227961650E+03 0.  0.
        -24    2    3    3    0    0 -0.40115936869E+02 -0.32028723587E+02 -0.46710410815E+02  0.10598520802E+03  0.80099153029E+02 0.  0.
          6    2    1    2  501    0 -0.20533445126E+02  0.76971040383E+02 -0.69364084565E+02  0.20165720538E+03  0.17177918624E+03 0.  0.
         24    2    5    5    0    0 -0.66826495589E+02  0.46045391672E+02  0.31901560146E+01  0.11008401009E+03  0.74312539820E+02 0.  0.
          5    1    5    5  501    0  0.46293050462E+02  0.30925648711E+02 -0.72554240580E+02  0.91573195289E+02  0.47000000000E+01 0. -1.
        -13    1    6    6    0    0 -0.16310183599E+02 -0.16695153577E+02 -0.14684072769E+02  0.27574847870E+02  0.00000000000E+00 0.  1.
         14    1    6    6    0    0 -0.50516311990E+02  0.62740545248E+02  0.17874228783E+02  0.82509162217E+02  0.00000000000E+00 0. -1.
         -5    1    3    3    0  503  0.60649381996E+02 -0.44942316796E+02 -0.14643173774E+03  0.16481050692E+03  0.47000000000E+01 0.  1.
         11    1    4    4    0    0 -0.19666960282E+02 -0.51979244493E+02 -0.52929282358E+02  0.76747248261E+02  0.00000000000E+00 0. -1.
        -12    1    4    4    0    0 -0.20448976587E+02  0.19950520905E+02  0.62188715423E+01  0.29237959763E+02  0.00000000000E+00 0.  1.
</event>
<event>
12    1  0.1565987E-001  0.2092941E+03  0.7818608E-02  0.1142250E+00
         21   -1    0    0  501  502  0.00000000000E+00  0.00000000000E+00  0.27502252820E+04  0.27502252820E+04  0.00000000000E+00 0. -1.
         21   -1    0    0  502  503 -0.00000000000E+00 -0.00000000000E+00 -0.16007059317E+02  0.16007059317E+02  0.00000000000E+00 0.  1.
         -6    2    1    2    0  503 -0.82622997126E+02  0.85192493016E+02  0.12419910204E+04  0.12593992269E+04  0.17164031423E+03 0.  0.
        -24    2    3    3    0    0 -0.66603042973E+02  0.12630812469E+03  0.10236173864E+04  0.10365623625E+04  0.79241844911E+02 0.  0.
          6    2    1    2  501    0  0.82622997126E+02 -0.85192493016E+02  0.14922272023E+04  0.15068331144E+04  0.17239399907E+03 0.  0.
         24    2    5    5    0    0  0.37968096771E+01  0.14398174478E+02  0.49853641237E+03  0.50504703702E+03  0.79449556039E+02 0.  0.
          5    1    5    5  501    0  0.78826187448E+02 -0.99590667494E+02  0.99369078988E+03  0.10017860774E+04  0.47000000000E+01 0. -1.
        -13    1    6    6    0    0 -0.41151956114E+00 -0.22795315269E+02  0.50013310403E+02  0.54964779304E+02  0.00000000000E+00 0.  1.
         14    1    6    6    0    0  0.42083292382E+01  0.37193489747E+02  0.44852310196E+03  0.45008225771E+03  0.00000000000E+00 0. -1.
         -5    1    3    3    0  503 -0.16019954152E+02 -0.41115631677E+02  0.21837363406E+03  0.22283686444E+03  0.47000000000E+01 0.  1.
         13    1    4    4    0    0 -0.35000045886E+02  0.12458927030E+03  0.74539384399E+03  0.75654442840E+03  0.00000000000E+00 0. -1.
        -14    1    4    4    0    0 -0.31602997087E+02  0.17188543939E+01  0.27822354238E+03  0.28001793410E+03  0.00000000000E+00 0.  1.
</event>
<event>
12    1  0.1565987E-001  0.2219583E+03  0.7818608E-02  0.1132433E+00
         21   -1    0    0  503  502  0.00000000000E+00  0.00000000000E+00  0.26640291466E+03  0.26640291466E+03  0.00000000000E+00 0. -1.
         21   -1    0    0  501  503 -0.00000000000E+00 -0.00000000000E+00 -0.18517964354E+03  0.18517964354E+03  0.00000000000E+00 0. -1.
          6    2    1    2  501    0  0.13983768660E+03 -0.10978093878E+02  0.49033220834E+02  0.22730214360E+03  0.17200846084E+03 0.  0.
         24    2    3    3    0    0  0.63408040415E+02 -0.51904694558E+02 -0.20383357240E+02  0.11613907073E+03  0.79737855440E+02 0.  0.
         -6    2    1    2    0  502 -0.13983768660E+03  0.10978093878E+02  0.32190050292E+02  0.22428041460E+03  0.17201862659E+03 0.  0.
        -24    2    5    5    0    0 -0.32869383799E+02  0.39592651124E+02 -0.25144702207E+02  0.99499107763E+02  0.81362411359E+02 0.  0.
          5    1    3    3  501    0  0.76429646190E+02  0.40926600680E+02  0.69416578074E+02  0.11116307288E+03  0.47000000000E+01 0. -1.
        -11    1    4    4    0    0  0.76869083120E+02 -0.26510718374E+02 -0.28684080900E+02  0.86223260350E+02  0.00000000000E+00 0.  1.
         12    1    4    4    0    0 -0.13461042704E+02 -0.25393976184E+02  0.83007236605E+01  0.29915810375E+02  0.00000000000E+00 0. -1.
         -5    1    5    5    0  502 -0.10696830281E+03 -0.28614557246E+02  0.57334752499E+02  0.12478130684E+03  0.47000000000E+01 0.  1.
         11    1    6    6    0    0 -0.24611680469E+02 -0.21699775143E+02 -0.20153512235E+00  0.32812431686E+02  0.00000000000E+00 0. -1.
        -12    1    6    6    0    0 -0.82577033299E+01  0.61292426267E+02 -0.24943167085E+02  0.66686676077E+02  0.00000000000E+00 0.  1.
</event>
<event>
12    1  0.1565987E-001  0.2024540E+03  0.7818608E-02  0.1151208E+00
         21   -1    0    0  503  502  0.00000000000E+00  0.00000000000E+00  0.17056442169E+04  0.17056442169E+04  0.00000000000E+00 0.  1.
         21   -1    0    0  501  503 -0.00000000000E+00 -0.00000000000E+00 -0.23341538321E+02  0.23341538321E+02  0.00000000000E+00 0.  1.
          6    2    1    2  501    0  0.75313572677E+02  0.62544338201E+02  0.10702371521E+04  0.10892176878E+04  0.17721083885E+03 0.  0.
         24    2    3    3    0    0  0.73723533304E+02  0.17898866582E+02  0.99618764985E+03  0.10026084208E+04  0.84132532089E+02 0.  0.
         -6    2    1    2    0  502 -0.75313572677E+02 -0.62544338201E+02  0.61206552652E+03  0.63976806737E+03  0.15841414963E+03 0.  0.
        -24    2    5    5    0    0 -0.31022140885E+02 -0.92292585293E+02  0.49642785521E+03  0.51232847320E+03  0.80991076691E+02 0.  0.
          5    1    3    3  501    0  0.15900393730E+01  0.44645471618E+02  0.74049502197E+02  0.86609267038E+02  0.47000000000E+01 0. -1.
        -11    1    4    4    0    0  0.68735982813E+02  0.47128067399E+02  0.76531823202E+03  0.76984263738E+03  0.00000000000E+00 0.  1.
         12    1    4    4    0    0  0.49875504904E+01 -0.29229200817E+02  0.23086941783E+03  0.23276578342E+03  0.00000000000E+00 0. -1.
         -5    1    5    5    0  502 -0.44291431792E+02  0.29748247092E+02  0.11563767131E+03  0.12743959417E+03  0.47000000000E+01 0.  1.
         13    1    6    6    0    0 -0.42804779174E+02 -0.97038130711E+02  0.47991765205E+03  0.49149730486E+03  0.00000000000E+00 0. -1.
        -14    1    6    6    0    0  0.11782638289E+02  0.47455454185E+01  0.16510203155E+02  0.20831168345E+02  0.00000000000E+00 0.  1.
</event>
<event>
12    1  0.1565987E-001  0.2077573E+03  0.7818608E-02  0.1143390E+00
         21   -1    0    0  503  502  0.00000000000E+00  0.00000000000E+00  0.32542383092E+03  0.32542383092E+03  0.00000000000E+00 0. -1.
         21   -1    0    0  501  503 -0.00000000000E+00 -0.00000000000E+00 -0.13306739052E+03  0.13306739052E+03  0.00000000000E+00 0. -1.
          6    2    1    2  501    0  0.94645133419E+02 -0.68164096153E+02  0.81556576905E+02  0.22319175921E+03  0.17192742905E+03 0.  0.
         24    2    3    3    0    0  0.46697033550E+02 -0.10985662814E+03  0.52675013208E+02  0.15323804433E+03  0.80362612733E+02 0.  0.
         -6    2    1    2    0  502 -0.94645133419E+02  0.68164096153E+02  0.11079986349E+03  0.23529946222E+03  0.17171249776E+03 0.  0.
        -24    2    5    5    0    0 -0.47481029582E+02  0.10541815048E+03  0.10485646051E+03  0.17472115510E+03  0.78518597200E+02 0.  0.
          5    1    3    3  501    0  0.47948099869E+02  0.41692531986E+02  0.28881563697E+02  0.69953714884E+02  0.47000000000E+01 0. -1.
        -13    1    4    4    0    0 -0.16369248112E+02 -0.63381389523E+02  0.21164667949E+02  0.68797499889E+02  0.00000000000E+00 0.  1.
         14    1    4    4    0    0  0.63066281663E+02 -0.46475238616E+02  0.31510345259E+02  0.84440544441E+02  0.00000000000E+00 0. -1.
         -5    1    5    5    0  502 -0.47164103837E+02 -0.37254054330E+02  0.59434029809E+01  0.60578307122E+02  0.47000000000E+01 0.  1.
         13    1    6    6    0    0 -0.44997199478E+02  0.22901139256E+02  0.67017679062E+02  0.83908160789E+02  0.00000000000E+00 0. -1.
        -14    1    6    6    0    0 -0.24838301035E+01  0.82517011226E+02  0.37838781451E+02  0.90812994310E+02  0.00000000000E+00 0.  1.
</event>
<event>
12    1  0.1565987E-001  0.2109031E+03  0.7818608E-02  0.1142756E+00
         21   -1    0    0  503  502  0.00000000000E+00  0.00000000000E+00  0.16786560318E+03  0.16786560318E+03  0.00000000000E+00 0. -1.
         21   -1    0    0  501  503 -0.00000000000E+00 -0.00000000000E+00 -0.28883013452E+03  0.28883013452E+03  0.00000000000E+00 0.  1.
          6    2    1    2  501    0  0.19100980139E+02  0.10298888577E+03  0.20849125103E+02  0.20254769177E+03  0.17210265363E+03 0.  0.
         24    2    3    3    0    0  0.17489663270E+01  0.24080646909E+02 -0.48127692323E+02  0.96210991207E+02  0.79732951920E+02 0.  0.
         -6    2    1    2    0  502 -0.19100980139E+02 -0.10298888577E+03 -0.14181365645E+03  0.25414804593E+03  0.18305342952E+03 0.  0.
        -24    2    5    5    0    0 -0.65692139450E+02 -0.11379752972E+03 -0.13743624416E+03  0.20589025228E+03  0.78973032218E+02 0.  0.
          5    1    3    3  501    0  0.17352013812E+02  0.78908238866E+02  0.68976817426E+02  0.10633670056E+03  0.47000000000E+01 0. -1.
        -13    1    4    4    0    0  0.84139289522E+01  0.52979678963E+02 -0.30392104921E+02  0.61654850783E+02  0.00000000000E+00 0.  1.
         14    1    4    4    0    0 -0.66649626252E+01 -0.28899032055E+02 -0.17735587402E+02  0.34556140424E+02  0.00000000000E+00 0. -1.
         -5    1    5    5    0  502  0.46591159311E+02  0.10808643946E+02 -0.43774122890E+01  0.48257793653E+02  0.47000000000E+01 0.  1.
         13    1    6    6    0    0  0.66247256481E+01 -0.52089867899E+02 -0.23572594014E+02  0.57557871019E+02  0.00000000000E+00 0. -1.
        -14    1    6    6    0    0 -0.72316865098E+02 -0.61707661822E+02 -0.11386365015E+03  0.14833238126E+03  0.00000000000E+00 0.  1.
</event>
<event>
12    1  0.1565987E-001  0.1922177E+03  0.7818608E-02  0.1156632E+00
         21   -1    0    0  501  502  0.00000000000E+00  0.00000000000E+00  0.16079025594E+03  0.16079025594E+03  0.00000000000E+00 0. -1.
         21   -1    0    0  502  503 -0.00000000000E+00 -0.00000000000E+00 -0.24472656916E+03  0.24472656916E+03  0.00000000000E+00 0. -1.
         -6    2    1    2    0  503  0.88444205764E+01 -0.85195398810E+02  0.94410468424E+01  0.19244942258E+03  0.17207895610E+03 0.  0.
        -24    2    3    3    0    0  0.56393203025E+02 -0.11753388853E+02 -0.19306329584E+02  0.10023707422E+03  0.79727041767E+02 0.  0.
          6    2    1    2  501    0 -0.88444205764E+01  0.85195398810E+02 -0.93377360065E+02  0.21306740253E+03  0.17129479529E+03 0.  0.
         24    2    5    5    0    0  0.59563121921E+02  0.48850270413E+02 -0.70875374609E+02  0.13226523933E+03  0.80849615927E+02 0.  0.
          5    1    5    5  501    0 -0.68407542497E+02  0.36345128396E+02 -0.22501985456E+02  0.80802163202E+02  0.47000000000E+01 0. -1.
        -13    1    6    6    0    0  0.27393309874E+02  0.66427017884E+02 -0.31464054136E+02  0.78440607044E+02  0.00000000000E+00 0.  1.
         14    1    6    6    0    0  0.32169812047E+02 -0.17576747471E+02 -0.39411320473E+02  0.53824632281E+02  0.00000000000E+00 0. -1.
         -5    1    3    3    0  503 -0.47548782449E+02 -0.73442009957E+02  0.28747376427E+02  0.92212348362E+02  0.47000000000E+01 0.  1.
         13    1    4    4    0    0 -0.41924742047E+01 -0.12241014740E+02  0.22965957887E+02  0.26360093010E+02  0.00000000000E+00 0. -1.
        -14    1    4    4    0    0  0.60585677230E+02  0.48762588744E+00 -0.42272287471E+02  0.73876981209E+02  0.00000000000E+00 0.  1.
</event>
<event>
12    1  0.1565987E-001  0.1960481E+03  0.7818608E-02  0.1153816E+00
         21   -1    0    0  503  502  0.00000000000E+00  0.00000000000E+00  0.23626667006E+03  0.23626667006E+03  0.00000000000E+00 0. -1.
         21   -1    0    0  501  503 -0.00000000000E+00 -0.00000000000E+00 -0.20790690086E+03  0.20790690086E+03  0.00000000000E+00 0. -1.
          6    2    1    2  501    0  0.80935585845E+02  0.30967726879E+02 -0.92303344198E+02  0.21669045225E+03  0.17585583750E+03 0.  0.
         24    2    3    3    0    0  0.65317817262E+02  0.39803811896E+02  0.99354328565E+01  0.11278256695E+03  0.82282646340E+02 0.  0.
         -6    2    1    2    0  502 -0.80935585845E+02 -0.30967726879E+02  0.12066311339E+03  0.22748311867E+03  0.17227714063E+03 0.  0.
        -24    2    5    5    0    0 -0.20074111447E+02 -0.66167189909E+02  0.25433105902E+02  0.10901807914E+03  0.80355657758E+02 0.  0.
          5    1    3    3  501    0  0.15617768583E+02 -0.88360850171E+01 -0.10223877705E+03  0.10390788530E+03  0.47000000000E+01 0. -1.
        -13    1    4    4    0    0  0.35812018043E+02  0.63644308043E+02  0.14878227734E+02  0.74528251308E+02  0.00000000000E+00 0.  1.
         14    1    4    4    0    0  0.29505799219E+02 -0.23840496147E+02 -0.49427948779E+01  0.38254315643E+02  0.00000000000E+00 0. -1.
         -5    1    5    5    0  502 -0.60861474398E+02  0.35199463030E+02  0.95230007493E+02  0.11846503953E+03  0.47000000000E+01 0.  1.
         13    1    6    6    0    0 -0.77549005763E+01  0.17045533545E+02 -0.52964130670E+01  0.19461261217E+02  0.00000000000E+00 0. -1.
        -14    1    6    6    0    0 -0.12319210871E+02 -0.83212723455E+02  0.30729518969E+02  0.89556817928E+02  0.00000000000E+00 0.  1.
</event>
<event>
12    1  0.1565987E-001  0.1978416E+03  0.7818608E-02  0.1151681E+00
         21   -1    0    0  503  502  0.00000000000E+00  0.00000000000E+00  0.81436041907E+03  0.81436041907E+03  0.00000000000E+00 0.  1.
         21   -1    0    0  501  503 -0.00000000000E+00 -0.00000000000E+00 -0.16195447885E+03  0.16195447885E+03  0.00000000000E+00 0.  1.
          6    2    1    2  501    0  0.31704049160E+02 -0.92386571768E+02 -0.83255192396E+02  0.21464557464E+03  0.17204903451E+03 0.  0.
         24    2    3    3    0    0  0.21075336619E+02 -0.10786239686E+03 -0.11545323944E+03  0.17707863537E+03  0.77129281962E+02 0.  0.
         -6    2    1    2    0  502 -0.31704049160E+02  0.92386571768E+02  0.73566113262E+03  0.76166932328E+03  0.17147136962E+03 0.  0.
        -24    2    5    5    0    0 -0.74934628464E+02  0.47131519157E+02  0.36763693949E+03  0.38833194302E+03  0.88364020086E+02 0.  0.
          5    1    3    3  501    0  0.10628712541E+02  0.15475825093E+02  0.32198047048E+02  0.37566939273E+02  0.47000000000E+01 0. -1.
        -13    1    4    4    0    0 -0.10331477383E+02 -0.66987350950E+02 -0.23638223502E+02  0.71783077550E+02  0.00000000000E+00 0.  1.
         14    1    4    4    0    0  0.31406814002E+02 -0.40875045911E+02 -0.91815015943E+02  0.10529555782E+03  0.00000000000E+00 0. -1.
         -5    1    5    5    0  502  0.43230579304E+02  0.45255052610E+02  0.36802419312E+03  0.37333738026E+03  0.47000000000E+01 0.  1.
         13    1    6    6    0    0 -0.59857661273E+02  0.70003232583E+02  0.32375202871E+03  0.33659882394E+03  0.00000000000E+00 0. -1.
        -14    1    6    6    0    0 -0.15076967191E+02 -0.22871713426E+02  0.43884910784E+02  0.51733119075E+02  0.00000000000E+00 0.  1.
</event>
<event>
12    1  0.1565987E-001  0.2211119E+03  0.7818608E-02  0.1134893E+00
         21   -1    0    0  503  502  0.00000000000E+00  0.00000000000E+00  0.13291201392E+04  0.13291201392E+04  0.00000000000E+00 0. -1.
         21   -1    0    0  501  503 -0.00000000000E+00 -0.00000000000E+00 -0.37076155704E+02  0.37076155704E+02  0.00000000000E+00 0. -1.
          6    2    1    2  501    0  0.53592673124E+02 -0.12700439224E+03  0.47829847292E+03  0.52294531459E+03  0.16031245303E+03 0.  0.
         24    2    3    3    0    0  0.64539772978E+02 -0.14032888431E+03  0.47246662815E+03  0.50414421096E+03  0.84137344037E+02 0.  0.
         -6    2    1    2    0  502 -0.53592673124E+02  0.12700439224E+03  0.81374551057E+03  0.84325098031E+03  0.17288195266E+03 0.  0.
        -24    2    5    5    0    0  0.63971716613E+01  0.30923685707E+02  0.18031414961E+03  0.19975454466E+03  0.79946778667E+02 0.  0.
          5    1    3    3  501    0 -0.10947099854E+02  0.13324492073E+02  0.58318447656E+01  0.18801103627E+02  0.47000000000E+01 0. -1.
        -11    1    4    4    0    0  0.19755982586E+02 -0.10789360544E+03  0.38785041640E+03  0.40306237041E+03  0.00000000000E+00 0.  1.
         12    1    4    4    0    0  0.44783790392E+02 -0.32435278866E+02  0.84616211755E+02  0.10108184055E+03  0.00000000000E+00 0. -1.
         -5    1    5    5    0  502 -0.59989844785E+02  0.96080706530E+02  0.63343136096E+03  0.64349643565E+03  0.47000000000E+01 0.  1.
         11    1    6    6    0    0 -0.11269227792E+01  0.57222240974E+02  0.10434118579E+03  0.11900730174E+03  0.00000000000E+00 0. -1.
        -12    1    6    6    0    0  0.75240944405E+01 -0.26298555267E+02  0.75972963822E+02  0.80747242914E+02  0.00000000000E+00 0.  1.
</event>
<event>
12    1  0.1565987E-001  0.2007121E+03  0.7818608E-02  0.1149228E+00
         21   -1    0    0  501  502  0.00000000000E+00  0.00000000000E+00  0.23516298893E+03  0.23516298893E+03  0.00000000000E+00 0.  1.
         21   -1    0    0  502  503 -0.00000000000E+00 -0.00000000000E+00 -0.47656834393E+03  0.47656834393E+03  0.00000000000E+00 0.  1.
         -6    2    1    2    0  503  0.67081574109E+02 -0.80791981031E+02 -0.40572860456E+03  0.45265996665E+03  0.17104988472E+03 0.  0.
        -24    2    3    3    0    0  0.61372600398E+02  0.17666304365E+02 -0.21373830143E+03  0.23676880694E+03  0.79351824499E+02 0.  0.
          6    2    1    2  501    0 -0.67081574109E+02  0.80791981031E+02  0.16432324957E+03  0.25907136621E+03  0.17055368849E+03 0.  0.
         24    2    5    5    0    0  0.11367797486E+02  0.13761603657E+02  0.12399571910E+03  0.14818505007E+03  0.79153408981E+02 0.  0.
          5    1    5    5  501    0 -0.78449371595E+02  0.67030377374E+02  0.40327530464E+02  0.11088631614E+03  0.47000000000E+01 0. -1.
        -11    1    6    6    0    0 -0.33885679838E+00  0.43784623916E+02  0.95936652046E+02  0.10545638587E+03  0.00000000000E+00 0.  1.
         12    1    6    6    0    0  0.11706654284E+02 -0.30023020258E+02  0.28059067056E+02  0.42728664196E+02  0.00000000000E+00 0. -1.
         -5    1    3    3    0  503  0.57089737112E+01 -0.98458285397E+02 -0.19199030313E+03  0.21589115971E+03  0.47000000000E+01 0.  1.
         13    1    4    4    0    0  0.28032335607E+02  0.19157233025E+02 -0.18435778950E+02  0.38635338257E+02  0.00000000000E+00 0. -1.
        -14    1    4    4    0    0  0.33340264791E+02 -0.14909286597E+01 -0.19530252248E+03  0.19813346868E+03  0.00000000000E+00 0.  1.
</event>
<event>
12    1  0.1565987E-001  0.1841572E+03  0.7818608E-02  0.1163922E+00
         21   -1    0    0  501  502  0.00000000000E+00  0.00000000000E+00  0.29890140257E+03  0.29890140257E+03  0.00000000000E+00 0. -1.
         21   -1    0    0  502  503 -0.00000000000E+00 -0.00000000000E+00 -0.11404226323E+03  0.11404226323E+03  0.00000000000E+00 0. -1.
         -6    2    1    2    0  503  0.11075020066E+02 -0.64069022890E+02  0.10960897224E+03  0.21400534778E+03  0.17192052327E+03 0.  0.
        -24    2    3    3    0    0 -0.53596652250E+02 -0.16092905410E+02  0.30581833712E+02  0.10108275628E+03  0.78427624765E+02 0.  0.
          6    2    1    2  501    0 -0.11075020066E+02  0.64069022890E+02  0.75250167097E+02  0.19893831802E+03  0.17229733302E+03 0.  0.
         24    2    5    5    0    0  0.46021731127E+02  0.79016309478E+02  0.63439022329E+02  0.13856403944E+03  0.82546390427E+02 0.  0.
          5    1    5    5  501    0 -0.57096751193E+02 -0.14947286588E+02  0.11811144769E+02  0.60374278579E+02  0.47000000000E+01 0. -1.
        -13    1    6    6    0    0  0.44989041056E+02  0.80607789934E+01  0.47328998147E+02  0.65795319277E+02  0.00000000000E+00 0.  1.
         14    1    6    6    0    0  0.10326900712E+01  0.70955530484E+02  0.16110024182E+02  0.72768720164E+02  0.00000000000E+00 0. -1.
         -5    1    3    3    0  503  0.64671672316E+02 -0.47976117481E+02  0.79027138525E+02  0.11292259150E+03  0.47000000000E+01 0.  1.
         13    1    4    4    0    0 -0.19698653035E+02 -0.45917062030E+02  0.80013217718E+01  0.50600737811E+02  0.00000000000E+00 0. -1.
        -14    1    4    4    0    0 -0.33897999215E+02  0.29824156621E+02  0.22580511940E+02  0.50482018466E+02  0.00000000000E+00 0.  1.
</event>
<event>
12    1  0.1565987E-001  0.2060642E+03  0.7818608E-02  0.1145872E+00
         21   -1    0    0  501  502  0.00000000000E+00  0.00000000000E+00  0.34317947985E+04  0.34317947985E+04  0.00000000000E+00 0.  1.
         21   -1    0    0  502  503 -0.00000000000E+00 -0.00000000000E+00 -0.16111402113E+02  0.16111402113E+02  0.00000000000E+00 0.  1.
         -6    2    1    2    0  503  0.98826027402E+02  0.18885614284E+02  0.25568667812E+04  0.25647140276E+04  0.17339854732E+03 0.  0.
        -24    2    3    3    0    0  0.97429682064E+02  0.69377343256E+02  0.15442426389E+04  0.15508199956E+04  0.77791851990E+02 0.  0.
          6    2    1    2  501    0 -0.98826027402E+02 -0.18885614284E+02  0.85881661516E+03  0.88319217303E+03  0.17983099263E+03 0.  0.
         24    2    5    5    0    0 -0.99569066292E+02 -0.49907819571E+02  0.40085520860E+03  0.42415658702E+03  0.82577979105E+02 0.  0.
          5    1    5    5  501    0  0.74303888986E+00  0.31022205287E+02  0.45796140656E+03  0.45903558601E+03  0.47000000000E+01 0. -1.
        -13    1    6    6    0    0 -0.34186143204E+01  0.20915354684E+01 -0.34789497198E+01  0.53070270058E+01  0.00000000000E+00 0.  1.
         14    1    6    6    0    0 -0.96150451971E+02 -0.51999355039E+02  0.40433415832E+03  0.41884956002E+03  0.00000000000E+00 0. -1.
         -5    1    3    3    0  503  0.13963453374E+01 -0.50491728971E+02  0.10126241423E+04  0.10138940319E+04  0.47000000000E+01 0.  1.
         13    1    4    4    0    0  0.48015550263E+02  0.72076943937E+02  0.11885565431E+04  0.11917076970E+04  0.00000000000E+00 0. -1.
        -14    1    4    4    0    0  0.49414131802E+02 -0.26996006810E+01  0.35568609583E+03  0.35911229864E+03  0.00000000000E+00 0.  1.
</event>
<event>
12    1  0.1565987E-001  0.1788982E+03  0.7818608E-02  0.1168900E+00
         21   -1    0    0  501  502  0.00000000000E+00  0.00000000000E+00  0.10063542832E+04  0.10063542832E+04  0.00000000000E+00 0.  1.
         21   -1    0    0  502  503 -0.00000000000E+00 -0.00000000000E+00 -0.32065784256E+02  0.32065784256E+02  0.00000000000E+00 0.  1.
         -6    2    1    2    0  503 -0.64764383053E+01 -0.44978612685E+02  0.53571560585E+03  0.56476326701E+03  0.17291997445E+03 0.  0.
        -24    2    3    3    0    0  0.41473601666E+02  0.19556090468E+02  0.22888600746E+03  0.24754027496E+03  0.82370401258E+02 0.  0.
          6    2    1    2  501    0  0.64764383053E+01  0.44978612685E+02  0.43857289314E+03  0.47365680049E+03  0.17303052389E+03 0.  0.
         24    2    5    5    0    0 -0.25372791130E+02  0.21613306234E+02  0.95965365852E+02  0.12874765489E+03  0.79092943181E+02 0.  0.
          5    1    5    5  501    0  0.31849229436E+02  0.23365306451E+02  0.34260752729E+03  0.34490914560E+03  0.47000000000E+01 0. -1.
        -13    1    6    6    0    0  0.94033138404E+01  0.31342012204E+02  0.84886547621E+02  0.90975106524E+02  0.00000000000E+00 0.  1.
         14    1    6    6    0    0 -0.34776104971E+02 -0.97287059702E+01  0.11078818231E+02  0.37772548368E+02  0.00000000000E+00 0. -1.
         -5    1    3    3    0  503 -0.47950039971E+02 -0.64534703153E+02  0.30682959839E+03  0.31722299206E+03  0.47000000000E+01 0.  1.
         13    1    4    4    0    0  0.34325619939E+02 -0.19577123822E+02  0.18110965595E+03  0.18537049237E+03  0.00000000000E+00 0. -1.
        -14    1    4    4    0    0  0.71479817269E+01  0.39133214290E+02  0.47776351512E+02  0.62169782590E+02  0.00000000000E+00 0.  1.
</event>
<event>
12    1  0.1565987E-001  0.1910269E+03  0.7818608E-02  0.1157766E+00
         21   -1    0    0  501  502  0.00000000000E+00  0.00000000000E+00  0.82446414397E+03  0.82446414397E+03  0.00000000000E+00 0.  1.
         21   -1    0    0  502  503 -0.00000000000E+00 -0.00000000000E+00 -0.12457968795E+03  0.12457968795E+03  0.00000000000E+00 0. -1.
         -6    2    1    2    0  503 -0.54521132087E+02 -0.58366401025E+02 -0.31956095885E+02  0.19268289483E+03  0.17241321087E+03 0.  0.
        -24    2    3    3    0    0 -0.97053033344E+02 -0.10440297119E+02 -0.13991327198E+02  0.12596935067E+03  0.78385132430E+02 0.  0.
          6    2    1    2  501    0  0.54521132087E+02  0.58366401025E+02  0.73184055191E+03  0.75636093709E+03  0.17352833522E+03 0.  0.
         24    2    5    5    0    0 -0.74552517471E+00  0.28171730341E+02  0.63539222661E+03  0.64107654528E+03  0.80384408122E+02 0.  0.
          5    1    5    5  501    0  0.55266657262E+02  0.30194670684E+02  0.96448325303E+02  0.11528439182E+03  0.47000000000E+01 0. -1.
        -11    1    6    6    0    0  0.23637323940E+02  0.45500781182E+02  0.48752524718E+03  0.49021414791E+03  0.00000000000E+00 0.  1.
         12    1    6    6    0    0 -0.24382849115E+02 -0.17329050842E+02  0.14786697943E+03  0.15086239737E+03  0.00000000000E+00 0. -1.
         -5    1    3    3    0  503  0.42531901256E+02 -0.47926103906E+02 -0.17964768687E+02  0.66713544158E+02  0.47000000000E+01 0.  1.
         11    1    4    4    0    0 -0.11853794378E+01 -0.31461978613E+01 -0.28533642148E+02  0.28731035826E+02  0.00000000000E+00 0. -1.
        -12    1    4    4    0    0 -0.95867653906E+02 -0.72940992573E+01  0.14542314950E+02  0.97238314843E+02  0.00000000000E+00 0.  1.
</event>
<event>
12    1  0.1565987E-001  0.1861161E+03  0.7818608E-02  0.1162772E+00
         21   -1    0    0  503  502  0.00000000000E+00  0.00000000000E+00  0.21336837011E+03  0.21336837011E+03  0.00000000000E+00 0.  1.
         21   -1    0    0  501  503 -0.00000000000E+00 -0.00000000000E+00 -0.20106185526E+03  0.20106185526E+03  0.00000000000E+00 0.  1.
          6    2    1    2  501    0  0.21942787601E+02  0.63742678680E+02 -0.87988404142E+02  0.20586686740E+03  0.17347793178E+03 0.  0.
         24    2    3    3    0    0  0.30202833867E+02  0.10054213498E+03 -0.22793882948E+02  0.13040267760E+03  0.73921344311E+02 0.  0.
         -6    2    1    2    0  502 -0.21942787601E+02 -0.63742678680E+02  0.10029491899E+03  0.20856335797E+03  0.16998525965E+03 0.  0.
        -24    2    5    5    0    0 -0.20230568643E+02  0.24783822549E+02  0.19056018860E+02  0.88306457926E+02  0.80071123939E+02 0.  0.
          5    1    3    3  501    0 -0.82600462665E+01 -0.36799456301E+02 -0.65194521194E+02  0.75464189799E+02  0.47000000000E+01 0. -1.
        -11    1    4    4    0    0 -0.15188527520E+02  0.53753465799E+02 -0.32300085964E+02  0.64524584515E+02  0.00000000000E+00 0.  1.
         12    1    4    4    0    0  0.45391361387E+02  0.46788669182E+02  0.95062030155E+01  0.65878093083E+02  0.00000000000E+00 0. -1.
         -5    1    5    5    0  502 -0.17122189574E+01 -0.88526501229E+02  0.81238900129E+02  0.12025690004E+03  0.47000000000E+01 0.  1.
         13    1    6    6    0    0 -0.29757044836E+02  0.28887531275E+01  0.44373378919E+02  0.53505358317E+02  0.00000000000E+00 0. -1.
        -14    1    6    6    0    0  0.95264761926E+01  0.21895069421E+02 -0.25317360059E+02  0.34801099608E+02  0.00000000000E+00 0.  1.
</event>
<event>
12    1  0.1565987E-001  0.1838418E+03  0.7818608E-02  0.1164421E+00
         21   -1    0    0  503  502  0.00000000000E+00  0.00000000000E+00  0.18062976632E+03  0.18062976632E+03  0.00000000000E+00 0.  1.
         21   -1    0    0  501  503 -0.00000000000E+00 -0.00000000000E+00 -0.19225302291E+03  0.19225302291E+03  0.00000000000E+00 0.  1.
          6    2    1    2  501    0 -0.40860568630E+02 -0.42282899643E+02 -0.39726193635E+02  0.18690541150E+03  0.17291047602E+03 0.  0.
         24    2    3    3    0    0 -0.67629273121E+02 -0.36568495673E+02 -0.80980823949E+02  0.13717360603E+03  0.79672648292E+02 0.  0.
         -6    2    1    2    0  502  0.40860568630E+02  0.42282899643E+02  0.28102937048E+02  0.18597737772E+03  0.17418490257E+03 0.  0.
        -24    2    5    5    0    0 -0.43365901121E+02  0.13058734564E+02  0.29507019035E+02  0.96690136319E+02  0.80169734693E+02 0.  0.
          5    1    3    3  501    0  0.26768704491E+02 -0.57144039705E+01  0.41254630315E+02  0.49731805470E+02  0.47000000000E+01 0. -1.
        -13    1    4    4    0    0 -0.62236819639E+02 -0.57351897265E+02 -0.78720058931E+02  0.11558334446E+03  0.00000000000E+00 0.  1.
         14    1    4    4    0    0 -0.53924534822E+01  0.20783401592E+02 -0.22607650182E+01  0.21590261572E+02  0.00000000000E+00 0. -1.
         -5    1    5    5    0  502  0.84226469750E+02  0.29224165079E+02 -0.14040819864E+01  0.89287241403E+02  0.47000000000E+01 0.  1.
         13    1    6    6    0    0 -0.35298083367E+02 -0.73319098893E+01  0.53290823538E+02  0.64339905699E+02  0.00000000000E+00 0. -1.
        -14    1    6    6    0    0 -0.80678177538E+01  0.20390644454E+02 -0.23783804503E+02  0.32350230620E+02  0.00000000000E+00 0.  1.
</event>
<event>
12    1  0.1565987E-001  0.2054900E+03  0.7818608E-02  0.1145401E+00
         21   -1    0    0  503  502  0.00000000000E+00  0.00000000000E+00  0.24704618665E+04  0.24704618665E+04  0.00000000000E+00 0. -1.
         21   -1    0    0  501  503 -0.00000000000E+00 -0.00000000000E+00 -0.19049251963E+02  0.19049251963E+02  0.00000000000E+00 0. -1.
          6    2    1    2  501    0  0.76870606054E+02 -0.84036271674E+02  0.82078777945E+03  0.84611979305E+03  0.17104075619E+03 0.  0.
         24    2    3    3    0    0  0.19845696499E+02 -0.19789401608E+01  0.57006377293E+03  0.57617560733E+03  0.81288728603E+02 0.  0.
         -6    2    1    2    0  502 -0.76870606054E+02  0.84036271674E+02  0.16306248351E+04  0.16433913254E+04  0.16978371705E+03 0.  0.
        -24    2    5    5    0    0 -0.11575600852E+03  0.53595184172E+02  0.12461248495E+04  0.12557045147E+04  0.87719953491E+02 0.  0.
          5    1    3    3  501    0  0.57024909555E+02 -0.82057331513E+02  0.25072400651E+03  0.26994418573E+03  0.47000000000E+01 0. -1.
        -11    1    4    4    0    0 -0.17069308818E+02  0.27008964999E+02  0.33165806289E+03  0.33319351160E+03  0.00000000000E+00 0.  1.
         12    1    4    4    0    0  0.36915005318E+02 -0.28987905160E+02  0.23840571004E+03  0.24298209573E+03  0.00000000000E+00 0. -1.
         -5    1    5    5    0  502  0.38885402463E+02  0.30441087502E+02  0.38449998556E+03  0.38768681075E+03  0.47000000000E+01 0.  1.
         13    1    6    6    0    0 -0.86313075871E+02  0.19846265850E+02  0.46892829671E+03  0.47721857549E+03  0.00000000000E+00 0. -1.
        -14    1    6    6    0    0 -0.29442932646E+02  0.33748918322E+02  0.77719655281E+03  0.77848593916E+03  0.00000000000E+00 0.  1.
</event>
<event>
12    1  0.1565987E-001  0.2386727E+03  0.7818608E-02  0.1121188E+00
         21   -1    0    0  501  502  0.00000000000E+00  0.00000000000E+00  0.54495751184E+02  0.54495751184E+02  0.00000000000E+00 0. -1.
         21   -1    0    0  502  503 -0.00000000000E+00 -0.00000000000E+00 -0.10323118220E+04  0.10323118220E+04  0.00000000000E+00 0.  1.
         -6    2    1    2    0  503  0.13519414659E+03  0.86601498869E+02 -0.47938734445E+03  0.53418126241E+03  0.17251121186E+03 0.  0.
        -24    2    3    3    0    0 -0.14746811717E+01  0.34779478323E+02 -0.14718557016E+03  0.17121570050E+03  0.80246104187E+02 0.  0.
          6    2    1    2  501    0 -0.13519414659E+03 -0.86601498869E+02 -0.49842872640E+03  0.55262631080E+03  0.17659945416E+03 0.  0.
         24    2    5    5    0    0 -0.16006426857E+03 -0.36422825924E+02 -0.39193403878E+03  0.43221189855E+03  0.79042027919E+02 0.  0.
          5    1    5    5  501    0  0.24870121977E+02 -0.50178672945E+02 -0.10649468762E+03  0.12041441225E+03  0.47000000000E+01 0. -1.
        -11    1    6    6    0    0 -0.62534581726E+02 -0.36585647746E+02 -0.24785300348E+03  0.25822508567E+03  0.00000000000E+00 0.  1.
         12    1    6    6    0    0 -0.97529686840E+02  0.16282182194E+00 -0.14408103529E+03  0.17398681288E+03  0.00000000000E+00 0. -1.
         -5    1    3    3    0  503  0.13666882776E+03  0.51822020546E+02 -0.33220177429E+03  0.36296556191E+03  0.47000000000E+01 0.  1.
         11    1    4    4    0    0 -0.19393682628E+02 -0.20691732003E+02 -0.37667730756E+02  0.47149980270E+02  0.00000000000E+00 0. -1.
        -12    1    4    4    0    0  0.17919001456E+02  0.55471210327E+02 -0.10951783941E+03  0.12406572023E+03  0.00000000000E+00 0.  1.
</event>
<event>
12    1  0.1565987E-001  0.2406276E+03  0.7818608E-02  0.1119663E+00
         21   -1    0    0  503  502  0.00000000000E+00  0.00000000000E+00  0.14410200516E+03  0.14410200516E+03  0.00000000000E+00 0. -1.
         21   -1    0    0  501  503 -0.00000000000E+00 -0.00000000000E+00 -0.50960790711E+03  0.50960790711E+03  0.00000000000E+00 0.  1.
          6    2    1    2  501    0  0.30806605744E+02  0.16274211809E+03 -0.33558824900E+03  0.41294200618E+03  0.17454965954E+03 0.  0.
         24    2    3    3    0    0 -0.40513401361E+02  0.74685413509E+02 -0.21430250267E+03  0.24689126425E+03  0.88376959830E+02 0.  0.
         -6    2    1    2    0  502 -0.30806605744E+02 -0.16274211809E+03 -0.29917652954E+02  0.24076790610E+03  0.17216293066E+03 0.  0.
        -24    2    5    5    0    0  0.49280513859E+02 -0.95123519895E+02 -0.93225620145E+01  0.13384518018E+03  0.79690457465E+02 0.  0.
          5    1    3    3  501    0  0.71320007105E+02  0.88056704577E+02 -0.12128574633E+03  0.16605074193E+03  0.47000000000E+01 0. -1.
        -11    1    4    4    0    0 -0.13561181781E+02 -0.18905282547E+02 -0.60786408607E+02  0.65086886781E+02  0.00000000000E+00 0.  1.
         12    1    4    4    0    0 -0.26952219581E+02  0.93590696056E+02 -0.15351609407E+03  0.18180437747E+03  0.00000000000E+00 0. -1.
         -5    1    5    5    0  502 -0.80087119603E+02 -0.67618598191E+02 -0.20595090939E+02  0.10692272592E+03  0.47000000000E+01 0.  1.
         13    1    6    6    0    0  0.25404410373E+02 -0.14314664057E+02  0.29135867026E+02  0.41221261756E+02  0.00000000000E+00 0. -1.
        -14    1    6    6    0    0  0.23876103486E+02 -0.80808855838E+02 -0.38458429040E+02  0.92623918422E+02  0.00000000000E+00 0.  1.
</event>
<event>
12    1  0.1565987E-001  0.2435054E+03  0.7818608E-02  0.1117641E+00
         21   -1    0    0  503  502  0.00000000000E+00  0.00000000000E+00  0.13885684225E+03  0.13885684225E+03  0.00000000000E+00 0.  1.
         21   -1    0    0  501  503 -0.00000000000E+00 -0.00000000000E+00 -0.45654743965E+03  0.45654743965E+03  0.00000000000E+00 0. -1.
          6    2    1    2  501    0  0.90563591295E+02 -0.14446436171E+03 -0.80653476236E+02  0.25557864460E+03  0.17246374829E+03 0.  0.
         24    2    3    3    0    0  0.11355639193E+03 -0.88404371193E+02 -0.99686853985E+02  0.19189386709E+03  0.78583715711E+02 0.  0.
         -6    2    1    2    0  502 -0.90563591295E+02  0.14446436171E+03 -0.23703712116E+03  0.33982563729E+03  0.17384806896E+03 0.  0.
        -24    2    5    5    0    0 -0.79591041189E+02  0.58360594215E+02 -0.21606245705E+03  0.25040370392E+03  0.79235956476E+02 0.  0.
          5    1    3    3  501    0 -0.22992800640E+02 -0.56059990519E+02  0.19033377749E+02  0.63684777512E+02  0.47000000000E+01 0. -1.
        -13    1    4    4    0    0  0.16346598923E+02 -0.55613251995E+02 -0.17825140339E+02  0.60644708936E+02  0.00000000000E+00 0.  1.
         14    1    4    4    0    0  0.97209793012E+02 -0.32791119198E+02 -0.81861713646E+02  0.13124915816E+03  0.00000000000E+00 0. -1.
         -5    1    5    5    0  502 -0.10972550107E+02  0.86103767498E+02 -0.20974664117E+02  0.89421933372E+02  0.47000000000E+01 0.  1.
         13    1    6    6    0    0 -0.88249625154E+02  0.69461917698E+02 -0.18754414432E+03  0.21859954350E+03  0.00000000000E+00 0. -1.
        -14    1    6    6    0    0  0.86585839653E+01 -0.11101323483E+02 -0.28518312730E+02  0.31804160425E+02  0.00000000000E+00 0.  1.
</event>
<event>
12    1  0.1565987E-001  0.2584902E+03  0.7818608E-02  0.1108396E+00
         21   -1    0    0  503  502  0.00000000000E+00  0.00000000000E+00  0.15243899234E+03  0.15243899234E+03  0.00000000000E+00 0. -1.
         21   -1    0    0  501  503 -0.00000000000E+00 -0.00000000000E+00 -0.44535537714E+03  0.44535537714E+03  0.00000000000E+00 0. -1.
          6    2    1    2  501    0 -0.17592680708E+03 -0.71659876733E+02 -0.10044303058E+03  0.27731927466E+03  0.17530487251E+03 0.  0.
         24    2    3    3    0    0 -0.35273240782E+02  0.97212138380E+01 -0.69535990159E+02  0.11183923731E+03  0.79586792632E+02 0.  0.
         -6    2    1    2    0  502  0.17592680708E+03  0.71659876733E+02 -0.19247335422E+03  0.32047509481E+03  0.17196777293E+03 0.  0.
        -24    2    5    5    0    0  0.15632976959E+03  0.14988812481E+02 -0.79991421437E+02  0.19292146450E+03  0.78462746591E+02 0.  0.
          5    1    3    3  501    0 -0.14065356630E+03 -0.81381090571E+02 -0.30907040422E+02  0.16548003735E+03  0.47000000000E+01 0. -1.
        -13    1    4    4    0    0 -0.51898964441E+02 -0.28626525112E+01 -0.74082570990E+02  0.90498202269E+02  0.00000000000E+00 0.  1.
         14    1    4    4    0    0  0.16625723659E+02  0.12583866349E+02  0.45465808307E+01  0.21341035043E+02  0.00000000000E+00 0. -1.
         -5    1    5    5    0  502  0.19597037487E+02  0.56671064252E+02 -0.11248193278E+03  0.12755363031E+03  0.47000000000E+01 0.  1.
         11    1    6    6    0    0  0.31854764658E+02 -0.28676161199E+02 -0.27646598756E+02  0.51003751581E+02  0.00000000000E+00 0. -1.
        -12    1    6    6    0    0  0.12447500493E+03  0.43664973680E+02 -0.52344822681E+02  0.14191771292E+03  0.00000000000E+00 0.  1.
</event>
<event>
12    1  0.1565987E-001  0.1957662E+03  0.7818608E-02  0.1153425E+00
         21   -1    0    0  501  502  0.00000000000E+00  0.00000000000E+00  0.73557445102E+03  0.73557445102E+03  0.00000000000E+00 0.  1.
         21   -1    0    0  502  503 -0.00000000000E+00 -0.00000000000E+00 -0.53209323973E+02  0.53209323973E+02  0.00000000000E+00 0. -1.
         -6    2    1    2    0  503 -0.43422553231E+02 -0.83116025664E+02  0.28203553268E+03  0.34315142655E+03  0.17150821555E+03 0.  0.
        -24    2    3    3    0    0 -0.45600256082E+02  0.62964080440E+01  0.86878856588E+02  0.12842475398E+03  0.82619329480E+02 0.  0.
          6    2    1    2  501    0  0.43422553231E+02  0.83116025664E+02  0.40032959437E+03  0.44563234844E+03  0.17184473806E+03 0.  0.
         24    2    5    5    0    0  0.30606765985E+01 -0.10218357987E+02  0.26251198034E+03  0.27429591626E+03  0.78815780612E+02 0.  0.
          5    1    5    5  501    0  0.40361876632E+02  0.93334383650E+02  0.13781761403E+03  0.17133643219E+03  0.47000000000E+01 0. -1.
        -13    1    6    6    0    0 -0.34671587278E+01  0.16562873775E+02  0.23409520042E+03  0.23470601363E+03  0.00000000000E+00 0.  1.
         14    1    6    6    0    0  0.65278353263E+01 -0.26781231762E+02  0.28416779920E+02  0.39589902624E+02  0.00000000000E+00 0. -1.
         -5    1    3    3    0  503  0.21777028516E+01 -0.89412433708E+02  0.19515667609E+03  0.21472667257E+03  0.47000000000E+01 0.  1.
         11    1    4    4    0    0 -0.41224420264E+02 -0.20706633748E+02  0.10524297717E+02  0.47317843883E+02  0.00000000000E+00 0. -1.
        -12    1    4    4    0    0 -0.43758358188E+01  0.27003041792E+02  0.76354558871E+02  0.81106910097E+02  0.00000000000E+00 0.  1.
</event>
<event>
12    1  0.1565987E-001  0.2801020E+03  0.7818608E-02  0.1096964E+00
         21   -1    0    0  501  502  0.00000000000E+00  0.00000000000E+00  0.12724516135E+03  0.12724516135E+03  0.00000000000E+00 0.  1.
         21   -1    0    0  502  503 -0.00000000000E+00 -0.00000000000E+00 -0.88652455460E+03  0.88652455460E+03  0.00000000000E+00 0. -1.
         -6    2    1    2    0  503 -0.69924066382E+02  0.19508495358E+03 -0.67436790453E+03  0.73022545710E+03  0.18843999937E+03 0.  0.
        -24    2    3    3    0    0 -0.95994063004E+02  0.57076248372E+02 -0.25860579956E+03  0.29135615381E+03  0.74423722956E+02 0.  0.
          6    2    1    2  501    0  0.69924066382E+02 -0.19508495358E+03 -0.84911488713E+02  0.28354425884E+03  0.17389615188E+03 0.  0.
         24    2    5    5    0    0  0.34983838331E+02 -0.21000559580E+03 -0.52309934059E+02  0.23326109599E+03  0.79675532572E+02 0.  0.
          5    1    5    5  501    0  0.34940228051E+02  0.14920642224E+02 -0.32601554653E+02  0.50283162852E+02  0.47000000000E+01 0. -1.
        -13    1    6    6    0    0  0.48745161314E+02 -0.63935775310E+02 -0.13792229564E+02  0.81572665228E+02  0.00000000000E+00 0.  1.
         14    1    6    6    0    0 -0.13761322983E+02 -0.14606982049E+03 -0.38517704495E+02  0.15168843076E+03  0.00000000000E+00 0. -1.
         -5    1    3    3    0  503  0.26069996622E+02  0.13800870520E+03 -0.41576210497E+03  0.43886930329E+03  0.47000000000E+01 0.  1.
         13    1    4    4    0    0 -0.10377734339E+03  0.65108806534E+02 -0.22905899045E+03  0.25976318984E+03  0.00000000000E+00 0. -1.
        -14    1    4    4    0    0  0.77832803843E+01 -0.80325581613E+01 -0.29546809111E+02  0.31592963977E+02  0.00000000000E+00 0.  1.
</event>
<event>
12    1  0.1565987E-001  0.2924422E+03  0.7818608E-02  0.1089135E+00
         21   -1    0    0  503  502  0.00000000000E+00  0.00000000000E+00  0.11577428763E+04  0.11577428763E+04  0.00000000000E+00 0. -1.
         21   -1    0    0  501  503 -0.00000000000E+00 -0.00000000000E+00 -0.96146080575E+02  0.96146080575E+02  0.00000000000E+00 0.  1.
          6    2    1    2  501    0  0.18267615175E+03  0.14955073006E+03  0.22801260402E+03  0.37049490863E+03  0.17187417621E+03 0.  0.
         24    2    3    3    0    0  0.89140089816E+02  0.60415869389E+02  0.19565325201E+03  0.23721611837E+03  0.79970362684E+02 0.  0.
         -6    2    1    2    0  502 -0.18267615175E+03 -0.14955073006E+03  0.83358419167E+03  0.88339404821E+03  0.17258749238E+03 0.  0.
        -24    2    5    5    0    0 -0.19555476233E+03 -0.10603817873E+03  0.76740422508E+03  0.80301321274E+03  0.80219790189E+02 0.  0.
          5    1    3    3  501    0  0.93536061938E+02  0.89134860669E+02  0.32359352005E+02  0.13327879025E+03  0.47000000000E+01 0. -1.
        -11    1    4    4    0    0  0.40253917128E+02  0.72304314605E+02  0.10681829802E+03  0.13512379711E+03  0.00000000000E+00 0.  1.
         12    1    4    4    0    0  0.48886172688E+02 -0.11888445216E+02  0.88834953994E+02  0.10209232126E+03  0.00000000000E+00 0. -1.
         -5    1    5    5    0  502  0.12878610580E+02 -0.43512551326E+02  0.66179966595E+02  0.80380835476E+02  0.47000000000E+01 0.  1.
         11    1    6    6    0    0 -0.15565271974E+03 -0.80763562406E+02  0.46545611987E+03  0.49739312591E+03  0.00000000000E+00 0. -1.
        -12    1    6    6    0    0 -0.39902042592E+02 -0.25274616326E+02  0.30194810521E+03  0.30562008682E+03  0.00000000000E+00 0.  1.
</event>
<event>
12    1  0.1565987E-001  0.2012296E+03  0.7818608E-02  0.1149350E+00
         21   -1    0    0  503  502  0.00000000000E+00  0.00000000000E+00  0.92762312921E+03  0.92762312921E+03  0.00000000000E+00 0. -1.
         21   -1    0    0  501  503 -0.00000000000E+00 -0.00000000000E+00 -0.64902915318E+02  0.64902915318E+02  0.00000000000E+00 0. -1.
          6    2    1    2  501    0  0.83674693991E+02  0.69354951928E+02  0.14084235378E+03  0.24312560732E+03  0.16571641000E+03 0.  0.
         24    2    3    3    0    0  0.79082506470E+02  0.19592628459E+01  0.13521821677E+03  0.17517718563E+03  0.78391317609E+02 0.  0.
         -6    2    1    2    0  502 -0.83674693991E+02 -0.69354951928E+02  0.72187786011E+03  0.74940043721E+03  0.16935703884E+03 0.  0.
        -24    2    5    5    0    0 -0.11130666969E+03 -0.91365136524E+02  0.62266625871E+03  0.64398219325E+03  0.79139323984E+02 0.  0.
          5    1    3    3  501    0  0.45921875206E+01  0.67395689082E+02  0.56241370114E+01  0.67948421690E+02  0.47000000000E+01 0. -1.
        -13    1    4    4    0    0 -0.67994819121E+01 -0.19126621239E+02  0.42215175201E+02  0.46842092306E+02  0.00000000000E+00 0.  1.
         14    1    4    4    0    0  0.85881988382E+02  0.21085884085E+02  0.93003041571E+02  0.12833509332E+03  0.00000000000E+00 0. -1.
         -5    1    5    5    0  502  0.27631975702E+02  0.22010184596E+02  0.99211601396E+02  0.10541824396E+03  0.47000000000E+01 0.  1.
         11    1    6    6    0    0 -0.52606801302E+02 -0.32091813091E+02  0.12490370884E+03  0.13927776741E+03  0.00000000000E+00 0. -1.
        -12    1    6    6    0    0 -0.58699868390E+02 -0.59273323433E+02  0.49776254987E+03  0.50470442585E+03  0.00000000000E+00 0.  1.
</event>
<event>
12    1  0.1565987E-001  0.2407190E+03  0.7818608E-02  0.1120231E+00
         21   -1    0    0  501  502  0.00000000000E+00  0.00000000000E+00  0.95149558211E+03  0.95149558211E+03  0.00000000000E+00 0.  1.
         21   -1    0    0  502  503 -0.00000000000E+00 -0.00000000000E+00 -0.59720730031E+02  0.59720730031E+02  0.00000000000E+00 0.  1.
         -6    2    1    2    0  503 -0.66341657408E+02  0.15308812584E+03  0.42216023352E+03  0.48596797968E+03  0.17351779369E+03 0.  0.
        -24    2    3    3    0    0 -0.17488578154E+02  0.12962298960E+03  0.17084279862E+03  0.22883031410E+03  0.77897888385E+02 0.  0.
          6    2    1    2  501    0  0.66341657408E+02 -0.15308812584E+03  0.46961461856E+03  0.52524833246E+03  0.16586359157E+03 0.  0.
         24    2    5    5    0    0  0.18055238512E+02 -0.12273071415E+03  0.43281278757E+03  0.45720705485E+03  0.79514540108E+02 0.  0.
          5    1    5    5  501    0  0.48286418896E+02 -0.30357411693E+02  0.36801830983E+02  0.68041277606E+02  0.47000000000E+01 0. -1.
        -13    1    6    6    0    0  0.44951594528E+02 -0.41834470534E+02  0.15973108574E+03  0.17112798873E+03  0.00000000000E+00 0.  1.
         14    1    6    6    0    0 -0.26896356016E+02 -0.80896243612E+02  0.27308170183E+03  0.28607906612E+03  0.00000000000E+00 0. -1.
         -5    1    3    3    0  503 -0.48853079255E+02  0.23465136241E+02  0.25131743490E+03  0.25713766558E+03  0.47000000000E+01 0.  1.
         13    1    4    4    0    0  0.30192827384E+02  0.45921380571E+02  0.74625949083E+02  0.92679082298E+02  0.00000000000E+00 0. -1.
        -14    1    4    4    0    0 -0.47681405538E+02  0.83701609028E+02  0.96216849534E+02  0.13615123181E+03  0.00000000000E+00 0.  1.
</event>
<event>
12    1  0.1565987E-001  0.1910308E+03  0.7818608E-02  0.1157744E+00
         21   -1    0    0  503  502  0.00000000000E+00  0.00000000000E+00  0.31768419004E+03  0.31768419004E+03  0.00000000000E+00 0. -1.
         21   -1    0    0  501  503 -0.00000000000E+00 -0.00000000000E+00 -0.11497684989E+03  0.11497684989E+03  0.00000000000E+00 0.  1.
          6    2    1    2  501    0 -0.62573499791E+02 -0.51906079170E+02  0.11805049175E+03  0.22456331643E+03  0.17286723389E+03 0.  0.
         24    2    3    3    0    0 -0.82974373105E+02 -0.46604247875E+02  0.22033576916E+02  0.12614765213E+03  0.79818851864E+02 0.  0.
         -6    2    1    2    0  502  0.62573499791E+02  0.51906079170E+02  0.84656848399E+02  0.20809772350E+03  0.17183770428E+03 0.  0.
        -24    2    5    5    0    0 -0.13966776694E+02  0.60812754811E+02  0.11094145694E+02  0.10146140687E+03  0.79234304540E+02 0.  0.
          5    1    3    3  501    0  0.20400873314E+02 -0.53018312950E+01  0.96016914834E+02  0.98415664309E+02  0.47000000000E+01 0. -1.
        -13    1    4    4    0    0 -0.85846727796E+02 -0.18803674489E+02 -0.39718716867E+01  0.87971669373E+02  0.00000000000E+00 0.  1.
         14    1    4    4    0    0  0.28723546915E+01 -0.27800573386E+02  0.26005448602E+02  0.38175982752E+02  0.00000000000E+00 0. -1.
         -5    1    5    5    0  502  0.76540276485E+02 -0.89066756409E+01  0.73562702704E+02  0.10663631663E+03  0.47000000000E+01 0.  1.
         13    1    6    6    0    0 -0.33736997429E+01 -0.83439690581E+01  0.28061954596E+02  0.29469933243E+02  0.00000000000E+00 0. -1.
        -14    1    6    6    0    0 -0.10593076951E+02  0.69156723869E+02 -0.16967808902E+02  0.71991473624E+02  0.00000000000E+00 0.  1.
</event>
<event>
12    1  0.1565987E-001  0.2416513E+03  0.7818608E-02  0.1120663E+00
         21   -1    0    0  503  502  0.00000000000E+00  0.00000000000E+00  0.57310333216E+03  0.57310333216E+03  0.00000000000E+00 0.  1.
         21   -1    0    0  501  503 -0.00000000000E+00 -0.00000000000E+00 -0.12125323992E+03  0.12125323992E+03  0.00000000000E+00 0.  1.
          6    2    1    2  501    0  0.14740164703E+03 -0.33703861907E+02  0.66441721846E+02  0.23945554713E+03  0.17338183525E+03 0.  0.
         24    2    3    3    0    0  0.13739685300E+03 -0.94831108530E+01  0.10642797212E+03  0.19141669935E+03  0.79659368147E+02 0.  0.
         -6    2    1    2    0  502 -0.14740164703E+03  0.33703861907E+02  0.38540837040E+03  0.45490102495E+03  0.18849969410E+03 0.  0.
        -24    2    5    5    0    0 -0.12640503733E+03  0.13421445332E+00  0.14860966080E+03  0.21476877449E+03  0.89791668513E+02 0.  0.
          5    1    3    3  501    0  0.10004794023E+02 -0.24220751054E+02 -0.39986250272E+02  0.48038847778E+02  0.47000000000E+01 0. -1.
        -11    1    4    4    0    0  0.22411458057E+02 -0.25412511166E+02  0.54666985157E+02  0.64316004557E+02  0.00000000000E+00 0.  1.
         12    1    4    4    0    0  0.11498539495E+03  0.15929400313E+02  0.51760986962E+02  0.12710069479E+03  0.00000000000E+00 0. -1.
         -5    1    5    5    0  502 -0.20996609699E+02  0.33569647454E+02  0.23679870959E+03  0.24013225047E+03  0.47000000000E+01 0.  1.
         13    1    6    6    0    0 -0.54131525916E+02  0.44423735905E+02  0.73442702802E+02  0.10147670178E+03  0.00000000000E+00 0. -1.
        -14    1    6    6    0    0 -0.72273511413E+02 -0.44289521451E+02  0.75166958001E+02  0.11329207270E+03  0.00000000000E+00 0.  1.
</event>
<event>
12    1  0.1565987E-001  0.2587714E+03  0.7818608E-02  0.1107962E+00
         21   -1    0    0  503  502  0.00000000000E+00  0.00000000000E+00  0.16505974618E+03  0.16505974618E+03  0.00000000000E+00 0. -1.
         21   -1    0    0  501  503 -0.00000000000E+00 -0.00000000000E+00 -0.82018362812E+03  0.82018362812E+03  0.00000000000E+00 0. -1.
          6    2    1    2  501    0  0.17662968358E+03  0.78959252826E+02 -0.67827136676E+03  0.72595777305E+03  0.17184304626E+03 0.  0.
         24    2    3    3    0    0  0.13961351087E+03  0.13084934936E+02 -0.30875169738E+03  0.34876220194E+03  0.81512667286E+02 0.  0.
         -6    2    1    2    0  502 -0.17662968358E+03 -0.78959252826E+02  0.23147484821E+02  0.25928560126E+03  0.17105732442E+03 0.  0.
        -24    2    5    5    0    0 -0.19615891364E+03 -0.85437996822E+02 -0.18785325557E+00  0.22782144779E+03  0.78259862532E+02 0.  0.
          5    1    3    3  501    0  0.37016172708E+02  0.65874317891E+02 -0.36951966939E+03  0.37719557111E+03  0.47000000000E+01 0. -1.
        -11    1    4    4    0    0  0.11803352565E+03  0.24673862792E+02 -0.29899574561E+03  0.32239598102E+03  0.00000000000E+00 0.  1.
         12    1    4    4    0    0  0.21579985219E+02 -0.11588927856E+02 -0.97559517694E+01  0.26366220925E+02  0.00000000000E+00 0. -1.
         -5    1    5    5    0  502  0.19529230056E+02  0.64787439956E+01  0.23335338077E+02  0.31464153468E+02  0.47000000000E+01 0.  1.
         13    1    6    6    0    0 -0.27443309954E+02 -0.47463652856E+02 -0.22535524074E+01  0.54872689948E+02  0.00000000000E+00 0. -1.
        -14    1    6    6    0    0 -0.16871560368E+03 -0.37974343966E+02  0.20656991519E+01  0.17294875784E+03  0.00000000000E+00 0.  1.
</event>
<event>
12    1  0.1565987E-001  0.2169889E+03  0.7818608E-02  0.1136421E+00
         21   -1    0    0  501  502  0.00000000000E+00  0.00000000000E+00  0.18709665544E+04  0.18709665544E+04  0.00000000000E+00 0. -1.
         21   -1    0    0  502  503 -0.00000000000E+00 -0.00000000000E+00 -0.16196153511E+03  0.16196153511E+03  0.00000000000E+00 0.  1.
         -6    2    1    2    0  503  0.11834354374E+03 -0.52673395972E+02 -0.79788848213E+02  0.23119351106E+03  0.17408187231E+03 0.  0.
        -24    2    3    3    0    0  0.79846649334E+02  0.27868936414E+02 -0.82860434730E+01  0.11672159629E+03  0.80019419505E+02 0.  0.
          6    2    1    2  501    0 -0.11834354374E+03  0.52673395972E+02  0.17887938675E+04  0.18017345785E+04  0.17229135144E+03 0.  0.
         24    2    5    5    0    0  0.26188836294E+01 -0.41465407875E+01  0.57579503155E+03  0.58138680832E+03  0.80291034211E+02 0.  0.
          5    1    5    5  501    0 -0.12096242737E+03  0.56819936759E+02  0.12129988360E+04  0.12203477702E+04  0.47000000000E+01 0. -1.
        -13    1    6    6    0    0 -0.32193965242E+02 -0.22552302975E+02  0.34802724810E+03  0.35023995087E+03  0.00000000000E+00 0.  1.
         14    1    6    6    0    0  0.34812848871E+02  0.18405762187E+02  0.22776778345E+03  0.23114685744E+03  0.00000000000E+00 0. -1.
         -5    1    3    3    0  503  0.38496894411E+02 -0.80542332385E+02 -0.71502804740E+02  0.11447191477E+03  0.47000000000E+01 0.  1.
         11    1    4    4    0    0 -0.16639227510E+01 -0.19201207043E+02 -0.11678183782E+02  0.22535193970E+02  0.00000000000E+00 0. -1.
        -12    1    4    4    0    0  0.81510572085E+02  0.47070143456E+02  0.33921403086E+01  0.94186402323E+02  0.00000000000E+00 0.  1.
</event>
<event>
12    1  0.1565987E-001  0.1893214E+03  0.7818608E-02  0.1159239E+00
         21   -1    0    0  503  502  0.00000000000E+00  0.00000000000E+00  0.14195694356E+03  0.14195694356E+03  0.00000000000E+00 0.  1.
         21   -1    0    0  501  503 -0.00000000000E+00 -0.00000000000E+00 -0.54751372962E+03  0.54751372962E+03  0.00000000000E+00 0. -1.
          6    2    1    2  501    0 -0.48947253994E+02  0.61731462047E+02 -0.45642644647E+03  0.49413326382E+03  0.17215102176E+03 0.  0.
         24    2    3    3    0    0 -0.42199970810E+01  0.28975971109E+02 -0.89463057974E+02  0.12297606236E+03  0.79133165574E+02 0.  0.
         -6    2    1    2    0  502  0.48947253994E+02 -0.61731462047E+02  0.50869660409E+02  0.19533740937E+03  0.17135452742E+03 0.  0.
        -24    2    5    5    0    0 -0.31184364061E+01  0.32258218851E+02 -0.71336809088E+01  0.73143408550E+02  0.65182447652E+02 0.  0.
          5    1    3    3  501    0 -0.44727256913E+02  0.32755490937E+02 -0.36696338850E+03  0.37115720146E+03  0.47000000000E+01 0. -1.
        -11    1    4    4    0    0 -0.41401973410E+02  0.15209118232E+02 -0.39641566199E+02  0.59303410107E+02  0.00000000000E+00 0.  1.
         12    1    4    4    0    0  0.37181976329E+02  0.13766852878E+02 -0.49821491776E+02  0.63672652251E+02  0.00000000000E+00 0. -1.
         -5    1    5    5    0  502  0.52065690400E+02 -0.93989680897E+02  0.58003341317E+02  0.12219400082E+03  0.47000000000E+01 0.  1.
         13    1    6    6    0    0  0.21540519589E+02  0.23457953261E+02 -0.25801460695E+02  0.40987619221E+02  0.00000000000E+00 0. -1.
        -14    1    6    6    0    0 -0.24658955995E+02  0.88002655894E+01  0.18667779787E+02  0.32155789329E+02  0.00000000000E+00 0.  1.
</event>
<event>
12    1  0.1565987E-001  0.1852842E+03  0.7818608E-02  0.1162940E+00
         21   -1    0    0  503  502  0.00000000000E+00  0.00000000000E+00  0.90456796167E+02  0.90456796167E+02  0.00000000000E+00 0. -1.
         21   -1    0    0  501  503 -0.00000000000E+00 -0.00000000000E+00 -0.52322467276E+03  0.52322467276E+03  0.00000000000E+00 0. -1.
          6    2    1    2  501    0  0.26398169956E+02  0.61606311620E+02 -0.37766889172E+03  0.42037829551E+03  0.17202301751E+03 0.  0.
         24    2    3    3    0    0  0.33931537899E+01  0.93986041645E+02 -0.17307130695E+03  0.21190781947E+03  0.78143183626E+02 0.  0.
         -6    2    1    2    0  502 -0.26398169956E+02 -0.61606311620E+02 -0.55098984879E+02  0.19330317342E+03  0.17273684527E+03 0.  0.
        -24    2    5    5    0    0 -0.21565229158E+02 -0.64175769604E+02  0.29659833052E+02  0.10823786529E+03  0.79070482943E+02 0.  0.
          5    1    3    3  501    0  0.23005016166E+02 -0.32379730026E+02 -0.20459758477E+03  0.20847047603E+03  0.47000000000E+01 0. -1.
        -13    1    4    4    0    0 -0.32021762452E+02  0.64501184935E+02 -0.77415514279E+02  0.10573059150E+03  0.00000000000E+00 0.  1.
         14    1    4    4    0    0  0.35414916241E+02  0.29484856710E+02 -0.95655792673E+02  0.10617722797E+03  0.00000000000E+00 0. -1.
         -5    1    5    5    0  502 -0.48329407979E+01  0.25694579846E+01 -0.84758817931E+02  0.85065308135E+02  0.47000000000E+01 0.  1.
         11    1    6    6    0    0 -0.41374861976E+02 -0.42320388728E+02  0.45595175182E+02  0.74711541983E+02  0.00000000000E+00 0. -1.
        -12    1    6    6    0    0  0.19809632818E+02 -0.21855380876E+02 -0.15935342130E+02  0.33526323306E+02  0.00000000000E+00 0.  1.
</event>
<event>
12    1  0.1565987E-001  0.1812214E+03  0.7818608E-02  0.1168417E+00
         21   -1    0    0  503  502  0.00000000000E+00  0.00000000000E+00  0.15795410518E+03  0.15795410518E+03  0.00000000000E+00 0.  1.
         21   -1    0    0  501  503 -0.00000000000E+00 -0.00000000000E+00 -0.20077298054E+03  0.20077298054E+03  0.00000000000E+00 0.  1.
          6    2    1    2  501    0  0.12513017836E+02 -0.10489027177E+02 -0.82475287238E+01  0.18140902592E+03  0.18048439725E+03 0.  0.
         24    2    3    3    0    0  0.54615337433E+01  0.36101200178E+02 -0.56645426814E+02  0.11369773253E+03  0.91571529412E+02 0.  0.
         -6    2    1    2    0  502 -0.12513017836E+02  0.10489027177E+02 -0.34571346643E+02  0.17731805980E+03  0.17314710802E+03 0.  0.
        -24    2    5    5    0    0  0.32622791904E+02  0.98446813828E+01  0.35403727951E+02  0.93913877847E+02  0.80032669555E+02 0.  0.
          5    1    3    3  501    0  0.70514840923E+01 -0.46590227355E+02  0.48397898090E+02  0.67711293389E+02  0.47000000000E+01 0. -1.
        -13    1    4    4    0    0 -0.40168290278E+02  0.17067207664E+02 -0.80630528632E+01  0.44382360717E+02  0.00000000000E+00 0.  1.
         14    1    4    4    0    0  0.45629824021E+02  0.19033992514E+02 -0.48582373950E+02  0.69315371816E+02  0.00000000000E+00 0. -1.
         -5    1    5    5    0  502 -0.45135809740E+02  0.64434579424E+00 -0.69975074594E+02  0.83404181951E+02  0.47000000000E+01 0.  1.
         13    1    6    6    0    0 -0.21434329184E+02 -0.50469625280E+01 -0.75526659141E+01  0.23279713502E+02  0.00000000000E+00 0. -1.
        -14    1    6    6    0    0  0.54057121088E+02  0.14891643911E+02  0.42956393866E+02  0.70634164345E+02  0.00000000000E+00 0.  1.
</event>
<event>
12    1  0.1565987E-001  0.2372077E+03  0.7818608E-02  0.1122692E+00
         21   -1    0    0  501  502  0.00000000000E+00  0.00000000000E+00  0.78476978161E+02  0.78476978161E+02  0.00000000000E+00 0.  1.
         21   -1    0    0  502  503 -0.00000000000E+00 -0.00000000000E+00 -0.70078688822E+03  0.70078688822E+03  0.00000000000E+00 0. -1.
         -6    2    1    2    0  503 -0.18788959549E+02  0.15734933860E+03 -0.33456353246E+03  0.41012222304E+03  0.17650960658E+03 0.  0.
        -24    2    3    3    0    0 -0.45878626025E+02  0.11140331631E+03 -0.32507164033E+03  0.35574324722E+03  0.79788090520E+02 0.  0.
          6    2    1    2  501    0  0.18788959549E+02 -0.15734933860E+03 -0.28774637760E+03  0.36914164334E+03  0.16839161401E+03 0.  0.
         24    2    5    5    0    0 -0.13094896437E+02 -0.64630824816E+02 -0.23718845590E+03  0.25872653334E+03  0.79576602156E+02 0.  0.
          5    1    5    5  501    0  0.31883855986E+02 -0.92718513789E+02 -0.50557921697E+02  0.11041511001E+03  0.47000000000E+01 0. -1.
        -11    1    6    6    0    0  0.82493224712E+01 -0.69734901285E+02 -0.11624712614E+03  0.13581016940E+03  0.00000000000E+00 0.  1.
         12    1    6    6    0    0 -0.21344218909E+02  0.51040764688E+01 -0.12094132976E+03  0.12291636393E+03  0.00000000000E+00 0. -1.
         -5    1    3    3    0  503  0.27089666477E+02  0.45946022290E+02 -0.94918921332E+01  0.54378975812E+02  0.47000000000E+01 0.  1.
         13    1    4    4    0    0 -0.53723425623E+02  0.10584486227E+03 -0.21782632001E+03  0.24806782746E+03  0.00000000000E+00 0. -1.
        -14    1    4    4    0    0  0.78447995977E+01  0.55584540413E+01 -0.10724532032E+03  0.10767541977E+03  0.00000000000E+00 0.  1.
</event>
<event>
12    1  0.1565987E-001  0.2837205E+03  0.7818608E-02  0.1094702E+00
         21   -1    0    0  501  502  0.00000000000E+00  0.00000000000E+00  0.71276025513E+02  0.71276025513E+02  0.00000000000E+00 0.  1.
         21   -1    0    0  502  503 -0.00000000000E+00 -0.00000000000E+00 -0.17202672926E+04  0.17202672926E+04  0.00000000000E+00 0. -1.
         -6    2    1    2    0  503 -0.85165933819E+02 -0.19815002550E+03 -0.13554458440E+04  0.13832955495E+04  0.17250064424E+03 0.  0.
        -24    2    3    3    0    0 -0.17632222967E+02 -0.13972176321E+03 -0.10884067572E+04  0.11016812249E+04  0.96120683118E+02 0.  0.
          6    2    1    2  501    0  0.85165933819E+02  0.19815002550E+03 -0.29354542308E+03  0.40824776864E+03  0.18433842871E+03 0.  0.
         24    2    5    5    0    0 -0.12402057306E+02  0.50115998801E+02 -0.52134735643E+02  0.10869010147E+03  0.80187799167E+02 0.  0.
          5    1    5    5  501    0  0.97567991124E+02  0.14803402670E+03 -0.24141068744E+03  0.29955766718E+03  0.47000000000E+01 0. -1.
        -11    1    6    6    0    0 -0.30774127541E+01  0.65254591685E+02 -0.60501742360E+02  0.89039839588E+02  0.00000000000E+00 0.  1.
         12    1    6    6    0    0 -0.93246445515E+01 -0.15138592884E+02  0.83670067171E+01  0.19650261879E+02  0.00000000000E+00 0. -1.
         -5    1    3    3    0  503 -0.67533710852E+02 -0.58428262290E+02 -0.26703908684E+03  0.28161432463E+03  0.47000000000E+01 0.  1.
         11    1    4    4    0    0  0.72032582017E+01 -0.11150795798E+03 -0.51205810128E+03  0.52410820515E+03  0.00000000000E+00 0. -1.
        -12    1    4    4    0    0 -0.24835481168E+02 -0.28213805229E+02 -0.57634865593E+03  0.57757301974E+03  0.00000000000E+00 0.  1.
</event>
<event>
12    1  0.1565987E-001  0.2383874E+03  0.7818608E-02  0.1121118E+00
         21   -1    0    0  503  502  0.00000000000E+00  0.00000000000E+00  0.50191279600E+03  0.50191279600E+03  0.00000000000E+00 0. -1.
         21   -1    0    0  501  503 -0.00000000000E+00 -0.00000000000E+00 -0.11313746234E+03  0.11313746234E+03  0.00000000000E+00 0. -1.
          6    2    1    2  501    0 -0.16176938167E+03  0.27074799987E+01  0.17126122169E+03  0.29234151562E+03  0.17307943958E+03 0.  0.
         24    2    3    3    0    0 -0.56410495534E+02 -0.38546419172E+02  0.11162244597E+03  0.16435224789E+03  0.99418914218E+02 0.  0.
         -6    2    1    2    0  502  0.16176938167E+03 -0.27074799987E+01  0.21751411196E+03  0.32270874272E+03  0.17507678439E+03 0.  0.
        -24    2    5    5    0    0  0.93899659033E+02 -0.53554437560E+02  0.19044874928E+03  0.23356651815E+03  0.81224186987E+02 0.  0.
          5    1    3    3  501    0 -0.10535888614E+03  0.41253899171E+02  0.59638775716E+02  0.12798926773E+03  0.47000000000E+01 0. -1.
        -13    1    4    4    0    0 -0.75497546401E+02 -0.56242888494E+02  0.93118391083E+02  0.13241667862E+03  0.00000000000E+00 0.  1.
         14    1    4    4    0    0  0.19087050868E+02  0.17696469322E+02  0.18504054891E+02  0.31935569272E+02  0.00000000000E+00 0. -1.
         -5    1    5    5    0  502  0.67869722636E+02  0.50846957561E+02  0.27065362682E+02  0.89142224569E+02  0.47000000000E+01 0.  1.
         13    1    6    6    0    0  0.34766184142E+02 -0.53526619655E+02  0.49680323677E+02  0.80882143469E+02  0.00000000000E+00 0. -1.
        -14    1    6    6    0    0  0.59133474891E+02 -0.27817905157E-01  0.14076842560E+03  0.15268437469E+03  0.00000000000E+00 0.  1.
</event>
<event>
12    1  0.1565987E-001  0.1830320E+03  0.7818608E-02  0.1165121E+00
         21   -1    0    0  501  502  0.00000000000E+00  0.00000000000E+00  0.15400315174E+03  0.15400315174E+03  0.00000000000E+00 0.  1.
         21   -1    0    0  502  503 -0.00000000000E+00 -0.00000000000E+00 -0.33985689562E+03  0.33985689562E+03  0.00000000000E+00 0.  1.
         -6    2    1    2    0  503 -0.55295506148E+01  0.66835290954E+02 -0.24158645747E+03  0.30253086317E+03  0.16930261278E+03 0.  0.
        -24    2    3    3    0    0  0.25664160739E+02  0.75768877686E+02 -0.24480095874E+03  0.26958728082E+03  0.79688271440E+02 0.  0.
          6    2    1    2  501    0  0.55295506148E+01 -0.66835290954E+02  0.55732713591E+02  0.19132918418E+03  0.17030322753E+03 0.  0.
         24    2    5    5    0    0  0.53671643123E+02  0.20672553246E+01  0.44630485262E+02  0.10641410055E+03  0.80294219967E+02 0.  0.
          5    1    5    5  501    0 -0.48142092508E+02 -0.68902546279E+02  0.11102228329E+02  0.84915083634E+02  0.47000000000E+01 0. -1.
        -11    1    6    6    0    0  0.20937016361E+02  0.40452211517E+02  0.15249211695E+02  0.48034139193E+02  0.00000000000E+00 0.  1.
         12    1    6    6    0    0  0.32734626762E+02 -0.38384956192E+02  0.29381273567E+02  0.58379961353E+02  0.00000000000E+00 0. -1.
         -5    1    3    3    0  503 -0.31193711353E+02 -0.89335867318E+01  0.32145012779E+01  0.32943582355E+02  0.47000000000E+01 0.  1.
         11    1    4    4    0    0  0.13126809942E+02  0.69933772911E+02 -0.92706663981E+02  0.11686561205E+03  0.00000000000E+00 0. -1.
        -12    1    4    4    0    0  0.12537350797E+02  0.58351047749E+01 -0.15209429476E+03  0.15272166877E+03  0.00000000000E+00 0.  1.
</event>
<event>
12    1  0.1565987E-001  0.1783710E+03  0.7818608E-02  0.1170040E+00
         21   -1    0    0  503  502  0.00000000000E+00  0.00000000000E+00  0.13072492743E+04  0.13072492743E+04  0.00000000000E+00 0.  1.
         21   -1    0    0  501  503 -0.00000000000E+00 -0.00000000000E+00 -0.27945616754E+02  0.27945616754E+02  0.00000000000E+00 0.  1.
          6    2    1    2  501    0 -0.46936755842E+02 -0.95759971281E+01  0.39225320050E+03  0.43090462027E+03  0.17181810062E+03 0.  0.
         24    2    3    3    0    0 -0.65549104841E+02 -0.63346021844E+02  0.22394677648E+03  0.25317792712E+03  0.75083290116E+02 0.  0.
         -6    2    1    2    0  502  0.46936755842E+02  0.95759971281E+01  0.88705045707E+03  0.90429027081E+03  0.16907874413E+03 0.  0.
        -24    2    5    5    0    0 -0.20045374229E+02  0.39406992259E+02  0.32381586849E+03  0.33628341715E+03  0.79215477665E+02 0.  0.
          5    1    3    3  501    0  0.18612348999E+02  0.53770024716E+02  0.16830642402E+03  0.17772669316E+03  0.47000000000E+01 0. -1.
        -13    1    4    4    0    0 -0.60602799171E+02 -0.19180071060E+02  0.17907754499E+03  0.19002458134E+03  0.00000000000E+00 0.  1.
         14    1    4    4    0    0 -0.49463056699E+01 -0.44165950784E+02  0.44869231486E+02  0.63153345775E+02  0.00000000000E+00 0. -1.
         -5    1    5    5    0  502  0.66982130071E+02 -0.29830995130E+02  0.56323458858E+03  0.56800685365E+03  0.47000000000E+01 0.  1.
         13    1    6    6    0    0 -0.12572651902E+02  0.60889180330E+02  0.28105528058E+03  0.28785002101E+03  0.00000000000E+00 0. -1.
        -14    1    6    6    0    0 -0.74727223265E+01 -0.21482188071E+02  0.42760587910E+02  0.48433396140E+02  0.00000000000E+00 0.  1.
</event>
<event>
12    1  0.1565987E-001  0.2362504E+03  0.7818608E-02  0.1122393E+00
         21   -1    0    0  503  502  0.00000000000E+00  0.00000000000E+00  0.19561254234E+04  0.19561254234E+04  0.00000000000E+00 0. -1.
         21   -1    0    0  501  503 -0.00000000000E+00 -0.00000000000E+00 -0.88254619012E+02  0.88254619012E+02  0.00000000000E+00 0.  1.
          6    2    1    2  501    0 -0.14991984735E+03 -0.61120053655E+02  0.92970932570E+02  0.25388550799E+03  0.17205416378E+03 0.  0.
         24    2    3    3    0    0 -0.98701319323E+02 -0.36552512144E+02  0.45818617909E+01  0.14871127377E+03  0.10495719561E+03 0.  0.
         -6    2    1    2    0  502  0.14991984735E+03  0.61120053655E+02  0.17748998718E+04  0.17904945344E+04  0.17143366421E+03 0.  0.
        -24    2    5    5    0    0  0.10315735496E+03  0.37320564943E+02  0.16416658352E+04  0.16472236550E+04  0.79023989346E+02 0.  0.
          5    1    3    3  501    0 -0.51218528031E+02 -0.24567541512E+02  0.88389070779E+02  0.10517423422E+03  0.47000000000E+01 0. -1.
        -13    1    4    4    0    0 -0.39589770790E+02  0.28624319189E+01  0.50413185689E+02  0.64164108028E+02  0.00000000000E+00 0.  1.
         14    1    4    4    0    0 -0.59111548533E+02 -0.39414944063E+02 -0.45831323898E+02  0.84547165746E+02  0.00000000000E+00 0. -1.
         -5    1    5    5    0  502  0.46762492398E+02  0.23799488713E+02  0.13323403661E+03  0.14327087935E+03  0.47000000000E+01 0.  1.
         11    1    6    6    0    0  0.30149985395E+02 -0.16892494111E+02  0.78164968832E+03  0.78241332633E+03  0.00000000000E+00 0. -1.
        -12    1    6    6    0    0  0.73007369560E+02  0.54213059053E+02  0.86001614686E+03  0.86481032871E+03  0.00000000000E+00 0.  1.
</event>
<event>
12    1  0.1565987E-001  0.1967871E+03  0.7818608E-02  0.1153008E+00
         21   -1    0    0  503  502  0.00000000000E+00  0.00000000000E+00  0.44845265276E+03  0.44845265276E+03  0.00000000000E+00 0. -1.
         21   -1    0    0  501  503 -0.00000000000E+00 -0.00000000000E+00 -0.22645940130E+03  0.22645940130E+03  0.00000000000E+00 0. -1.
          6    2    1    2  501    0 -0.92630339230E+02 -0.24259615056E+02 -0.15518056952E+03  0.25061160952E+03  0.17191934446E+03 0.  0.
         24    2    3    3    0    0 -0.76895272709E+02 -0.80076146657E+02 -0.12410620528E+03  0.18465113930E+03  0.79803639180E+02 0.  0.
         -6    2    1    2    0  502  0.92630339230E+02  0.24259615056E+02  0.37717382098E+03  0.42430044454E+03  0.16912086605E+03 0.  0.
        -24    2    5    5    0    0  0.11665852578E+03  0.49840961276E+02  0.34542061638E+03  0.37673874750E+03  0.80767249447E+02 0.  0.
          5    1    3    3  501    0 -0.15735066522E+02  0.55816531601E+02 -0.31074364242E+02  0.65960470219E+02  0.47000000000E+01 0. -1.
        -11    1    4    4    0    0 -0.39732814461E+01 -0.61221111423E+02 -0.53115298492E+02  0.81148298708E+02  0.00000000000E+00 0.  1.
         12    1    4    4    0    0 -0.72921991263E+02 -0.18855035234E+02 -0.70990906790E+02  0.10350284059E+03  0.00000000000E+00 0. -1.
         -5    1    5    5    0  502 -0.24028186552E+02 -0.25581346220E+02  0.31753204598E+02  0.47561697044E+02  0.47000000000E+01 0.  1.
         13    1    6    6    0    0  0.91193687443E+02  0.62558388832E+02  0.19981062957E+03  0.22837278370E+03  0.00000000000E+00 0. -1.
        -14    1    6    6    0    0  0.25464838340E+02 -0.12717427556E+02  0.14560998681E+03  0.14836596380E+03  0.00000000000E+00 0.  1.
</event>
<event>
12    1  0.1565987E-001  0.2382616E+03  0.7818608E-02  0.1121063E+00
         21   -1    0    0  501  502  0.00000000000E+00  0.00000000000E+00  0.11360119894E+04  0.11360119894E+04  0.00000000000E+00 0. -1.
         21   -1    0    0  502  503 -0.00000000000E+00 -0.00000000000E+00 -0.50342655551E+02  0.50342655551E+02  0.00000000000E+00 0.  1.
         -6    2    1    2    0  503  0.16235249085E+03  0.33313809835E+01  0.48424468394E+03  0.53968650000E+03  0.17435359179E+03 0.  0.
        -24    2    3    3    0    0  0.17036309641E+03  0.42974118355E+02  0.43800512825E+03  0.47807560049E+03  0.76403062397E+02 0.  0.
          6    2    1    2  501    0 -0.16235249085E+03 -0.33313809835E+01  0.60142464996E+03  0.64666814500E+03  0.17348962735E+03 0.  0.
         24    2    5    5    0    0 -0.10890234605E+03 -0.20896977726E+02  0.21903458019E+03  0.26013260508E+03  0.86002443289E+02 0.  0.
          5    1    5    5  501    0 -0.53450144800E+02  0.17565596742E+02  0.38239006976E+03  0.38653553992E+03  0.47000000000E+01 0. -1.
        -11    1    6    6    0    0 -0.56416931106E+02  0.32052685584E+02  0.87428054188E+02  0.10887566040E+03  0.00000000000E+00 0.  1.
         12    1    6    6    0    0 -0.52485414946E+02 -0.52949663310E+02  0.13160652601E+03  0.15125694468E+03  0.00000000000E+00 0. -1.
         -5    1    3    3    0  503 -0.80106055605E+01 -0.39642737372E+02  0.46239555696E+02  0.61610899513E+02  0.47000000000E+01 0.  1.
         11    1    4    4    0    0  0.66172632537E+02 -0.20884113543E+02  0.15853609316E+03  0.17305680088E+03  0.00000000000E+00 0. -1.
        -12    1    4    4    0    0  0.10419046388E+03  0.63858231898E+02  0.27946903509E+03  0.30501879961E+03  0.00000000000E+00 0.  1.
</event>
<event>
12    1  0.1565987E-001  0.2673983E+03  0.7818608E-02  0.1103027E+00
         21   -1    0    0  501  502  0.00000000000E+00  0.00000000000E+00  0.15177867494E+04  0.15177867494E+04  0.00000000000E+00 0. -1.
         21   -1    0    0  502  503 -0.00000000000E+00 -0.00000000000E+00 -0.57551103200E+02  0.57551103200E+02  0.00000000000E+00 0.  1.
         -6    2    1    2    0  503 -0.19750314900E+03  0.47176624715E+02  0.39171580294E+03  0.47428170104E+03  0.17397911911E+03 0.  0.
        -24    2    3    3    0    0 -0.11117566800E+03  0.95722658128E+02  0.26892244261E+03  0.31645441989E+03  0.79380496935E+02 0.  0.
          6    2    1    2  501    0  0.19750314900E+03 -0.47176624715E+02  0.10685198433E+04  0.11010561516E+04  0.17133845354E+03 0.  0.
         24    2    5    5    0    0  0.19025262281E+02 -0.20700080512E+02  0.33180136934E+03  0.34255001233E+03  0.80361111928E+02 0.  0.
          5    1    5    5  501    0  0.17847788671E+03 -0.26476544202E+02  0.73671847394E+03  0.75850613925E+03  0.47000000000E+01 0. -1.
        -13    1    6    6    0    0  0.17499450344E+02 -0.32508137215E+02  0.59733833470E+02  0.70222080634E+02  0.00000000000E+00 0.  1.
         14    1    6    6    0    0  0.15258119375E+01  0.11808056702E+02  0.27206753587E+03  0.27232793169E+03  0.00000000000E+00 0. -1.
         -5    1    3    3    0  503 -0.86327480995E+02 -0.48546033414E+02  0.12279336033E+03  0.15782728116E+03  0.47000000000E+01 0.  1.
         13    1    4    4    0    0 -0.50245628324E+02  0.42362987572E+02  0.48663253001E+02  0.81776268406E+02  0.00000000000E+00 0. -1.
        -14    1    4    4    0    0 -0.60930039677E+02  0.53359670556E+02  0.22025918960E+03  0.23467815148E+03  0.00000000000E+00 0.  1.
</event>
<event>
12    1  0.1565987E-001  0.2308000E+03  0.7818608E-02  0.1126320E+00
         21   -1    0    0  503  502  0.00000000000E+00  0.00000000000E+00  0.17107599564E+03  0.17107599564E+03  0.00000000000E+00 0. -1.
         21   -1    0    0  501  503 -0.00000000000E+00 -0.00000000000E+00 -0.10213201657E+04  0.10213201657E+04  0.00000000000E+00 0. -1.
          6    2    1    2  501    0  0.15757548849E+02 -0.15109924747E+03 -0.92323174852E+03  0.95164357262E+03  0.17375081264E+03 0.  0.
         24    2    3    3    0    0 -0.69261887079E+01 -0.49343353402E+00 -0.24737908402E+03  0.25882644144E+03  0.75805672678E+02 0.  0.
         -6    2    1    2    0  502 -0.15757548849E+02  0.15109924747E+03  0.72987578433E+02  0.24075258875E+03  0.17191666427E+03 0.  0.
        -24    2    5    5    0    0  0.18691717649E+02  0.16071524156E+03  0.89309603614E+02  0.20115817235E+03  0.79433216136E+02 0.  0.
          5    1    3    3  501    0  0.22683737557E+02 -0.15060581394E+03 -0.67585266450E+03  0.69281713118E+03  0.47000000000E+01 0. -1.
        -13    1    4    4    0    0 -0.29188685788E+02 -0.16999829889E+00 -0.36317081554E+02  0.46593333107E+02  0.00000000000E+00 0.  1.
         14    1    4    4    0    0  0.22262497080E+02 -0.32343523512E+00 -0.21106200247E+03  0.21223310833E+03  0.00000000000E+00 0. -1.
         -5    1    5    5    0  502 -0.34449266498E+02 -0.96159940880E+01 -0.16322025181E+02  0.39594416406E+02  0.47000000000E+01 0.  1.
         11    1    6    6    0    0  0.42642784062E+02  0.12136177049E+03  0.42483627784E+02  0.13546935077E+03  0.00000000000E+00 0. -1.
        -12    1    6    6    0    0 -0.23951066413E+02  0.39353471078E+02  0.46825975830E+02  0.65688821580E+02  0.00000000000E+00 0.  1.
</event>
<event>
12    1  0.1565987E-001  0.1919656E+03  0.7818608E-02  0.1156754E+00
         21   -1    0    0  501  502  0.00000000000E+00  0.00000000000E+00  0.29572867606E+03  0.29572867606E+03  0.00000000000E+00 0. -1.
         21   -1    0    0  502  503 -0.00000000000E+00 -0.00000000000E+00 -0.12520633995E+03  0.12520633995E+03  0.00000000000E+00 0.  1.
         -6    2    1    2    0  503 -0.45895885432E+02 -0.73084835400E+02  0.68997280405E+02  0.20398881031E+03  0.17147298493E+03 0.  0.
        -24    2    3    3    0    0 -0.36489645606E+02 -0.22301615386E+02  0.10635285769E+03  0.14007525981E+03  0.80506470464E+02 0.  0.
          6    2    1    2  501    0  0.45895885432E+02  0.73084835400E+02  0.10152505571E+03  0.21694620571E+03  0.17120307757E+03 0.  0.
         24    2    5    5    0    0  0.11054873806E+02  0.10185818536E+03  0.10859483487E+03  0.17096932525E+03  0.83308894229E+02 0.  0.
          5    1    5    5  501    0  0.34841011626E+02 -0.28773349958E+02 -0.70697791577E+01  0.45976880454E+02  0.47000000000E+01 0. -1.
        -13    1    6    6    0    0  0.41390190795E+02  0.35651968140E+02  0.69225614980E+02  0.88183878887E+02  0.00000000000E+00 0.  1.
         14    1    6    6    0    0 -0.30335316989E+02  0.66206217219E+02  0.39369219889E+02  0.82785446365E+02  0.00000000000E+00 0. -1.
         -5    1    3    3    0  503 -0.94062398261E+01 -0.50783220014E+02 -0.37355577285E+02  0.63913550496E+02  0.47000000000E+01 0.  1.
         11    1    4    4    0    0  0.18341047625E+02  0.71780854043E+01  0.57990608976E+02  0.61244017402E+02  0.00000000000E+00 0. -1.
        -12    1    4    4    0    0 -0.54830693231E+02 -0.29479700791E+02  0.48362248714E+02  0.78831242408E+02  0.00000000000E+00 0.  1.
</event>
<event>
12    1  0.1565987E-001  0.1761532E+03  0.7818608E-02  0.1171886E+00
         21   -1    0    0  503  502  0.00000000000E+00  0.00000000000E+00  0.18637945498E+04  0.18637945498E+04  0.00000000000E+00 0.  1.
         21   -1    0    0  501  503 -0.00000000000E+00 -0.00000000000E+00 -0.16538354136E+02  0.16538354136E+02  0.00000000000E+00 0.  1.
          6    2    1    2  501    0  0.26876171336E+02 -0.10847157825E+02  0.93771012203E+03  0.95388591730E+03  0.17250530676E+03 0.  0.
         24    2    3    3    0    0 -0.45308561774E+02 -0.73594171190E+01  0.66790402671E+03  0.67452912197E+03  0.82381555580E+02 0.  0.
         -6    2    1    2    0  502 -0.26876171336E+02  0.10847157825E+02  0.90954607367E+03  0.92644698666E+03  0.17375261020E+03 0.  0.
        -24    2    5    5    0    0 -0.72920050874E+02  0.22930958378E+02  0.79287608832E+03  0.80035165543E+03  0.77891708415E+02 0.  0.
          5    1    3    3  501    0  0.72184733111E+02 -0.34877407055E+01  0.26980609532E+03  0.27935679533E+03  0.47000000000E+01 0. -1.
        -13    1    4    4    0    0  0.61515984043E+00 -0.25671264241E+02  0.69601031344E+02  0.74186897721E+02  0.00000000000E+00 0.  1.
         14    1    4    4    0    0 -0.45923721615E+02  0.18311847122E+02  0.59830299537E+03  0.60034222425E+03  0.00000000000E+00 0. -1.
         -5    1    5    5    0  502  0.46043879538E+02 -0.12083800553E+02  0.11666998534E+03  0.12609533123E+03  0.47000000000E+01 0.  1.
         13    1    6    6    0    0 -0.29815828779E+02 -0.23519906040E+02  0.45517358164E+03  0.45675503178E+03  0.00000000000E+00 0. -1.
        -14    1    6    6    0    0 -0.43104222095E+02  0.46450864418E+02  0.33770250668E+03  0.34359662365E+03  0.00000000000E+00 0.  1.
</event>
<event>
12    1  0.1565987E-001  0.1968808E+03  0.7818608E-02  0.1152613E+00
         21   -1    0    0  501  502  0.00000000000E+00  0.00000000000E+00  0.91455226755E+03  0.91455226755E+03  0.00000000000E+00 0. -1.
         21   -1    0    0  502  503 -0.00000000000E+00 -0.00000000000E+00 -0.80532044760E+02  0.80532044760E+02  0.00000000000E+00 0. -1.
         -6    2    1    2    0  503 -0.37098618881E+02 -0.88848066102E+02  0.74164930364E+02  0.21038654961E+03  0.17173170059E+03 0.  0.
        -24    2    3    3    0    0  0.23864374691E+02 -0.10069006867E+03  0.31267359059E+02  0.13476240509E+03  0.80468998852E+02 0.  0.
          6    2    1    2  501    0  0.37098618881E+02  0.88848066102E+02  0.75985529243E+03  0.78469776270E+03  0.17058788640E+03 0.  0.
         24    2    5    5    0    0 -0.58656777037E+00  0.77380759271E+02  0.72066559528E+03  0.72893402196E+03  0.77445349669E+02 0.  0.
          5    1    5    5  501    0  0.37685186651E+02  0.11467306832E+02  0.39189697148E+02  0.55763740742E+02  0.47000000000E+01 0. -1.
        -13    1    6    6    0    0 -0.31967097543E+02  0.66292119388E+02  0.41644633434E+03  0.42289962142E+03  0.00000000000E+00 0.  1.
         14    1    6    6    0    0  0.31380529772E+02  0.11088639883E+02  0.30421926094E+03  0.30603440054E+03  0.00000000000E+00 0. -1.
         -5    1    3    3    0  503 -0.60962993572E+02  0.11842002564E+02  0.42897571305E+02  0.75624144517E+02  0.47000000000E+01 0.  1.
         13    1    4    4    0    0  0.51695424235E+02 -0.46693552381E+02  0.23512925405E+02  0.73522529758E+02  0.00000000000E+00 0. -1.
        -14    1    4    4    0    0 -0.27831049545E+02 -0.53996516285E+02  0.77544336536E+01  0.61239875335E+02  0.00000000000E+00 0.  1.
</event>
<event>
12    1  0.1565987E-001  0.1930101E+03  0.7818608E-02  0.1155958E+00
         21   -1    0    0  503  502  0.00000000000E+00  0.00000000000E+00  0.29214227252E+03  0.29214227252E+03  0.00000000000E+00 0. -1.
         21   -1    0    0  501  503 -0.00000000000E+00 -0.00000000000E+00 -0.13271216263E+03  0.13271216263E+03  0.00000000000E+00 0. -1.
          6    2    1    2  501    0 -0.61638459544E+02  0.60475549553E+02  0.12374655806E+03  0.22857351466E+03  0.17168590269E+03 0.  0.
         24    2    3    3    0    0 -0.47891377061E+02  0.40830927422E+02 -0.34948756775E+01  0.99007446895E+02  0.76351239373E+02 0.  0.
         -6    2    1    2    0  502  0.61638459544E+02 -0.60475549553E+02  0.35683551828E+02  0.19628092050E+03  0.17261602501E+03 0.  0.
        -24    2    5    5    0    0  0.15874286705E+02 -0.67611901469E+02  0.80313684986E+02  0.13178886037E+03  0.78068261939E+02 0.  0.
          5    1    3    3  501    0 -0.13747082483E+02  0.19644622131E+02  0.12724143374E+03  0.12956606776E+03  0.47000000000E+01 0. -1.
        -13    1    4    4    0    0 -0.22364940287E+02 -0.15410868344E+02 -0.21536510540E+02  0.34662756719E+02  0.00000000000E+00 0.  1.
         14    1    4    4    0    0 -0.25526436774E+02  0.56241795765E+02  0.18041634863E+02  0.64344690176E+02  0.00000000000E+00 0. -1.
         -5    1    5    5    0  502  0.45764172839E+02  0.71363519161E+01 -0.44630133157E+02  0.64492060131E+02  0.47000000000E+01 0.  1.
         11    1    6    6    0    0 -0.22373620070E+02 -0.26115060041E+02  0.94496570136E+00  0.34401572583E+02  0.00000000000E+00 0. -1.
        -12    1    6    6    0    0  0.38247906775E+02 -0.41496841428E+02  0.79368719284E+02  0.97387287784E+02  0.00000000000E+00 0.  1.
</event>
<event>
12    1  0.1565987E-001  0.1924166E+03  0.7818608E-02  0.1156376E+00
         21   -1    0    0  503  502  0.00000000000E+00  0.00000000000E+00  0.17966227310E+04  0.17966227310E+04  0.00000000000E+00 0. -1.
         21   -1    0    0  501  503 -0.00000000000E+00 -0.00000000000E+00 -0.22230025497E+02  0.22230025497E+02  0.00000000000E+00 0.  1.
          6    2    1    2  501    0  0.19592484050E+02 -0.84191494808E+02  0.63801347563E+03  0.66629824732E+03  0.17152284415E+03 0.  0.
         24    2    3    3    0    0  0.55500076798E+02  0.13498027992E+01  0.32665007323E+03  0.34137375276E+03  0.82180826458E+02 0.  0.
         -6    2    1    2    0  502 -0.19592484050E+02  0.84191494808E+02  0.11363792299E+04  0.11525545092E+04  0.17190715317E+03 0.  0.
        -24    2    5    5    0    0 -0.30006632157E+02  0.11815067614E+03  0.10309629732E+04  0.10412155778E+04  0.79907740695E+02 0.  0.
          5    1    3    3  501    0 -0.35907592748E+02 -0.85541297607E+02  0.31136340240E+03  0.32492449456E+03  0.47000000000E+01 0. -1.
        -13    1    4    4    0    0  0.57318131071E+02  0.16623867695E+00  0.10429213044E+03  0.11900522786E+03  0.00000000000E+00 0.  1.
         14    1    4    4    0    0 -0.18180542733E+01  0.11835641222E+01  0.22235794279E+03  0.22236852490E+03  0.00000000000E+00 0. -1.
         -5    1    5    5    0  502  0.10414148107E+02 -0.33959181332E+02  0.10541625668E+03  0.11133893142E+03  0.47000000000E+01 0.  1.
         13    1    6    6    0    0 -0.53990374104E+02  0.50386360432E+02  0.51287945415E+03  0.51816896887E+03  0.00000000000E+00 0. -1.
        -14    1    6    6    0    0  0.23983741947E+02  0.67764315708E+02  0.51808351908E+03  0.52304660892E+03  0.00000000000E+00 0.  1.
</event>
<event>
12    1  0.1565987E-001  0.2271522E+03  0.7818608E-02  0.1129040E+00
         21   -1    0    0  501  502  0.00000000000E+00  0.00000000000E+00  0.20785060060E+04  0.20785060060E+04  0.00000000000E+00 0. -1.
         21   -1    0    0  502  503 -0.00000000000E+00 -0.00000000000E+00 -0.29968303299E+02  0.29968303299E+02  0.00000000000E+00 0.  1.
         -6    2    1    2    0  503  0.86380093981E+02 -0.11760284971E+03  0.58176542747E+03  0.62453914223E+03  0.17408669300E+03 0.  0.
        -24    2    3    3    0    0  0.84093454123E+01 -0.90673507643E+02  0.19036188954E+03  0.22450983505E+03  0.76646036865E+02 0.  0.
          6    2    1    2  501    0 -0.86380093981E+02  0.11760284971E+03  0.14667722752E+04  0.14839351670E+04  0.17132052353E+03 0.  0.
         24    2    5    5    0    0 -0.66151474516E+01 -0.26355337165E+01  0.58249256110E+03  0.58794832656E+03  0.79592366177E+02 0.  0.
          5    1    5    5  501    0 -0.79764946529E+02  0.12023838342E+03  0.88427971410E+03  0.89598684048E+03  0.47000000000E+01 0. -1.
        -11    1    6    6    0    0  0.90771216060E+00  0.10462695898E+02  0.78608216101E+01  0.13118096783E+02  0.00000000000E+00 0.  1.
         12    1    6    6    0    0 -0.75228596122E+01 -0.13098229615E+02  0.57463173949E+03  0.57483022978E+03  0.00000000000E+00 0. -1.
         -5    1    3    3    0  503  0.77970748569E+02 -0.26929342064E+02  0.39140353793E+03  0.40002930718E+03  0.47000000000E+01 0.  1.
         13    1    4    4    0    0  0.39806356145E+01 -0.96728348059E+01  0.10940174156E+03  0.10990063808E+03  0.00000000000E+00 0. -1.
        -14    1    4    4    0    0  0.44287097978E+01 -0.81000672837E+02  0.80960147981E+02  0.11460919698E+03  0.00000000000E+00 0.  1.
</event>
<event>
12    1  0.1565987E-001  0.3335069E+03  0.7818608E-02  0.1069596E+00
         21   -1    0    0  503  502  0.00000000000E+00  0.00000000000E+00  0.26001548452E+03  0.26001548452E+03  0.00000000000E+00 0. -1.
         21   -1    0    0  501  503 -0.00000000000E+00 -0.00000000000E+00 -0.56907704368E+03  0.56907704368E+03  0.00000000000E+00 0. -1.
          6    2    1    2  501    0  0.28386696978E+03  0.28881364650E+02 -0.36110567422E+03  0.49154928363E+03  0.17265225319E+03 0.  0.
         24    2    3    3    0    0  0.47374861926E+02 -0.22957637113E+01 -0.69103551708E+02  0.11447122810E+03  0.77966102452E+02 0.  0.
         -6    2    1    2    0  502 -0.28386696978E+03 -0.28881364650E+02  0.52044115056E+02  0.33754324457E+03  0.17266227812E+03 0.  0.
        -24    2    5    5    0    0 -0.16961267834E+03  0.32338476927E+02  0.77184372753E+02  0.20542195684E+03  0.80165548768E+02 0.  0.
          5    1    3    3  501    0  0.23649210786E+03  0.31177128361E+02 -0.29200212251E+03  0.37707805553E+03  0.47000000000E+01 0. -1.
        -11    1    4    4    0    0  0.36892157688E+02  0.25605229041E+02 -0.68182445420E+01  0.45421883622E+02  0.00000000000E+00 0.  1.
         12    1    4    4    0    0  0.10482704238E+02 -0.27900992752E+02 -0.62285307166E+02  0.69049344483E+02  0.00000000000E+00 0. -1.
         -5    1    5    5    0  502 -0.11425429144E+03 -0.61219841577E+02 -0.25140257697E+02  0.13212128773E+03  0.47000000000E+01 0.  1.
         11    1    6    6    0    0 -0.91591704519E+02 -0.23288530101E+02  0.40511743273E+02  0.10282313608E+03  0.00000000000E+00 0. -1.
        -12    1    6    6    0    0 -0.78020973824E+02  0.55627007028E+02  0.36672629479E+02  0.10259882075E+03  0.00000000000E+00 0.  1.
</event>
<event>
12    1  0.1565987E-001  0.2418300E+03  0.7818608E-02  0.1119050E+00
         21   -1    0    0  501  502  0.00000000000E+00  0.00000000000E+00  0.38867639107E+03  0.38867639107E+03  0.00000000000E+00 0. -1.
         21   -1    0    0  502  503 -0.00000000000E+00 -0.00000000000E+00 -0.26947419076E+03  0.26947419076E+03  0.00000000000E+00 0. -1.
         -6    2    1    2    0  503 -0.82077208929E+02 -0.14326024157E+03 -0.16089094343E+03  0.28810474853E+03  0.17279550170E+03 0.  0.
        -24    2    3    3    0    0 -0.84502363882E+02 -0.11325667754E+03 -0.45883930667E+02  0.16913080930E+03  0.80821847613E+02 0.  0.
          6    2    1    2  501    0  0.82077208929E+02  0.14326024157E+03  0.28009314374E+03  0.37004583330E+03  0.17669630594E+03 0.  0.
         24    2    5    5    0    0  0.73512585183E+02  0.14779519857E+03  0.14211300114E+03  0.23164594758E+03  0.78843002471E+02 0.  0.
          5    1    5    5  501    0  0.85646237457E+01 -0.45349569975E+01  0.13798014260E+03  0.13839988572E+03  0.47000000000E+01 0. -1.
        -13    1    6    6    0    0  0.17590161332E+02  0.10288660150E+03  0.11411588688E+03  0.15465284408E+03  0.00000000000E+00 0.  1.
         14    1    6    6    0    0  0.55922423851E+02  0.44908597070E+02  0.27997114258E+02  0.76993103503E+02  0.00000000000E+00 0. -1.
         -5    1    3    3    0  503  0.24251549533E+01 -0.30003564031E+02 -0.11500701276E+03  0.11897393923E+03  0.47000000000E+01 0.  1.
         11    1    4    4    0    0 -0.25232633864E+02 -0.40463202938E+02 -0.57323716268E+02  0.74565173174E+02  0.00000000000E+00 0. -1.
        -12    1    4    4    0    0 -0.59269730018E+02 -0.72793474603E+02  0.11439785601E+02  0.94565636126E+02  0.00000000000E+00 0.  1.
</event>
<event>
12    1  0.1565987E-001  0.1937545E+03  0.7818608E-02  0.1155430E+00
         21   -1    0    0  503  502  0.00000000000E+00  0.00000000000E+00  0.44134925561E+02  0.44134925561E+02  0.00000000000E+00 0.  1.
         21   -1    0    0  501  503 -0.00000000000E+00 -0.00000000000E+00 -0.84589824951E+03  0.84589824951E+03  0.00000000000E+00 0.  1.
          6    2    1    2  501    0  0.41811304049E+02  0.76150586074E+02 -0.38059964776E+03  0.42643889334E+03  0.17160111007E+03 0.  0.
         24    2    3    3    0    0  0.23673182133E+02  0.49397441907E+02 -0.38086909224E+03  0.39377569096E+03  0.83651076201E+02 0.  0.
         -6    2    1    2    0  502 -0.41811304049E+02 -0.76150586074E+02 -0.42116367620E+03  0.46359428173E+03  0.17318694813E+03 0.  0.
        -24    2    5    5    0    0 -0.74612911281E+02 -0.79165010200E+01 -0.31366282382E+03  0.33202544400E+03  0.78909891007E+02 0.  0.
          5    1    3    3  501    0  0.18138121916E+02  0.26753144167E+02  0.26944448300E+00  0.32663202382E+02  0.47000000000E+01 0. -1.
        -11    1    4    4    0    0 -0.90889483726E+01  0.63199871347E+02 -0.26448362528E+03  0.27208164356E+03  0.00000000000E+00 0.  1.
         12    1    4    4    0    0  0.32762130505E+02 -0.13802429440E+02 -0.11638546696E+03  0.12169404740E+03  0.00000000000E+00 0. -1.
         -5    1    5    5    0  502  0.32801607232E+02 -0.68234085054E+02 -0.10750085237E+03  0.13156883773E+03  0.47000000000E+01 0.  1.
         13    1    6    6    0    0 -0.21758714514E+02 -0.34751192668E+02 -0.19637557796E+03  0.20061020579E+03  0.00000000000E+00 0. -1.
        -14    1    6    6    0    0 -0.52854196768E+02  0.26834691648E+02 -0.11728724586E+03  0.13141523821E+03  0.00000000000E+00 0.  1.
</event>
<event>
12    1  0.1565987E-001  0.1781656E+03  0.7818608E-02  0.1169687E+00
         21   -1    0    0  503  502  0.00000000000E+00  0.00000000000E+00  0.40418411448E+03  0.40418411448E+03  0.00000000000E+00 0. -1.
         21   -1    0    0  501  503 -0.00000000000E+00 -0.00000000000E+00 -0.80188738356E+02  0.80188738356E+02  0.00000000000E+00 0. -1.
          6    2    1    2  501    0 -0.41044308327E+02 -0.15508818743E+02  0.12526697842E+03  0.21747219578E+03  0.17227066306E+03 0.  0.
         24    2    3    3    0    0 -0.32267079369E+02 -0.11520319224E+02 -0.47112049267E+01  0.87052235570E+02  0.79887509035E+02 0.  0.
         -6    2    1    2    0  502  0.41044308327E+02  0.15508818743E+02  0.19872839770E+03  0.26690065705E+03  0.17267838885E+03 0.  0.
        -24    2    5    5    0    0  0.16087313258E+02  0.49474687976E+02  0.39916687053E+02  0.10252370819E+03  0.78811309075E+02 0.  0.
          5    1    3    3  501    0 -0.87772289580E+01 -0.39884995187E+01  0.12997818335E+03  0.13041996022E+03  0.47000000000E+01 0. -1.
        -13    1    4    4    0    0  0.20262058265E+02  0.54313235471E+01  0.17731605062E+02  0.27467437060E+02  0.00000000000E+00 0.  1.
         14    1    4    4    0    0 -0.52529137634E+02 -0.16951642772E+02 -0.22442809989E+02  0.59584798509E+02  0.00000000000E+00 0. -1.
         -5    1    5    5    0  502  0.24956995070E+02 -0.33965869233E+02  0.15881171065E+03  0.16437694886E+03  0.47000000000E+01 0.  1.
         13    1    6    6    0    0  0.42146345571E+02  0.11471106736E+02  0.35527256317E+01  0.43823767457E+02  0.00000000000E+00 0. -1.
        -14    1    6    6    0    0 -0.26059032313E+02  0.38003581240E+02  0.36363961421E+02  0.58699940736E+02  0.00000000000E+00 0.  1.
</event>
<event>
12    1  0.1565987E-001  0.1811020E+03  0.7818608E-02  0.1166764E+00
         21   -1    0    0  503  502  0.00000000000E+00  0.00000000000E+00  0.38594650669E+03  0.38594650669E+03  0.00000000000E+00 0.  1.
         21   -1    0    0  501  503 -0.00000000000E+00 -0.00000000000E+00 -0.13785932021E+03  0.13785932021E+03  0.00000000000E+00 0.  1.
          6    2    1    2  501    0 -0.55575189324E+02 -0.12346937533E+02 -0.38209305730E+02  0.18508890034E+03  0.17192120710E+03 0.  0.
         24    2    3    3    0    0  0.27285499504E+02 -0.48448310458E+02 -0.27157734277E+02  0.93910887029E+02  0.70639754404E+02 0.  0.
         -6    2    1    2    0  502  0.55575189324E+02  0.12346937533E+02  0.28629649221E+03  0.33871692656E+03  0.17182091361E+03 0.  0.
        -24    2    5    5    0    0  0.41918273562E+02 -0.52108532700E+02  0.22626331045E+03  0.24945835889E+03  0.81005841308E+02 0.  0.
          5    1    3    3  501    0 -0.82860688827E+02  0.36101372924E+02 -0.11051571453E+02  0.91178013312E+02  0.47000000000E+01 0. -1.
        -13    1    4    4    0    0 -0.17064202584E+01 -0.53953486627E+02 -0.33764357032E+02  0.63670420095E+02  0.00000000000E+00 0.  1.
         14    1    4    4    0    0  0.28991919762E+02  0.55051761695E+01  0.66066227557E+01  0.30240466934E+02  0.00000000000E+00 0. -1.
         -5    1    5    5    0  502  0.13656915762E+02  0.64455470233E+02  0.60033181762E+02  0.89258567676E+02  0.47000000000E+01 0.  1.
         11    1    6    6    0    0 -0.22984555922E+02 -0.24346915849E+02  0.89368450900E+02  0.95434700915E+02  0.00000000000E+00 0. -1.
        -12    1    6    6    0    0  0.64902829484E+02 -0.27761616850E+02  0.13689485955E+03  0.15402365797E+03  0.00000000000E+00 0.  1.
</event>
<event>
12    1  0.1565987E-001  0.2872980E+03  0.7818608E-02  0.1091786E+00
         21   -1    0    0  503  502  0.00000000000E+00  0.00000000000E+00  0.28880315058E+03  0.28880315058E+03  0.00000000000E+00 0.  1.
         21   -1    0    0  501  503 -0.00000000000E+00 -0.00000000000E+00 -0.28979374515E+03  0.28979374515E+03  0.00000000000E+00 0. -1.
          6    2    1    2  501    0 -0.11480666520E+03  0.20016500800E+03 -0.35020244351E+02  0.28929057884E+03  0.17092694549E+03 0.  0.
         24    2    3    3    0    0 -0.92612328705E+02  0.53623278484E+02  0.14430520366E+02  0.13297507996E+03  0.77599178783E+02 0.  0.
         -6    2    1    2    0  502  0.11480666520E+03 -0.20016500800E+03  0.34029649773E+02  0.28930631688E+03  0.17115351917E+03 0.  0.
        -24    2    5    5    0    0  0.13096402451E+03 -0.18324578846E+03 -0.10626923290E+02  0.23867411599E+03  0.78241980031E+02 0.  0.
          5    1    3    3  501    0 -0.22194336492E+02  0.14654172952E+03 -0.49450764716E+02  0.15631549889E+03  0.47000000000E+01 0. -1.
        -11    1    4    4    0    0 -0.60313528394E+02  0.49125791709E+02  0.43641741302E+02  0.89194544128E+02  0.00000000000E+00 0.  1.
         12    1    4    4    0    0 -0.32298800310E+02  0.44974867749E+01 -0.29211220936E+02  0.43780535828E+02  0.00000000000E+00 0. -1.
         -5    1    5    5    0  502 -0.16157359313E+02 -0.16919219535E+02  0.44656573063E+02  0.50632200894E+02  0.47000000000E+01 0.  1.
         13    1    6    6    0    0  0.40209396119E+02 -0.13236258177E+02  0.13548443955E+02  0.44447209141E+02  0.00000000000E+00 0. -1.
        -14    1    6    6    0    0  0.90754628391E+02 -0.17000953029E+03 -0.24175367245E+02  0.19422690685E+03  0.00000000000E+00 0.  1.
</event>
<event>
12    1  0.1565987E-001  0.2158333E+03  0.7818608E-02  0.1137150E+00
         21   -1    0    0  501  502  0.00000000000E+00  0.00000000000E+00  0.83813457619E+02  0.83813457619E+02  0.00000000000E+00 0. -1.
         21   -1    0    0  502  503 -0.00000000000E+00 -0.00000000000E+00 -0.68026166720E+03  0.68026166720E+03  0.00000000000E+00 0.  1.
         -6    2    1    2    0  503  0.17020047225E+02  0.12912104783E+03 -0.46306135156E+03  0.51089119273E+03  0.17211062867E+03 0.  0.
        -24    2    3    3    0    0  0.35765750539E+02  0.40385535292E+01 -0.17303490892E+03  0.19445089947E+03  0.81083745416E+02 0.  0.
          6    2    1    2  501    0 -0.17020047225E+02 -0.12912104783E+03 -0.13338685803E+03  0.25318393209E+03  0.17131293755E+03 0.  0.
         24    2    5    5    0    0 -0.54926468066E+02 -0.85768114199E+02 -0.14484386320E+03  0.19427954717E+03  0.79948179681E+02 0.  0.
          5    1    5    5  501    0  0.37906420840E+02 -0.43352933635E+02  0.11457005171E+02  0.58904384923E+02  0.47000000000E+01 0. -1.
        -11    1    6    6    0    0  0.54021298226E+00  0.75512263260E+01 -0.48644288186E+02  0.49229865145E+02  0.00000000000E+00 0.  1.
         12    1    6    6    0    0 -0.55466681048E+02 -0.93319340525E+02 -0.96199575012E+02  0.14504968202E+03  0.00000000000E+00 0. -1.
         -5    1    3    3    0  503 -0.18745703314E+02  0.12508249430E+03 -0.29002644263E+03  0.31644029326E+03  0.47000000000E+01 0.  1.
         11    1    4    4    0    0 -0.10381627041E+02 -0.28343322024E+02 -0.41252607983E+02  0.51116531072E+02  0.00000000000E+00 0. -1.
        -12    1    4    4    0    0  0.46147377580E+02  0.32381875554E+02 -0.13178230094E+03  0.14333436839E+03  0.00000000000E+00 0.  1.
</event>
<event>
12    1  0.1565987E-001  0.2230800E+03  0.7818608E-02  0.1131834E+00
         21   -1    0    0  503  502  0.00000000000E+00  0.00000000000E+00  0.16239831573E+03  0.16239831573E+03  0.00000000000E+00 0. -1.
         21   -1    0    0  501  503 -0.00000000000E+00 -0.00000000000E+00 -0.34972767899E+03  0.34972767899E+03  0.00000000000E+00 0. -1.
          6    2    1    2  501    0 -0.57823559832E+02  0.12783470043E+03 -0.20531673534E+01  0.22308948084E+03  0.17343421306E+03 0.  0.
         24    2    3    3    0    0 -0.13461339505E+02  0.10786266702E+03 -0.57641452780E+02  0.14906896890E+03  0.84163280665E+02 0.  0.
         -6    2    1    2    0  502  0.57823559832E+02 -0.12783470043E+03 -0.18527619591E+03  0.28903651389E+03  0.17184167970E+03 0.  0.
        -24    2    5    5    0    0  0.56641265093E+02 -0.11243412783E+03 -0.20972574755E+03  0.25973726418E+03  0.87343524123E+02 0.  0.
          5    1    3    3  501    0 -0.44362220327E+02  0.19972033413E+02  0.55588285427E+02  0.74020511939E+02  0.47000000000E+01 0. -1.
        -11    1    4    4    0    0 -0.24424206206E+02  0.66379625778E+02 -0.74720073004E+02  0.10288773434E+03  0.00000000000E+00 0.  1.
         12    1    4    4    0    0  0.10962866701E+02  0.41483041243E+02  0.17078620224E+02  0.46181234564E+02  0.00000000000E+00 0. -1.
         -5    1    5    5    0  502  0.11822947386E+01 -0.15400572608E+02  0.24449551647E+02  0.29299249704E+02  0.47000000000E+01 0.  1.
         11    1    6    6    0    0  0.60101843693E+02 -0.66215542688E+02 -0.18875375458E+03  0.20886529051E+03  0.00000000000E+00 0. -1.
        -12    1    6    6    0    0 -0.34605786000E+01 -0.46218585139E+02 -0.20971992969E+02  0.50871973675E+02  0.00000000000E+00 0.  1.
</event>
<event>
12    1  0.1565987E-001  0.1815702E+03  0.7818608E-02  0.1166319E+00
         21   -1    0    0  503  502  0.00000000000E+00  0.00000000000E+00  0.28268644938E+03  0.28268644938E+03  0.00000000000E+00 0.  1.
         21   -1    0    0  501  503 -0.00000000000E+00 -0.00000000000E+00 -0.17909648111E+03  0.17909648111E+03  0.00000000000E+00 0.  1.
          6    2    1    2  501    0 -0.49227558416E+02 -0.29130054789E+02 -0.84642135528E+02  0.20032984424E+03  0.17232481767E+03 0.  0.
         24    2    3    3    0    0 -0.45412384540E+00 -0.62396304307E+02 -0.59014940060E+01  0.10180233587E+03  0.80220838552E+02 0.  0.
         -6    2    1    2    0  502  0.49227558416E+02  0.29130054789E+02  0.18823210380E+03  0.26145308625E+03  0.17220475838E+03 0.  0.
        -24    2    5    5    0    0  0.38890638828E+02 -0.39288671741E+02  0.54654014499E+02  0.11094338560E+03  0.79153597472E+02 0.  0.
          5    1    3    3  501    0 -0.48773434571E+02  0.33266249518E+02 -0.78740641522E+02  0.98527508363E+02  0.47000000000E+01 0. -1.
        -13    1    4    4    0    0 -0.16011796112E+02 -0.61279542645E+02 -0.32332446179E+02  0.71112214404E+02  0.00000000000E+00 0.  1.
         14    1    4    4    0    0  0.15557672267E+02 -0.11167616620E+01  0.26430952173E+02  0.30690121469E+02  0.00000000000E+00 0. -1.
         -5    1    5    5    0  502  0.10336919588E+02  0.68418726530E+02  0.13357808930E+03  0.15050970065E+03  0.47000000000E+01 0.  1.
         11    1    6    6    0    0  0.48194683487E+02 -0.20899514089E+02 -0.18901990855E-02  0.52531107062E+02  0.00000000000E+00 0. -1.
        -12    1    6    6    0    0 -0.93040446584E+01 -0.18389157652E+02  0.54655904698E+02  0.58412278542E+02  0.00000000000E+00 0.  1.
</event>
<event>
12    1  0.1565987E-001  0.3810213E+03  0.7818608E-02  0.1050681E+00
         21   -1    0    0  501  502  0.00000000000E+00  0.00000000000E+00  0.15148920209E+04  0.15148920209E+04  0.00000000000E+00 0.  1.
         21   -1    0    0  502  503 -0.00000000000E+00 -0.00000000000E+00 -0.16257039130E+03  0.16257039130E+03  0.00000000000E+00 0. -1.
         -6    2    1    2    0  503  0.23909260523E+03 -0.24487965695E+03  0.13812165661E+03  0.40528360245E+03  0.16746906018E+03 0.  0.
        -24    2    3    3    0    0  0.86291141296E+02 -0.13014312342E+03  0.10574920355E+02  0.17549452647E+03  0.79392104390E+02 0.  0.
          6    2    1    2  501    0 -0.23909260523E+03  0.24487965695E+03  0.12141999730E+04  0.12721788098E+04  0.16439595281E+03 0.  0.
         24    2    5    5    0    0 -0.23416601503E+03  0.20889000723E+03  0.91201801408E+03  0.96778506397E+03  0.79764116748E+02 0.  0.
          5    1    5    5  501    0 -0.49265902023E+01  0.35989649724E+02  0.30218195894E+03  0.30439374581E+03  0.47000000000E+01 0. -1.
        -13    1    6    6    0    0 -0.22020809532E+03  0.16416576135E+03  0.81516167832E+03  0.86019216705E+03  0.00000000000E+00 0.  1.
         14    1    6    6    0    0 -0.13957919716E+02  0.44724245874E+02  0.96856335760E+02  0.10759289692E+03  0.00000000000E+00 0. -1.
         -5    1    3    3    0  503  0.15280146394E+03 -0.11473653353E+03  0.12754673626E+03  0.22978907598E+03  0.47000000000E+01 0.  1.
         11    1    4    4    0    0  0.30388539406E+02 -0.62118214468E+02  0.43266847419E+02  0.81573010129E+02  0.00000000000E+00 0. -1.
        -12    1    4    4    0    0  0.55902601891E+02 -0.68024908954E+02 -0.32691927064E+02  0.93921516340E+02  0.00000000000E+00 0.  1.
</event>
<event>
12    1  0.1565987E-001  0.2035569E+03  0.7818608E-02  0.1148698E+00
         21   -1    0    0  503  502  0.00000000000E+00  0.00000000000E+00  0.34845056564E+04  0.34845056564E+04  0.00000000000E+00 0. -1.
         21   -1    0    0  501  503 -0.00000000000E+00 -0.00000000000E+00 -0.13641285648E+02  0.13641285648E+02  0.00000000000E+00 0. -1.
          6    2    1    2  501    0 -0.23956534732E+02 -0.87296108725E+02  0.10541798922E+04  0.10736529589E+04  0.18232088458E+03 0.  0.
         24    2    3    3    0    0 -0.62972273346E+02  0.62391062053E+00  0.62778961511E+03  0.63652263963E+03  0.84115239055E+02 0.  0.
         -6    2    1    2    0  502  0.23956534732E+02  0.87296108725E+02  0.24166844785E+04  0.24244939831E+04  0.17208334935E+03 0.  0.
        -24    2    5    5    0    0 -0.18561110321E+02  0.11631139450E+03  0.16941372326E+04  0.17001002714E+04  0.79794201531E+02 0.  0.
          5    1    3    3  501    0  0.39015738615E+02 -0.87920019346E+02  0.42639027707E+03  0.43713031929E+03  0.47000000000E+01 0. -1.
        -13    1    4    4    0    0 -0.15370496574E+02  0.37883126907E+02  0.34026384915E+03  0.34271105980E+03  0.00000000000E+00 0.  1.
         14    1    4    4    0    0 -0.47601776772E+02 -0.37259216287E+02  0.28752576596E+03  0.29381157983E+03  0.00000000000E+00 0. -1.
         -5    1    5    5    0  502  0.42517645053E+02 -0.29015285772E+02  0.72254724593E+03  0.72439371170E+03  0.47000000000E+01 0.  1.
         11    1    6    6    0    0 -0.96794032354E+01  0.11475919663E+03  0.11226087365E+04  0.11285006599E+04  0.00000000000E+00 0. -1.
        -12    1    6    6    0    0 -0.88817070858E+01  0.15521978682E+01  0.57152849607E+03  0.57159961150E+03  0.00000000000E+00 0.  1.
</event>
<event>
12    1  0.1565987E-001  0.2094765E+03  0.7818608E-02  0.1142170E+00
         21   -1    0    0  503  502  0.00000000000E+00  0.00000000000E+00  0.23531988304E+03  0.23531988304E+03  0.00000000000E+00 0. -1.
         21   -1    0    0  501  503 -0.00000000000E+00 -0.00000000000E+00 -0.10909747394E+04  0.10909747394E+04  0.00000000000E+00 0.  1.
          6    2    1    2  501    0  0.11823663903E+03 -0.17480069051E+00 -0.10317637158E+04  0.10526255999E+04  0.17176831754E+03 0.  0.
         24    2    3    3    0    0  0.84500609898E+02 -0.99631485294E+01 -0.99354918196E+03  0.10005067740E+04  0.81450662507E+02 0.  0.
         -6    2    1    2    0  502 -0.11823663903E+03  0.17480069051E+00  0.17610885938E+03  0.27366902261E+03  0.17291752433E+03 0.  0.
        -24    2    5    5    0    0 -0.26035926684E+02  0.39966286577E+02  0.35457465659E+02  0.10078397912E+03  0.81394133913E+02 0.  0.
          5    1    3    3  501    0  0.33736029130E+02  0.97883478389E+01 -0.38214533825E+02  0.52118825873E+02  0.47000000000E+01 0. -1.
        -11    1    4    4    0    0  0.56659381036E+02  0.33415322158E+02 -0.60060125027E+03  0.60419262743E+03  0.00000000000E+00 0.  1.
         12    1    4    4    0    0  0.27841228862E+02 -0.43378470688E+02 -0.39294793169E+03  0.39631414656E+03  0.00000000000E+00 0. -1.
         -5    1    5    5    0  502 -0.92200712344E+02 -0.39791485886E+02  0.14065139373E+03  0.17288504349E+03  0.47000000000E+01 0.  1.
         11    1    6    6    0    0 -0.47294411363E+02  0.17793669798E+00  0.79804739185E+01  0.47963329447E+02  0.00000000000E+00 0. -1.
        -12    1    6    6    0    0  0.21258484678E+02  0.39788349879E+02  0.27476991741E+02  0.52820649674E+02  0.00000000000E+00 0.  1.
</event>
<event>
12    1  0.1565987E-001  0.1935594E+03  0.7818608E-02  0.1155459E+00
         21   -1    0    0  501  502  0.00000000000E+00  0.00000000000E+00  0.12813731840E+03  0.12813731840E+03  0.00000000000E+00 0. -1.
         21   -1    0    0  502  503 -0.00000000000E+00 -0.00000000000E+00 -0.35480899666E+03  0.35480899666E+03  0.00000000000E+00 0. -1.
         -6    2    1    2    0  503  0.46692121150E+01 -0.87349757895E+02 -0.21537503189E+03  0.28905753488E+03  0.17180242247E+03 0.  0.
        -24    2    3    3    0    0 -0.48377984452E+02 -0.95715663604E+02 -0.18664789491E+03  0.22797290637E+03  0.75048595755E+02 0.  0.
          6    2    1    2  501    0 -0.46692121150E+01  0.87349757895E+02 -0.11296646365E+02  0.19388878018E+03  0.17266575547E+03 0.  0.
         24    2    5    5    0    0 -0.61792950621E+02  0.17269235277E+02 -0.11379484058E+02  0.10335426735E+03  0.80224788486E+02 0.  0.
          5    1    5    5  501    0  0.57123738506E+02  0.70080522618E+02  0.82837693112E-01  0.90534512830E+02  0.47000000000E+01 0. -1.
        -11    1    6    6    0    0 -0.34044474702E+02 -0.28829137188E+02  0.95493569760E+01  0.45621657438E+02  0.00000000000E+00 0.  1.
         12    1    6    6    0    0 -0.27748475919E+02  0.46098372465E+02 -0.20928841034E+02  0.57732609908E+02  0.00000000000E+00 0. -1.
         -5    1    3    3    0  503  0.53047196567E+02  0.83659057096E+01 -0.28727136972E+02  0.61084628513E+02  0.47000000000E+01 0.  1.
         11    1    4    4    0    0 -0.30935979665E+01 -0.36283942160E+02 -0.12773041547E+03  0.13282000543E+03  0.00000000000E+00 0. -1.
        -12    1    4    4    0    0 -0.45284386485E+02 -0.59431721445E+02 -0.58917479447E+02  0.95152900942E+02  0.00000000000E+00 0.  1.
</event>
<event>
12    1  0.1565987E-001  0.2764955E+03  0.7818608E-02  0.1097791E+00
         21   -1    0    0  503  502  0.00000000000E+00  0.00000000000E+00  0.22218071498E+03  0.22218071498E+03  0.00000000000E+00 0. -1.
         21   -1    0    0  501  503 -0.00000000000E+00 -0.00000000000E+00 -0.40720369716E+03  0.40720369716E+03  0.00000000000E+00 0. -1.
          6    2    1    2  501    0 -0.15062278473E+03 -0.15485598553E+03 -0.21773328832E+03  0.35096075601E+03  0.17058155787E+03 0.  0.
         24    2    3    3    0    0 -0.16453477332E+03 -0.15925249434E+03 -0.22787987122E+03  0.33257826813E+03  0.79031766624E+02 0.  0.
         -6    2    1    2    0  502  0.15062278473E+03  0.15485598553E+03  0.32710306143E+02  0.27842365613E+03  0.17257511011E+03 0.  0.
        -24    2    5    5    0    0  0.70786000230E+02  0.15598058073E+03 -0.99968162868E+01  0.18775301491E+03  0.76227677898E+02 0.  0.
          5    1    3    3  501    0  0.13911988594E+02  0.43965088089E+01  0.10146582902E+02  0.18382487887E+02  0.47000000000E+01 0. -1.
        -11    1    4    4    0    0 -0.14595093078E+03 -0.11442380845E+03 -0.14065371324E+03  0.23276157154E+03  0.00000000000E+00 0.  1.
         12    1    4    4    0    0 -0.18583842546E+02 -0.44828685890E+02 -0.87226157980E+02  0.99816696591E+02  0.00000000000E+00 0. -1.
         -5    1    5    5    0  502  0.79836784497E+02 -0.11245951998E+01  0.42707122429E+02  0.90670641221E+02  0.47000000000E+01 0.  1.
         13    1    6    6    0    0 -0.26601586657E+01  0.12795563641E+02  0.20162841052E+02  0.24027963965E+02  0.00000000000E+00 0. -1.
        -14    1    6    6    0    0  0.73446158896E+02  0.14318501709E+03 -0.30159657339E+02  0.16372505094E+03  0.00000000000E+00 0.  1.
</event>
<event>
12    1  0.1565987E-001  0.2560342E+03  0.7818608E-02  0.1109734E+00
         21   -1    0    0  501  502  0.00000000000E+00  0.00000000000E+00  0.39039197635E+03  0.39039197635E+03  0.00000000000E+00 0.  1.
         21   -1    0    0  502  503 -0.00000000000E+00 -0.00000000000E+00 -0.82329957503E+03  0.82329957503E+03  0.00000000000E+00 0.  1.
         -6    2    1    2    0  503  0.45939600543E+02  0.18349774138E+03 -0.75811071761E+03  0.79979470068E+03  0.17075665461E+03 0.  0.
        -24    2    3    3    0    0  0.38406213410E+02  0.12640875166E+03 -0.70439002857E+03  0.72090295777E+03  0.77984308980E+02 0.  0.
          6    2    1    2  501    0 -0.45939600543E+02 -0.18349774138E+03  0.32520311894E+03  0.41389685070E+03  0.17254467962E+03 0.  0.
         24    2    5    5    0    0 -0.39999609088E+02 -0.11903678206E+03  0.31466373321E+03  0.34814225066E+03  0.80125136420E+02 0.  0.
          5    1    5    5  501    0 -0.59399914544E+01 -0.64460959321E+02  0.10539385727E+02  0.65754600041E+02  0.47000000000E+01 0. -1.
        -11    1    6    6    0    0  0.19974684081E+02 -0.46173809176E+02  0.15171379350E+03  0.15983767952E+03  0.00000000000E+00 0.  1.
         12    1    6    6    0    0 -0.59974293169E+02 -0.72862972887E+02  0.16294993971E+03  0.18830457114E+03  0.00000000000E+00 0. -1.
         -5    1    3    3    0  503  0.75333871323E+01  0.57088989719E+02 -0.53720689037E+02  0.78891742911E+02  0.47000000000E+01 0.  1.
         13    1    4    4    0    0  0.20339351219E+02 -0.26819883540E+01 -0.14992588899E+03  0.15132301365E+03  0.00000000000E+00 0. -1.
        -14    1    4    4    0    0  0.18066862192E+02  0.12909074002E+03 -0.55446413958E+03  0.56957994412E+03  0.00000000000E+00 0.  1.
</event>
<event>
12    1  0.1565987E-001  0.2062197E+03  0.7818608E-02  0.1144885E+00
         21   -1    0    0  501  502  0.00000000000E+00  0.00000000000E+00  0.17224070532E+04  0.17224070532E+04  0.00000000000E+00 0.  1.
         21   -1    0    0  502  503 -0.00000000000E+00 -0.00000000000E+00 -0.26058794149E+02  0.26058794149E+02  0.00000000000E+00 0.  1.
         -6    2    1    2    0  503 -0.11401017481E+03  0.51752347072E+01  0.63296835243E+03  0.66527454129E+03  0.17004757302E+03 0.  0.
        -24    2    3    3    0    0  0.36374441187E+01  0.71645651955E+01  0.34642830084E+03  0.35548072140E+03  0.79305823671E+02 0.  0.
          6    2    1    2  501    0  0.11401017481E+03 -0.51752347072E+01  0.10633799066E+04  0.10831913060E+04  0.17175993918E+03 0.  0.
         24    2    5    5    0    0  0.12528397706E+03  0.16677508865E+02  0.56919676278E+03  0.58837446048E+03  0.78900803372E+02 0.  0.
          5    1    5    5  501    0 -0.11273802240E+02 -0.21852743572E+02  0.49418314381E+03  0.49481684556E+03  0.47000000000E+01 0. -1.
        -11    1    6    6    0    0  0.44166721209E+02  0.23382015589E+02  0.36736616630E+03  0.37074967034E+03  0.00000000000E+00 0.  1.
         12    1    6    6    0    0  0.81117255846E+02 -0.67045067248E+01  0.20183059649E+03  0.21762479014E+03  0.00000000000E+00 0. -1.
         -5    1    3    3    0  503 -0.11764761893E+03 -0.19893304883E+01  0.28654005159E+03  0.30979381989E+03  0.47000000000E+01 0.  1.
         11    1    4    4    0    0 -0.74760144027E+01  0.12047110022E+02  0.69582228930E+01  0.15793685987E+02  0.00000000000E+00 0. -1.
        -12    1    4    4    0    0  0.11113458521E+02 -0.48825448267E+01  0.33947007795E+03  0.33968703541E+03  0.00000000000E+00 0.  1.
</event>
<event>
12    1  0.1565987E-001  0.2341343E+03  0.7818608E-02  0.1124679E+00
         21   -1    0    0  503  502  0.00000000000E+00  0.00000000000E+00  0.36015318672E+03  0.36015318672E+03  0.00000000000E+00 0. -1.
         21   -1    0    0  501  503 -0.00000000000E+00 -0.00000000000E+00 -0.15950182840E+03  0.15950182840E+03  0.00000000000E+00 0.  1.
          6    2    1    2  501    0 -0.73476855588E+02  0.13383454707E+03  0.34118215854E+02  0.23660710102E+03  0.17750586836E+03 0.  0.
         24    2    3    3    0    0 -0.59451285134E+02  0.46197535605E+02 -0.45360597516E+02  0.11737650855E+03  0.77788131183E+02 0.  0.
         -6    2    1    2    0  502  0.73476855588E+02 -0.13383454707E+03  0.16653314247E+03  0.28304791411E+03  0.17050601118E+03 0.  0.
        -24    2    5    5    0    0  0.14041949555E+02 -0.10688241236E+03  0.16950614453E+03  0.21755093432E+03  0.83516762212E+02 0.  0.
          5    1    3    3  501    0 -0.14025570454E+02  0.87637011461E+02  0.79478813370E+02  0.11923059246E+03  0.47000000000E+01 0. -1.
        -13    1    4    4    0    0  0.10414092156E+02  0.89490956403E+01  0.13084507737E+02  0.18966917802E+02  0.00000000000E+00 0.  1.
         14    1    4    4    0    0 -0.69865377290E+02  0.37248439964E+02 -0.58445105253E+02  0.98409590750E+02  0.00000000000E+00 0. -1.
         -5    1    5    5    0  502  0.59434906033E+02 -0.26952134704E+02 -0.29730020643E+01  0.65496979789E+02  0.47000000000E+01 0.  1.
         13    1    6    6    0    0  0.24699199128E+02 -0.60666422172E+02  0.15448907945E+03  0.16780149250E+03  0.00000000000E+00 0. -1.
        -14    1    6    6    0    0 -0.10657249573E+02 -0.46215990190E+02  0.15017065083E+02  0.49749441820E+02  0.00000000000E+00 0.  1.
</event>
<event>
12    1  0.1565987E-001  0.3880765E+03  0.7818608E-02  0.1048164E+00
         21   -1    0    0  503  502  0.00000000000E+00  0.00000000000E+00  0.29016509014E+03  0.29016509014E+03  0.00000000000E+00 0. -1.
         21   -1    0    0  501  503 -0.00000000000E+00 -0.00000000000E+00 -0.67860671912E+03  0.67860671912E+03  0.00000000000E+00 0.  1.
          6    2    1    2  501    0  0.23160189488E+03  0.25554252339E+03 -0.43139392340E+03  0.58026207154E+03  0.17793801040E+03 0.  0.
         24    2    3    3    0    0  0.13503043132E+03  0.22116451555E+03 -0.37880014389E+03  0.46495339606E+03  0.74465771825E+02 0.  0.
         -6    2    1    2    0  502 -0.23160189488E+03 -0.25554252339E+03  0.42952294425E+02  0.38850973773E+03  0.17364762520E+03 0.  0.
        -24    2    5    5    0    0 -0.18601629876E+03 -0.25340456935E+03  0.74594606465E+02  0.33277874695E+03  0.79758384758E+02 0.  0.
          5    1    3    3  501    0  0.96571463564E+02  0.34378007845E+02 -0.52593779509E+02  0.11530867548E+03  0.47000000000E+01 0. -1.
        -13    1    4    4    0    0 -0.15888590120E+01 -0.42342986643E+01 -0.15287051494E+02  0.15942010586E+02  0.00000000000E+00 0.  1.
         14    1    4    4    0    0  0.13661929033E+03  0.22539881421E+03 -0.36351309240E+03  0.44901138547E+03  0.00000000000E+00 0. -1.
         -5    1    5    5    0  502 -0.45585596122E+02 -0.21379540450E+01 -0.31642312040E+02  0.55730990772E+02  0.47000000000E+01 0.  1.
         11    1    6    6    0    0 -0.81303725402E+02 -0.80925485881E+02  0.62512368977E+02  0.13064082939E+03  0.00000000000E+00 0. -1.
        -12    1    6    6    0    0 -0.10471257336E+03 -0.17247908347E+03  0.12082237488E+02  0.20213791756E+03  0.00000000000E+00 0.  1.
</event>
<event>
12    1  0.1565987E-001  0.1732836E+03  0.7818608E-02  0.1174940E+00
         21   -1    0    0  503  502  0.00000000000E+00  0.00000000000E+00  0.86262711439E+02  0.86262711439E+02  0.00000000000E+00 0.  1.
         21   -1    0    0  501  503 -0.00000000000E+00 -0.00000000000E+00 -0.79185477915E+03  0.79185477915E+03  0.00000000000E+00 0.  1.
          6    2    1    2  501    0  0.15208540700E+02 -0.51137152391E+01 -0.68367165122E+03  0.70529010223E+03  0.17253913127E+03 0.  0.
         24    2    3    3    0    0 -0.40074229327E+02 -0.36912578957E+02 -0.27930728193E+03  0.29590033007E+03  0.81092325486E+02 0.  0.
         -6    2    1    2    0  502 -0.15208540700E+02  0.51137152391E+01 -0.21920416491E+02  0.17282738836E+03  0.17067908986E+03 0.  0.
        -24    2    5    5    0    0  0.34763760113E+02  0.44428677222E+02 -0.38436006266E+02  0.10696577747E+03  0.82352441341E+02 0.  0.
          5    1    3    3  501    0  0.55282770027E+02  0.31798863718E+02 -0.40436436929E+03  0.40938977216E+03  0.47000000000E+01 0. -1.
        -11    1    4    4    0    0  0.18099970362E+02 -0.26502476439E+02 -0.15463255395E+03  0.15792788520E+03  0.00000000000E+00 0.  1.
         12    1    4    4    0    0 -0.58174199689E+02 -0.10410102518E+02 -0.12467472798E+03  0.13797244486E+03  0.00000000000E+00 0. -1.
         -5    1    5    5    0  502 -0.49972300813E+02 -0.39314961983E+02  0.16515589775E+02  0.65861610896E+02  0.47000000000E+01 0.  1.
         13    1    6    6    0    0  0.15462669530E+02 -0.21135460824E+02 -0.27100468272E+02  0.37686034997E+02  0.00000000000E+00 0. -1.
        -14    1    6    6    0    0  0.19301090583E+02  0.65564138045E+02 -0.11335537994E+02  0.69279742471E+02  0.00000000000E+00 0.  1.
</event>
<event>
12    1  0.1565987E-001  0.2337028E+03  0.7818608E-02  0.1124192E+00
         21   -1    0    0  501  502  0.00000000000E+00  0.00000000000E+00  0.71009687593E+02  0.71009687593E+02  0.00000000000E+00 0. -1.
         21   -1    0    0  502  503 -0.00000000000E+00 -0.00000000000E+00 -0.92210532403E+03  0.92210532403E+03  0.00000000000E+00 0.  1.
         -6    2    1    2    0  503  0.57258613823E+02 -0.14632219755E+03 -0.62885851453E+03  0.67061486058E+03  0.17196664089E+03 0.  0.
        -24    2    3    3    0    0  0.10238943913E+03 -0.82683169008E+02 -0.38301993469E+03  0.41265088114E+03  0.79097254429E+02 0.  0.
          6    2    1    2  501    0 -0.57258613823E+02  0.14632219755E+03 -0.22223712191E+03  0.32250015105E+03  0.17299790380E+03 0.  0.
         24    2    5    5    0    0  0.21864462628E+02  0.33939327655E+02 -0.52698913190E+02  0.10419837623E+03  0.80313096505E+02 0.  0.
          5    1    5    5  501    0 -0.79123076451E+02  0.11238286989E+03 -0.16953820872E+03  0.21830177482E+03  0.47000000000E+01 0. -1.
        -13    1    6    6    0    0  0.30612639124E+02  0.27246863743E+02 -0.71497821635E+02  0.82410337680E+02  0.00000000000E+00 0.  1.
         14    1    6    6    0    0 -0.87481764963E+01  0.66924639121E+01  0.18798908445E+02  0.21788038552E+02  0.00000000000E+00 0. -1.
         -5    1    3    3    0  503 -0.45130825305E+02 -0.63639028541E+02 -0.24583857984E+03  0.25796397943E+03  0.47000000000E+01 0.  1.
         11    1    4    4    0    0  0.68814610549E+02 -0.23513339910E+02 -0.11445701928E+03  0.13560507749E+03  0.00000000000E+00 0. -1.
        -12    1    4    4    0    0  0.33574828580E+02 -0.59169829098E+02 -0.26856291541E+03  0.27704580365E+03  0.00000000000E+00 0.  1.
</event>
<event>
12    1  0.1565987E-001  0.2184356E+03  0.7818608E-02  0.1135468E+00
         21   -1    0    0  503  502  0.00000000000E+00  0.00000000000E+00  0.76654412018E+03  0.76654412018E+03  0.00000000000E+00 0.  1.
         21   -1    0    0  501  503 -0.00000000000E+00 -0.00000000000E+00 -0.13455396579E+03  0.13455396579E+03  0.00000000000E+00 0.  1.
          6    2    1    2  501    0  0.13090668780E+03 -0.23719449415E+02 -0.16428745329E+02  0.21687503757E+03  0.17048667120E+03 0.  0.
         24    2    3    3    0    0  0.16330384010E+03 -0.23729339489E+02 -0.10465173274E+02  0.18359997534E+03  0.79801036026E+02 0.  0.
         -6    2    1    2    0  502 -0.13090668780E+03  0.23719449415E+02  0.64841889972E+03  0.68422304840E+03  0.17324819551E+03 0.  0.
        -24    2    5    5    0    0 -0.20330672653E+02  0.58461430298E+02  0.31616377220E+03  0.33230030101E+03  0.81442520330E+02 0.  0.
          5    1    3    3  501    0 -0.32397152295E+02  0.98900744399E-02 -0.59635720555E+01  0.33275062228E+02  0.47000000000E+01 0. -1.
        -11    1    4    4    0    0  0.16292895775E+03 -0.16845563924E+02  0.78955294936E+01  0.16398767540E+03  0.00000000000E+00 0.  1.
         12    1    4    4    0    0  0.37488234596E+00 -0.68837755648E+01 -0.18360702767E+02  0.19612299939E+02  0.00000000000E+00 0. -1.
         -5    1    5    5    0  502 -0.11057601515E+03 -0.34741980883E+02  0.33225512752E+03  0.35192274738E+03  0.47000000000E+01 0.  1.
         13    1    6    6    0    0 -0.64677275453E+01  0.30855852174E+02  0.27048957168E+02  0.41539874781E+02  0.00000000000E+00 0. -1.
        -14    1    6    6    0    0 -0.13862945108E+02  0.27605578124E+02  0.28911481503E+03  0.29076042623E+03  0.00000000000E+00 0.  1.
</event>
<event>
12    1  0.1565987E-001  0.2024639E+03  0.7818608E-02  0.1148051E+00
         21   -1    0    0  503  502  0.00000000000E+00  0.00000000000E+00  0.49614581278E+02  0.49614581278E+02  0.00000000000E+00 0.  1.
         21   -1    0    0  501  503 -0.00000000000E+00 -0.00000000000E+00 -0.10382851008E+04  0.10382851008E+04  0.00000000000E+00 0.  1.
          6    2    1    2  501    0 -0.19331862645E+02 -0.99971485025E+02 -0.74611574569E+03  0.77309788162E+03  0.17499602814E+03 0.  0.
         24    2    3    3    0    0 -0.80353236529E+02 -0.69010287963E+02 -0.43357523955E+03  0.45311997336E+03  0.78173905121E+02 0.  0.
         -6    2    1    2    0  502  0.19331862645E+02  0.99971485025E+02 -0.24255477387E+03  0.31480180050E+03  0.17291424620E+03 0.  0.
        -24    2    5    5    0    0 -0.44952914037E+02  0.98526207362E+02 -0.17621563224E+03  0.22229454104E+03  0.81453888261E+02 0.  0.
          5    1    3    3  501    0  0.61021373884E+02 -0.30961197062E+02 -0.31254050614E+03  0.31997790826E+03  0.47000000000E+01 0. -1.
        -13    1    4    4    0    0 -0.13897039412E+02  0.11303599163E+02 -0.14862161995E+03  0.14969731119E+03  0.00000000000E+00 0.  1.
         14    1    4    4    0    0 -0.66456197117E+02 -0.80313887125E+02 -0.28495361960E+03  0.30342266217E+03  0.00000000000E+00 0. -1.
         -5    1    5    5    0  502  0.64284776681E+02  0.14452776629E+01 -0.66339141635E+02  0.92507259463E+02  0.47000000000E+01 0.  1.
         11    1    6    6    0    0 -0.42322916491E+02  0.35004833315E+02 -0.13699375991E+03  0.14759355632E+03  0.00000000000E+00 0. -1.
        -12    1    6    6    0    0 -0.26299975456E+01  0.63521374047E+02 -0.39221872334E+02  0.74700984714E+02  0.00000000000E+00 0.  1.
</event>
<event>
12    1  0.1565987E-001  0.2559147E+03  0.7818608E-02  0.1109904E+00
         21   -1    0    0  501  502  0.00000000000E+00  0.00000000000E+00  0.22231826490E+04  0.22231826490E+04  0.00000000000E+00 0. -1.
         21   -1    0    0  502  503 -0.00000000000E+00 -0.00000000000E+00 -0.32664196130E+02  0.32664196130E+02  0.00000000000E+00 0. -1.
         -6    2    1    2    0  503  0.18704341603E+03  0.90869826575E+01  0.73406742163E+03  0.77739779236E+03  0.17442630342E+03 0.  0.
        -24    2    3    3    0    0  0.20556496128E+03  0.35865764519E+02  0.63760934318E+03  0.67548409507E+03  0.78675166427E+02 0.  0.
          6    2    1    2  501    0 -0.18704341603E+03 -0.90869826575E+01  0.14564510312E+04  0.14784490528E+04  0.17173870418E+03 0.  0.
         24    2    5    5    0    0 -0.54034497468E+02 -0.55521050575E+02  0.56541872687E+03  0.57633589329E+03  0.80389123814E+02 0.  0.
          5    1    5    5  501    0 -0.13300891857E+03  0.46434067917E+02  0.89103230436E+03  0.90211315947E+03  0.47000000000E+01 0. -1.
        -13    1    6    6    0    0 -0.71870102697E+02 -0.59291444467E+02  0.48620235534E+03  0.49504900504E+03  0.00000000000E+00 0.  1.
         14    1    6    6    0    0  0.17835605229E+02  0.37703938925E+01  0.79216371533E+02  0.81286888259E+02  0.00000000000E+00 0. -1.
         -5    1    3    3    0  503 -0.18521545244E+02 -0.26778781861E+02  0.96458078454E+02  0.10191369729E+03  0.47000000000E+01 0.  1.
         13    1    4    4    0    0  0.17278283605E+03  0.17430855651E+02  0.58873910570E+03  0.61381713705E+03  0.00000000000E+00 0. -1.
        -14    1    4    4    0    0  0.32782125230E+02  0.18434908868E+02  0.48870237481E+02  0.61666958016E+02  0.00000000000E+00 0.  1.
</event>
<event>
12    1  0.1565987E-001  0.1758640E+03  0.7818608E-02  0.1172325E+00
         21   -1    0    0  501  502  0.00000000000E+00  0.00000000000E+00  0.35806032233E+03  0.35806032233E+03  0.00000000000E+00 0.  1.
         21   -1    0    0  502  503 -0.00000000000E+00 -0.00000000000E+00 -0.12140537763E+03  0.12140537763E+03  0.00000000000E+00 0.  1.
         -6    2    1    2    0  503  0.12106938528E+01  0.28639181536E+02 -0.11640545084E+02  0.17624883421E+03  0.17351219200E+03 0.  0.
        -24    2    3    3    0    0  0.11196571408E+02 -0.48652786201E+02 -0.21803809990E+02  0.97514165988E+02  0.80877373979E+02 0.  0.
          6    2    1    2  501    0 -0.12106938528E+01 -0.28639181536E+02  0.24829548978E+03  0.30321686574E+03  0.17166289326E+03 0.  0.
         24    2    5    5    0    0  0.42568544076E+02 -0.22103142294E+02  0.58859167534E+02  0.10862099818E+03  0.77675541836E+02 0.  0.
          5    1    5    5  501    0 -0.43779237928E+02 -0.65360392411E+01  0.18943632225E+03  0.19459586756E+03  0.47000000000E+01 0. -1.
        -13    1    6    6    0    0  0.23373799471E+02  0.26456592665E+02  0.90181504223E+01  0.36436421808E+02  0.00000000000E+00 0.  1.
         14    1    6    6    0    0  0.19194744605E+02 -0.48559734959E+02  0.49841017111E+02  0.72184576375E+02  0.00000000000E+00 0. -1.
         -5    1    3    3    0  503 -0.99858775556E+01  0.77291967736E+02  0.10163264906E+02  0.78734668226E+02  0.47000000000E+01 0.  1.
         11    1    4    4    0    0 -0.12486384219E+00 -0.18581973585E+02  0.30742610035E+02  0.35922324605E+02  0.00000000000E+00 0. -1.
        -12    1    4    4    0    0  0.11321435251E+02 -0.30070812616E+02 -0.52546420024E+02  0.61591841382E+02  0.00000000000E+00 0.  1.
</event>
<event>
12    1  0.1565987E-001  0.1925743E+03  0.7818608E-02  0.1156554E+00
         21   -1    0    0  503  502  0.00000000000E+00  0.00000000000E+00  0.39987828729E+02  0.39987828729E+02  0.00000000000E+00 0.  1.
         21   -1    0    0  501  503 -0.00000000000E+00 -0.00000000000E+00 -0.91945588638E+03  0.91945588638E+03  0.00000000000E+00 0.  1.
          6    2    1    2  501    0 -0.57176131987E+02  0.60187928559E+02 -0.44944843045E+03  0.48827309036E+03  0.17179936646E+03 0.  0.
         24    2    3    3    0    0  0.55084452740E+01  0.57700122917E+02 -0.13787690031E+03  0.17041391746E+03  0.81677515075E+02 0.  0.
         -6    2    1    2    0  502  0.57176131987E+02 -0.60187928559E+02 -0.43001962719E+03  0.47117062475E+03  0.17376185151E+03 0.  0.
        -24    2    5    5    0    0  0.60804949186E+02 -0.96139171587E+01 -0.40103779240E+03  0.41257936524E+03  0.74838174991E+02 0.  0.
          5    1    3    3  501    0 -0.62684577261E+02  0.24878056420E+01 -0.31157153014E+03  0.31785917290E+03  0.47000000000E+01 0. -1.
        -11    1    4    4    0    0 -0.66711871686E+01  0.75648200492E+02 -0.12131235109E+03  0.14312177159E+03  0.00000000000E+00 0.  1.
         12    1    4    4    0    0  0.12179632443E+02 -0.17948077575E+02 -0.16564549227E+02  0.27292145870E+02  0.00000000000E+00 0. -1.
         -5    1    5    5    0  502 -0.36288171991E+01 -0.50574011400E+02 -0.28981834793E+02  0.58591259513E+02  0.47000000000E+01 0.  1.
         11    1    6    6    0    0  0.15841718335E+02  0.31953025835E+02 -0.14530753081E+03  0.14962030079E+03  0.00000000000E+00 0. -1.
        -12    1    6    6    0    0  0.44963230851E+02 -0.41566942994E+02 -0.25573026159E+03  0.26295906444E+03  0.00000000000E+00 0.  1.
</event>
<event>
12    1  0.1565987E-001  0.1818651E+03  0.7818608E-02  0.1166668E+00
         21   -1    0    0  503  502  0.00000000000E+00  0.00000000000E+00  0.63813183207E+02  0.63813183207E+02  0.00000000000E+00 0. -1.
         21   -1    0    0  501  503 -0.00000000000E+00 -0.00000000000E+00 -0.53585431504E+03  0.53585431504E+03  0.00000000000E+00 0. -1.
          6    2    1    2  501    0  0.59204651286E+02  0.16319234670E+01 -0.16915233891E+03  0.24637367213E+03  0.16905507579E+03 0.  0.
         24    2    3    3    0    0  0.59361527565E+01 -0.38674360626E+02 -0.36540786651E+02  0.97813774220E+02  0.81861842508E+02 0.  0.
         -6    2    1    2    0  502 -0.59204651286E+02 -0.16319234670E+01 -0.30288879291E+03  0.35329382611E+03  0.17195072779E+03 0.  0.
        -24    2    5    5    0    0 -0.97905973008E+02 -0.21867090629E+02 -0.26927994551E+03  0.29798651270E+03  0.78870295390E+02 0.  0.
          5    1    3    3  501    0  0.53268498529E+02  0.40306284093E+02 -0.13261155226E+03  0.14855989791E+03  0.47000000000E+01 0. -1.
        -13    1    4    4    0    0 -0.43690486562E+01  0.17928333125E+01 -0.52793062843E+02  0.53003870819E+02  0.00000000000E+00 0.  1.
         14    1    4    4    0    0  0.10305201413E+02 -0.40467193939E+02  0.16252276192E+02  0.44809903401E+02  0.00000000000E+00 0. -1.
         -5    1    5    5    0  502  0.38701321722E+02  0.20235167162E+02 -0.33608847407E+02  0.55307313414E+02  0.47000000000E+01 0.  1.
         11    1    6    6    0    0 -0.98189108739E+02  0.72546675017E+01 -0.21048648317E+03  0.23237532328E+03  0.00000000000E+00 0. -1.
        -12    1    6    6    0    0  0.28313573091E+00 -0.29121758130E+02 -0.58793462341E+02  0.65611189415E+02  0.00000000000E+00 0.  1.
</event>
<event>
12    1  0.1565987E-001  0.1894256E+03  0.7818608E-02  0.1158995E+00
         21   -1    0    0  501  502  0.00000000000E+00  0.00000000000E+00  0.27725814956E+03  0.27725814956E+03  0.00000000000E+00 0. -1.
         21   -1    0    0  502  503 -0.00000000000E+00 -0.00000000000E+00 -0.13116982417E+03  0.13116982417E+03  0.00000000000E+00 0. -1.
         -6    2    1    2    0  503  0.62348562208E+02  0.47221023156E+02  0.96926654133E+02  0.21272689375E+03  0.17245517332E+03 0.  0.
        -24    2    3    3    0    0  0.34614217198E+02  0.98171834015E+02  0.72893251967E+02  0.14975965274E+03  0.79238086675E+02 0.  0.
          6    2    1    2  501    0 -0.62348562208E+02 -0.47221023156E+02  0.49161671257E+02  0.19570107998E+03  0.17252499688E+03 0.  0.
         24    2    5    5    0    0 -0.88927529178E+02 -0.61882762789E+02 -0.37485053276E+01  0.13452114143E+03  0.79651142015E+02 0.  0.
          5    1    5    5  501    0  0.26578966970E+02  0.14661739634E+02  0.52910176584E+02  0.61179938545E+02  0.47000000000E+01 0. -1.
        -13    1    6    6    0    0 -0.30884429296E+02  0.11459842098E+02 -0.21476358872E+02  0.39324419185E+02  0.00000000000E+00 0.  1.
         14    1    6    6    0    0 -0.58043099882E+02 -0.73342604887E+02  0.17727853545E+02  0.95196722248E+02  0.00000000000E+00 0. -1.
         -5    1    3    3    0  503  0.27734345010E+02 -0.50950810859E+02  0.24033402166E+02  0.62967241007E+02  0.47000000000E+01 0.  1.
         11    1    4    4    0    0  0.29556968909E+02 -0.28285448349E+01  0.17010296606E+02  0.34219369772E+02  0.00000000000E+00 0. -1.
        -12    1    4    4    0    0  0.50572482893E+01  0.10100037885E+03  0.55882955361E+02  0.11554028297E+03  0.00000000000E+00 0.  1.
</event>
<event>
12    1  0.1565987E-001  0.1796963E+03  0.7818608E-02  0.1168260E+00
         21   -1    0    0  503  502  0.00000000000E+00  0.00000000000E+00  0.63989310054E+03  0.63989310054E+03  0.00000000000E+00 0. -1.
         21   -1    0    0  501  503 -0.00000000000E+00 -0.00000000000E+00 -0.13582515872E+03  0.13582515872E+03  0.00000000000E+00 0. -1.
          6    2    1    2  501    0 -0.49786404193E+02  0.78662814389E+01 -0.55610050992E+02  0.18810437488E+03  0.17248250245E+03 0.  0.
         24    2    3    3    0    0 -0.34052797612E+02 -0.58807789150E+02 -0.51369269086E+02  0.11930719255E+03  0.83531163639E+02 0.  0.
         -6    2    1    2    0  502  0.49786404193E+02 -0.78662814389E+01  0.55967799281E+03  0.58761388438E+03  0.17178491509E+03 0.  0.
        -24    2    5    5    0    0 -0.13570564066E+01 -0.58891095315E+02  0.39348992912E+03  0.40634130591E+03  0.82516239961E+02 0.  0.
          5    1    3    3  501    0 -0.15733606581E+02  0.66674070588E+02 -0.42407819057E+01  0.68797182326E+02  0.47000000000E+01 0. -1.
        -11    1    4    4    0    0 -0.26221480050E+02 -0.32042929625E+02  0.17542020493E+02  0.44967075043E+02  0.00000000000E+00 0.  1.
         12    1    4    4    0    0 -0.78313175622E+01 -0.26764859525E+02 -0.68911289579E+02  0.74340117511E+02  0.00000000000E+00 0. -1.
         -5    1    5    5    0  502  0.51143460599E+02  0.51024813876E+02  0.16618806369E+03  0.18127257847E+03  0.47000000000E+01 0.  1.
         11    1    6    6    0    0 -0.35010122981E+02 -0.48837533718E+01  0.18537050068E+03  0.18871084304E+03  0.00000000000E+00 0. -1.
        -12    1    6    6    0    0  0.33653066575E+02 -0.54007341943E+02  0.20811942844E+03  0.21763046287E+03  0.00000000000E+00 0.  1.
</event>
<event>
12    1  0.1565987E-001  0.1785116E+03  0.7818608E-02  0.1170368E+00
         21   -1    0    0  503  502  0.00000000000E+00  0.00000000000E+00  0.53020835877E+03  0.53020835877E+03  0.00000000000E+00 0.  1.
         21   -1    0    0  501  503 -0.00000000000E+00 -0.00000000000E+00 -0.60605674374E+02  0.60605674374E+02  0.00000000000E+00 0.  1.
          6    2    1    2  501    0 -0.95365041674E+01  0.21085692228E+01  0.17810783256E+03  0.24900172163E+03  0.17373562208E+03 0.  0.
         24    2    3    3    0    0  0.17117880933E+02 -0.48416405188E+02  0.50246719887E+02  0.10888111851E+03  0.81811948826E+02 0.  0.
         -6    2    1    2    0  502  0.95365041674E+01 -0.21085692228E+01  0.29149485184E+03  0.34181231151E+03  0.17824426127E+03 0.  0.
        -24    2    5    5    0    0 -0.18139640156E+02  0.16023527829E+02  0.51229569397E+02  0.99233998685E+02  0.81468507567E+02 0.  0.
          5    1    3    3  501    0 -0.26654385100E+02  0.50524974411E+02  0.12786111267E+03  0.14012060312E+03  0.47000000000E+01 0. -1.
        -13    1    4    4    0    0  0.38398682124E+02  0.33054166651E+01  0.95309266724E+01  0.39701676683E+02  0.00000000000E+00 0.  1.
         14    1    4    4    0    0 -0.21280801191E+02 -0.51721821853E+02  0.40715793214E+02  0.69179441832E+02  0.00000000000E+00 0. -1.
         -5    1    5    5    0  502  0.27676144323E+02 -0.18132097052E+02  0.24026528244E+03  0.24257831283E+03  0.47000000000E+01 0.  1.
         11    1    6    6    0    0 -0.39591001751E+00 -0.22624497316E+01 -0.21782714040E+02  0.21903471289E+02  0.00000000000E+00 0. -1.
        -12    1    6    6    0    0 -0.17743730138E+02  0.18285977561E+02  0.73012283438E+02  0.77330527396E+02  0.00000000000E+00 0.  1.
</event>
<event>
12    1  0.1565987E-001  0.2046581E+03  0.7818608E-02  0.1150112E+00
         21   -1    0    0  503  502  0.00000000000E+00  0.00000000000E+00  0.97458731253E+02  0.97458731253E+02  0.00000000000E+00 0. -1.
         21   -1    0    0  501  503 -0.00000000000E+00 -0.00000000000E+00 -0.39416182774E+03  0.39416182774E+03  0.00000000000E+00 0.  1.
          6    2    1    2  501    0  0.59035967010E+02  0.89360310837E+02 -0.11427489551E+03  0.21745822064E+03  0.15086025131E+03 0.  0.
         24    2    3    3    0    0  0.11453199978E+02  0.10684668371E+03 -0.86152115356E+02  0.15929574374E+03  0.80034726119E+02 0.  0.
         -6    2    1    2    0  502 -0.59035967010E+02 -0.89360310837E+02 -0.18242820098E+03  0.27416233836E+03  0.17439732999E+03 0.  0.
        -24    2    5    5    0    0  0.27442597374E+02 -0.68581763921E+02 -0.13494545114E+03  0.17323171049E+03  0.79639162743E+02 0.  0.
          5    1    3    3  501    0  0.47582767032E+02 -0.17486372872E+02 -0.28122780154E+02  0.58162476892E+02  0.47000000000E+01 0. -1.
        -11    1    4    4    0    0  0.11775591412E+02  0.11614471993E+03 -0.59422935485E+02  0.13099368604E+03  0.00000000000E+00 0.  1.
         12    1    4    4    0    0 -0.32239143397E+00 -0.92980362183E+01 -0.26729179871E+02  0.28302057705E+02  0.00000000000E+00 0. -1.
         -5    1    5    5    0  502 -0.86478564384E+02 -0.20778546916E+02 -0.47482749838E+02  0.10093062787E+03  0.47000000000E+01 0.  1.
         11    1    6    6    0    0  0.19468827222E+02  0.12975190490E+02 -0.14407282537E+02  0.27476546212E+02  0.00000000000E+00 0. -1.
        -12    1    6    6    0    0  0.79737701528E+01 -0.81556954411E+02 -0.12053816860E+03  0.14575516428E+03  0.00000000000E+00 0.  1.
</event>
<event>
12    1  0.1565987E-001  0.2054923E+03  0.7818608E-02  0.1145343E+00
         21   -1    0    0  503  502  0.00000000000E+00  0.00000000000E+00  0.52804489068E+02  0.52804489068E+02  0.00000000000E+00 0. -1.
         21   -1    0    0  501  503 -0.00000000000E+00 -0.00000000000E+00 -0.80510173234E+03  0.80510173234E+03  0.00000000000E+00 0. -1.
          6    2    1    2  501    0  0.11298806235E+03  0.11083692149E+02 -0.42065187741E+03  0.46816141056E+03  0.17128325636E+03 0.  0.
         24    2    3    3    0    0  0.52471623588E+01 -0.17361256708E+02 -0.17692667078E+03  0.20012916812E+03  0.91758875049E+02 0.  0.
         -6    2    1    2    0  502 -0.11298806235E+03 -0.11083692149E+02 -0.33164536587E+03  0.38974481084E+03  0.17036202163E+03 0.  0.
        -24    2    5    5    0    0 -0.17551409732E+02 -0.55093426360E+02 -0.18203125481E+03  0.20684734341E+03  0.79417303747E+02 0.  0.
          5    1    3    3  501    0  0.10774089999E+03  0.28444948857E+02 -0.24372520663E+03  0.26803224245E+03  0.47000000000E+01 0. -1.
        -11    1    4    4    0    0  0.99873018210E+01  0.16970824302E+02  0.15066894492E+00  0.19692073946E+02  0.00000000000E+00 0.  1.
         12    1    4    4    0    0 -0.47401394623E+01 -0.34332081010E+02 -0.17707733973E+03  0.18043709417E+03  0.00000000000E+00 0. -1.
         -5    1    5    5    0  502 -0.95436652619E+02  0.44009734211E+02 -0.14961411105E+03  0.18289746744E+03  0.47000000000E+01 0.  1.
         13    1    6    6    0    0 -0.10365747230E+02 -0.17110816267E+01  0.54122597833E+01  0.11818167029E+02  0.00000000000E+00 0. -1.
        -14    1    6    6    0    0 -0.71856625025E+01 -0.53382344733E+02 -0.18744351460E+03  0.19502917638E+03  0.00000000000E+00 0.  1.
</event>
<event>
12    1  0.1565987E-001  0.2243058E+03  0.7818608E-02  0.1130722E+00
         21   -1    0    0  503  502  0.00000000000E+00  0.00000000000E+00  0.52533230778E+03  0.52533230778E+03  0.00000000000E+00 0.  1.
         21   -1    0    0  501  503 -0.00000000000E+00 -0.00000000000E+00 -0.13006050544E+03  0.13006050544E+03  0.00000000000E+00 0.  1.
          6    2    1    2  501    0  0.10209056530E+03  0.10161052578E+03  0.29314245941E+02  0.22616325295E+03  0.17188167296E+03 0.  0.
         24    2    3    3    0    0 -0.84820165209E+01  0.20660608581E+02  0.17505242705E+01  0.86302487557E+02  0.83344163995E+02 0.  0.
         -6    2    1    2    0  502 -0.10209056530E+03 -0.10161052578E+03  0.36595755640E+03  0.42922956027E+03  0.17194737523E+03 0.  0.
        -24    2    5    5    0    0 -0.23907351972E+02 -0.20436465858E+02  0.65393573268E+02  0.10819585361E+03  0.80254674005E+02 0.  0.
          5    1    3    3  501    0  0.11057258182E+03  0.80949917195E+02  0.27563721670E+02  0.13986076539E+03  0.47000000000E+01 0. -1.
        -11    1    4    4    0    0  0.33512371359E+02  0.27943236154E+02 -0.24851049063E+00  0.43634450132E+02  0.00000000000E+00 0.  1.
         12    1    4    4    0    0 -0.41994387879E+02 -0.72826275731E+01  0.19990347611E+01  0.42668037425E+02  0.00000000000E+00 0. -1.
         -5    1    5    5    0  502 -0.78183213324E+02 -0.81174059918E+02  0.30056398313E+03  0.32103370665E+03  0.47000000000E+01 0.  1.
         13    1    6    6    0    0 -0.29546295078E+02 -0.48888485732E+02  0.45398066009E+02  0.72966101631E+02  0.00000000000E+00 0. -1.
        -14    1    6    6    0    0  0.56389431061E+01  0.28452019874E+02  0.19995507260E+02  0.35229751984E+02  0.00000000000E+00 0.  1.
</event>
<event>
12    1  0.1565987E-001  0.1736142E+03  0.7818608E-02  0.1174210E+00
         21   -1    0    0  503  502  0.00000000000E+00  0.00000000000E+00  0.55445608489E+03  0.55445608489E+03  0.00000000000E+00 0.  1.
         21   -1    0    0  501  503 -0.00000000000E+00 -0.00000000000E+00 -0.85498200055E+02  0.85498200055E+02  0.00000000000E+00 0.  1.
          6    2    1    2  501    0 -0.56750842734E+01  0.20565857021E+02  0.41216214635E+02  0.17843948615E+03  0.17229832504E+03 0.  0.
         24    2    3    3    0    0  0.74404646027E+01  0.83992610252E+01 -0.43162304913E+02  0.92057380124E+02  0.80533648686E+02 0.  0.
         -6    2    1    2    0  502  0.56750842734E+01 -0.20565857021E+02  0.42774167020E+03  0.46151479880E+03  0.17198201076E+03 0.  0.
        -24    2    5    5    0    0 -0.24120999710E+02 -0.50537515165E+02  0.14144972337E+03  0.17208211969E+03  0.80426168689E+02 0.  0.
          5    1    3    3  501    0 -0.13115548876E+02  0.12166595996E+02  0.84378519548E+02  0.86382106026E+02  0.47000000000E+01 0. -1.
        -13    1    4    4    0    0 -0.20424319095E+02 -0.25723386645E+02 -0.33579566641E+02  0.46972680643E+02  0.00000000000E+00 0.  1.
         14    1    4    4    0    0  0.27864783698E+02  0.34122647670E+02 -0.95827382719E+01  0.45084699481E+02  0.00000000000E+00 0. -1.
         -5    1    5    5    0  502  0.29796083984E+02  0.29971658143E+02  0.28629194684E+03  0.28943267911E+03  0.47000000000E+01 0.  1.
         13    1    6    6    0    0  0.26981835406E+02 -0.86555149256E+01  0.65791974934E+02  0.71634637894E+02  0.00000000000E+00 0. -1.
        -14    1    6    6    0    0 -0.51102835116E+02 -0.41882000239E+02  0.75657748431E+02  0.10044748179E+03  0.00000000000E+00 0.  1.
</event>
<event>
12    1  0.1565987E-001  0.2440348E+03  0.7818608E-02  0.1117301E+00
         21   -1    0    0  503  502  0.00000000000E+00  0.00000000000E+00  0.22732845445E+03  0.22732845445E+03  0.00000000000E+00 0.  1.
         21   -1    0    0  501  503 -0.00000000000E+00 -0.00000000000E+00 -0.27248653786E+03  0.27248653786E+03  0.00000000000E+00 0.  1.
          6    2    1    2  501    0 -0.29624344807E+01 -0.17310876149E+03 -0.74136711730E+02  0.25406560597E+03  0.17052173112E+03 0.  0.
         24    2    3    3    0    0 -0.44257655419E+01 -0.76659249433E+02  0.26813707196E+02  0.11435974784E+03  0.80392469219E+02 0.  0.
         -6    2    1    2    0  502  0.29624344807E+01  0.17310876149E+03  0.28978628317E+02  0.24574938635E+03  0.17198133814E+03 0.  0.
        -24    2    5    5    0    0  0.47995804582E+01  0.17889062494E+03 -0.19343015922E+02  0.19682213063E+03  0.79623534071E+02 0.  0.
          5    1    3    3  501    0  0.14633310612E+01 -0.96449512061E+02 -0.10095041893E+03  0.13970585813E+03  0.47000000000E+01 0. -1.
        -13    1    4    4    0    0  0.16552504165E+02 -0.64625820219E+02  0.48017781085E+02  0.82196042079E+02  0.00000000000E+00 0.  1.
         14    1    4    4    0    0 -0.20978269707E+02 -0.12033429214E+02 -0.21204073889E+02  0.32163705757E+02  0.00000000000E+00 0. -1.
         -5    1    5    5    0  502 -0.18371459774E+01 -0.57818634423E+01  0.48321644239E+02  0.48927255718E+02  0.47000000000E+01 0.  1.
         13    1    6    6    0    0 -0.93207213747E+01  0.20376074894E+02 -0.29860877213E+02  0.37332723755E+02  0.00000000000E+00 0. -1.
        -14    1    6    6    0    0  0.14120301833E+02  0.15851455004E+03  0.10517861292E+02  0.15948940687E+03  0.00000000000E+00 0.  1.
</event>
<event>
12    1  0.1565987E-001  0.2371774E+03  0.7818608E-02  0.1122430E+00
         21   -1    0    0  501  502  0.00000000000E+00  0.00000000000E+00  0.46312191552E+03  0.46312191552E+03  0.00000000000E+00 0.  1.
         21   -1    0    0  502  503 -0.00000000000E+00 -0.00000000000E+00 -0.20782188883E+03  0.20782188883E+03  0.00000000000E+00 0.  1.
         -6    2    1    2    0  503 -0.42955430509E+02 -0.15054519432E+03 -0.90676989525E+02  0.25392017982E+03  0.17816878724E+03 0.  0.
        -24    2    3    3    0    0 -0.86981673766E+02 -0.68940347054E+02 -0.24445332931E+02  0.13987464713E+03  0.81539926315E+02 0.  0.
          6    2    1    2  501    0  0.42955430509E+02  0.15054519432E+03  0.34597701621E+03  0.41702362452E+03  0.17233566990E+03 0.  0.
         24    2    5    5    0    0 -0.27129179991E+01  0.96987526005E+02  0.97383611892E+02  0.15861543471E+03  0.79128680885E+02 0.  0.
          5    1    5    5  501    0  0.45668348508E+02  0.53557668311E+02  0.24859340432E+03  0.25840818981E+03  0.47000000000E+01 0. -1.
        -11    1    6    6    0    0  0.26088520646E+02  0.40877463840E+02  0.79389736376E+02  0.93028534340E+02  0.00000000000E+00 0.  1.
         12    1    6    6    0    0 -0.28801438645E+02  0.56110062165E+02  0.17993875516E+02  0.65586900370E+02  0.00000000000E+00 0. -1.
         -5    1    3    3    0  503  0.44026243258E+02 -0.81604847261E+02 -0.66231656594E+02  0.11404553269E+03  0.47000000000E+01 0.  1.
         11    1    4    4    0    0  0.15865323121E+02 -0.89316232277E+01  0.51073400482E+00  0.18213819491E+02  0.00000000000E+00 0. -1.
        -12    1    4    4    0    0 -0.10284699689E+03 -0.60008723827E+02 -0.24956066936E+02  0.12166082764E+03  0.00000000000E+00 0.  1.
</event>
<event>
12    1  0.1565987E-001  0.1936284E+03  0.7818608E-02  0.1155616E+00
         21   -1    0    0  501  502  0.00000000000E+00  0.00000000000E+00  0.72478573391E+02  0.72478573391E+02  0.00000000000E+00 0. -1.
         21   -1    0    0  502  503 -0.00000000000E+00 -0.00000000000E+00 -0.72408985477E+03  0.72408985477E+03  0.00000000000E+00 0. -1.
         -6    2    1    2    0  503 -0.70624030612E+02  0.51055526281E+02 -0.53999873851E+03  0.57307499889E+03  0.17094413209E+03 0.  0.
        -24    2    3    3    0    0  0.52153761241E+01  0.77069230939E+02 -0.28792465338E+03  0.30851543501E+03  0.79462576800E+02 0.  0.
          6    2    1    2  501    0  0.70624030612E+02 -0.51055526281E+02 -0.11161254287E+03  0.22349342927E+03  0.17290903024E+03 0.  0.
         24    2    5    5    0    0  0.61508634525E+02  0.12699655643E+02 -0.87320523136E+01  0.10202615382E+03  0.79928054847E+02 0.  0.
          5    1    5    5  501    0  0.91153960869E+01 -0.63755181924E+02 -0.10288049055E+03  0.12146727545E+03  0.47000000000E+01 0. -1.
        -13    1    6    6    0    0 -0.31092042441E+00  0.34999808863E+02 -0.96281194568E+01  0.36301294415E+02  0.00000000000E+00 0.  1.
         14    1    6    6    0    0  0.61819554950E+02 -0.22300153220E+02  0.89606714315E+00  0.65724859408E+02  0.00000000000E+00 0. -1.
         -5    1    3    3    0  503 -0.75839406736E+02 -0.26013704658E+02 -0.25207408513E+03  0.26455956388E+03  0.47000000000E+01 0.  1.
         11    1    4    4    0    0 -0.30532423634E+02  0.67047671925E+02 -0.18852108091E+03  0.20240508183E+03  0.00000000000E+00 0. -1.
        -12    1    4    4    0    0  0.35747799758E+02  0.10021559014E+02 -0.99403572469E+02  0.10611035318E+03  0.00000000000E+00 0.  1.
</event>
<event>
12    1  0.1565987E-001  0.2188785E+03  0.7818608E-02  0.1135009E+00
         21   -1    0    0  503  502  0.00000000000E+00  0.00000000000E+00  0.29764859125E+03  0.29764859125E+03  0.00000000000E+00 0.  1.
         21   -1    0    0  501  503 -0.00000000000E+00 -0.00000000000E+00 -0.29771849317E+03  0.29771849317E+03  0.00000000000E+00 0.  1.
          6    2    1    2  501    0 -0.11493417810E+03  0.66626365213E+02 -0.20261987983E+03  0.29826602960E+03  0.17395077141E+03 0.  0.
         24    2    3    3    0    0 -0.11622798228E+03  0.90596992140E+02 -0.21374569891E+03  0.27139339045E+03  0.79059406328E+02 0.  0.
         -6    2    1    2    0  502  0.11493417810E+03 -0.66626365213E+02  0.20254997790E+03  0.29710105482E+03  0.17202792038E+03 0.  0.
        -24    2    5    5    0    0  0.27876454296E+02 -0.75344072819E+02  0.16730649505E+03  0.20265933320E+03  0.81397272896E+02 0.  0.
          5    1    3    3  501    0  0.12938041871E+01 -0.23970626927E+02  0.11125819079E+02  0.26872639147E+02  0.47000000000E+01 0. -1.
        -11    1    4    4    0    0 -0.47177847703E+02 -0.63148616699E+01 -0.50694432167E+02  0.69538135182E+02  0.00000000000E+00 0.  1.
         12    1    4    4    0    0 -0.69050134581E+02  0.96911853810E+02 -0.16305126674E+03  0.20185525527E+03  0.00000000000E+00 0. -1.
         -5    1    5    5    0  502  0.87057723800E+02  0.87177076068E+01  0.35243482857E+02  0.94441721623E+02  0.47000000000E+01 0.  1.
         13    1    6    6    0    0  0.29889389892E+00 -0.14076983159E+02 -0.70926498953E+01  0.15765673946E+02  0.00000000000E+00 0. -1.
        -14    1    6    6    0    0  0.27577560397E+02 -0.61267089660E+02  0.17439914494E+03  0.18689365925E+03  0.00000000000E+00 0.  1.
</event>
<event>
12    1  0.1565987E-001  0.1774209E+03  0.7818608E-02  0.1170567E+00
         21   -1    0    0  501  502  0.00000000000E+00  0.00000000000E+00  0.33865139918E+03  0.33865139918E+03  0.00000000000E+00 0. -1.
         21   -1    0    0  502  503 -0.00000000000E+00 -0.00000000000E+00 -0.33109463077E+03  0.33109463077E+03  0.00000000000E+00 0. -1.
         -6    2    1    2    0  503 -0.34945242040E+02  0.17213015093E+02 -0.28052960592E+03  0.33192627087E+03  0.17309168572E+03 0.  0.
        -24    2    3    3    0    0 -0.27396182132E+02  0.31569873353E+02 -0.29559712256E+03  0.30929382199E+03  0.80856674133E+02 0.  0.
          6    2    1    2  501    0  0.34945242040E+02 -0.17213015093E+02  0.28808637433E+03  0.33781975909E+03  0.17207839123E+03 0.  0.
         24    2    5    5    0    0  0.68251208316E+02  0.38002856029E+02  0.18002653693E+03  0.21189478829E+03  0.79921228729E+02 0.  0.
          5    1    5    5  501    0 -0.33305966276E+02 -0.55215871121E+02  0.10805983740E+03  0.12592497080E+03  0.47000000000E+01 0. -1.
        -13    1    6    6    0    0  0.32527352866E+02 -0.17191757414E+02  0.27915280340E+02  0.46182768257E+02  0.00000000000E+00 0.  1.
         14    1    6    6    0    0  0.35723855450E+02  0.55194613442E+02  0.15211125659E+03  0.16571202003E+03  0.00000000000E+00 0. -1.
         -5    1    3    3    0  503 -0.75490599077E+01 -0.14356858261E+02  0.15067516643E+02  0.22632448882E+02  0.47000000000E+01 0.  1.
         13    1    4    4    0    0  0.26855220075E+02  0.16087934433E+02 -0.14815967328E+03  0.15143088610E+03  0.00000000000E+00 0. -1.
        -14    1    4    4    0    0 -0.54251402207E+02  0.15481938920E+02 -0.14743744928E+03  0.15786293588E+03  0.00000000000E+00 0.  1.
</event>
<event>
12    1  0.1565987E-001  0.1885383E+03  0.7818608E-02  0.1159798E+00
         21   -1    0    0  501  502  0.00000000000E+00  0.00000000000E+00  0.41636916232E+03  0.41636916232E+03  0.00000000000E+00 0.  1.
         21   -1    0    0  502  503 -0.00000000000E+00 -0.00000000000E+00 -0.85814677206E+02  0.85814677206E+02  0.00000000000E+00 0.  1.
         -6    2    1    2    0  503 -0.31137876586E+02  0.71882985466E+02  0.14678664169E+03  0.23890203602E+03  0.17143842532E+03 0.  0.
        -24    2    3    3    0    0 -0.46652957303E+02  0.42110484211E+02  0.16915499537E+03  0.19828734893E+03  0.82186793237E+02 0.  0.
          6    2    1    2  501    0  0.31137876586E+02 -0.71882985466E+02  0.18376784343E+03  0.26328180351E+03  0.17149331423E+03 0.  0.
         24    2    5    5    0    0  0.32071342197E+02  0.25203438836E+02  0.68287727257E+02  0.11233680567E+03  0.79325657232E+02 0.  0.
          5    1    5    5  501    0 -0.93346561115E+00 -0.97086424302E+02  0.11548011617E+03  0.15094499784E+03  0.47000000000E+01 0. -1.
        -11    1    6    6    0    0  0.41168281017E+02  0.69007922383E+01  0.78933810207E+02  0.89291627207E+02  0.00000000000E+00 0.  1.
         12    1    6    6    0    0 -0.90969388201E+01  0.18302646598E+02 -0.10646082950E+02  0.23045178466E+02  0.00000000000E+00 0. -1.
         -5    1    3    3    0  503  0.15515080717E+02  0.29772501255E+02 -0.22368353680E+02  0.40614687085E+02  0.47000000000E+01 0.  1.
         11    1    4    4    0    0 -0.15941787140E+02  0.61852173422E+02  0.12943623297E+03  0.14433838831E+03  0.00000000000E+00 0. -1.
        -12    1    4    4    0    0 -0.30711170163E+02 -0.19741689212E+02  0.39718762397E+02  0.53948960621E+02  0.00000000000E+00 0.  1.
</event>
<event>
12    1  0.1565987E-001  0.2461829E+03  0.7818608E-02  0.1115832E+00
         21   -1    0    0  501  502  0.00000000000E+00  0.00000000000E+00  0.93735036037E+02  0.93735036037E+02  0.00000000000E+00 0. -1.
         21   -1    0    0  502  503 -0.00000000000E+00 -0.00000000000E+00 -0.74878023566E+03  0.74878023566E+03  0.00000000000E+00 0. -1.
         -6    2    1    2    0  503  0.15549232128E+03 -0.81718673718E+02 -0.48396463625E+03  0.54272437230E+03  0.17167460947E+03 0.  0.
        -24    2    3    3    0    0  0.14282980428E+03 -0.10743728423E+03 -0.47306472451E+03  0.51169721743E+03  0.78106886458E+02 0.  0.
          6    2    1    2  501    0 -0.15549232128E+03  0.81718673718E+02 -0.17108056337E+03  0.29979089940E+03  0.17248252255E+03 0.  0.
         24    2    5    5    0    0 -0.48997598063E+02  0.59291436913E+01 -0.13457124077E+02  0.94968006265E+02  0.80011928265E+02 0.  0.
          5    1    5    5  501    0 -0.10649472322E+03  0.75789530027E+02 -0.15762343930E+03  0.20482289313E+03  0.47000000000E+01 0. -1.
        -13    1    6    6    0    0  0.14869209948E+02  0.10020307245E+02 -0.24154698249E+02  0.30082377055E+02  0.00000000000E+00 0.  1.
         14    1    6    6    0    0 -0.63866808011E+02 -0.40911635537E+01  0.10697574172E+02  0.64885629210E+02  0.00000000000E+00 0. -1.
         -5    1    3    3    0  503  0.12662517002E+02  0.25718610515E+02 -0.10899911738E+02  0.31027154873E+02  0.47000000000E+01 0.  1.
         11    1    4    4    0    0  0.27581509938E+02 -0.67570925867E+02 -0.18573266041E+03  0.19955748759E+03  0.00000000000E+00 0. -1.
        -12    1    4    4    0    0  0.11524829434E+03 -0.39866358366E+02 -0.28733206411E+03  0.31213972984E+03  0.00000000000E+00 0.  1.
</event>
<event>
12    1  0.1565987E-001  0.2686501E+03  0.7818608E-02  0.1102221E+00
         21   -1    0    0  501  502  0.00000000000E+00  0.00000000000E+00  0.68804822913E+03  0.68804822913E+03  0.00000000000E+00 0. -1.
         21   -1    0    0  502  503 -0.00000000000E+00 -0.00000000000E+00 -0.10445527730E+03  0.10445527730E+03  0.00000000000E+00 0. -1.
         -6    2    1    2    0  503 -0.42457097989E+02  0.20160193408E+03  0.28839975287E+03  0.39414120198E+03  0.17241497804E+03 0.  0.
        -24    2    3    3    0    0 -0.93820478379E+02  0.11566584254E+03  0.19423649497E+03  0.25662022972E+03  0.77105492858E+02 0.  0.
          6    2    1    2  501    0  0.42457097989E+02 -0.20160193408E+03  0.29519319896E+03  0.39836230444E+03  0.17060936637E+03 0.  0.
         24    2    5    5    0    0  0.90123265127E+02 -0.11029387226E+03  0.19485154865E+03  0.25448818436E+03  0.80685616996E+02 0.  0.
          5    1    5    5  501    0 -0.47666167139E+02 -0.91308061820E+02  0.10034165031E+03  0.14387412009E+03  0.47000000000E+01 0. -1.
        -11    1    6    6    0    0  0.81621867885E+02 -0.10476285260E+03  0.12011636009E+03  0.17906793282E+03  0.00000000000E+00 0.  1.
         12    1    6    6    0    0  0.85013972419E+01 -0.55310196651E+01  0.74735188557E+02  0.75420251539E+02  0.00000000000E+00 0. -1.
         -5    1    3    3    0  503  0.51363380390E+02  0.85936091546E+02  0.94163257902E+02  0.13752097227E+03  0.47000000000E+01 0.  1.
         11    1    4    4    0    0 -0.51436093301E+02  0.10737022108E+03  0.16859423921E+03  0.20639295909E+03  0.00000000000E+00 0. -1.
        -12    1    4    4    0    0 -0.42384385078E+02  0.82956214565E+01  0.25642255760E+02  0.50227270623E+02  0.00000000000E+00 0.  1.
</event>
<event>
12    1  0.1565987E-001  0.2762757E+03  0.7818608E-02  0.1097847E+00
         21   -1    0    0  503  502  0.00000000000E+00  0.00000000000E+00  0.15963236161E+03  0.15963236161E+03  0.00000000000E+00 0.  1.
         21   -1    0    0  501  503 -0.00000000000E+00 -0.00000000000E+00 -0.54644259351E+03  0.54644259351E+03  0.00000000000E+00 0.  1.
          6    2    1    2  501    0  0.81613464012E+02  0.19878015776E+03 -0.31964279813E+03  0.42249233526E+03  0.17364891686E+03 0.  0.
         24    2    3    3    0    0  0.72295049005E+02  0.20378057331E+03 -0.33275654987E+03  0.40500240963E+03  0.80913127221E+02 0.  0.
         -6    2    1    2    0  502 -0.81613464012E+02 -0.19878015776E+03 -0.67167433764E+02  0.28358261986E+03  0.17243355097E+03 0.  0.
        -24    2    5    5    0    0 -0.12372692290E+03 -0.13939907163E+03 -0.47366196904E+02  0.20799270128E+03  0.79227233659E+02 0.  0.
          5    1    3    3  501    0  0.93184150070E+01 -0.50004155495E+01  0.13113751736E+02  0.17489925629E+02  0.47000000000E+01 0. -1.
        -11    1    4    4    0    0  0.59073997171E+02  0.12508316125E+03 -0.14206923777E+03  0.19829070248E+03  0.00000000000E+00 0.  1.
         12    1    4    4    0    0  0.13221051833E+02  0.78697412060E+02 -0.19068731210E+03  0.20671170715E+03  0.00000000000E+00 0. -1.
         -5    1    5    5    0  502  0.42113458893E+02 -0.59381086137E+02 -0.19801236860E+02  0.75589918586E+02  0.47000000000E+01 0.  1.
         11    1    6    6    0    0 -0.14406394795E+02 -0.20947551576E+02 -0.39041293952E+02  0.46589341715E+02  0.00000000000E+00 0. -1.
        -12    1    6    6    0    0 -0.10932052811E+03 -0.11845152005E+03 -0.83249029524E+01  0.16140335956E+03  0.00000000000E+00 0.  1.
</event>
<event>
12    1  0.1565987E-001  0.1762228E+03  0.7818608E-02  0.1171700E+00
         21   -1    0    0  501  502  0.00000000000E+00  0.00000000000E+00  0.43226891538E+03  0.43226891538E+03  0.00000000000E+00 0. -1.
         21   -1    0    0  502  503 -0.00000000000E+00 -0.00000000000E+00 -0.78944288054E+02  0.78944288054E+02  0.00000000000E+00 0. -1.
         -6    2    1    2    0  503  0.47225002239E+01 -0.35559521785E+02  0.98673641752E+02  0.20196775206E+03  0.17253319593E+03 0.  0.
        -24    2    3    3    0    0 -0.25467806689E+02 -0.70387762458E+02  0.10953097200E+03  0.15438169738E+03  0.78953330376E+02 0.  0.
          6    2    1    2  501    0 -0.47225002239E+01  0.35559521785E+02  0.25465098558E+03  0.30924545137E+03  0.17175227260E+03 0.  0.
         24    2    5    5    0    0 -0.51204031233E+02 -0.90532513074E+01  0.20923970147E+03  0.23028275783E+03  0.80901679267E+02 0.  0.
          5    1    5    5  501    0  0.46481531010E+02  0.44612773092E+02  0.45411284111E+02  0.78962693549E+02  0.47000000000E+01 0. -1.
        -13    1    6    6    0    0  0.94016691753E+01 -0.17311101082E+02  0.12292238561E+03  0.12449087713E+03  0.00000000000E+00 0.  1.
         14    1    6    6    0    0 -0.60605700409E+02  0.82578497748E+01  0.86317315856E+02  0.10579188070E+03  0.00000000000E+00 0. -1.
         -5    1    3    3    0  503  0.30190306913E+02  0.34828240673E+02 -0.10857330250E+02  0.47586054680E+02  0.47000000000E+01 0.  1.
         13    1    4    4    0    0  0.16084776050E+02 -0.64190988387E+02  0.58909589065E+02  0.88597644971E+02  0.00000000000E+00 0. -1.
        -14    1    4    4    0    0 -0.41552582738E+02 -0.61967740708E+01  0.50621382937E+02  0.65784052410E+02  0.00000000000E+00 0.  1.
</event>
<event>
12    1  0.1565987E-001  0.2218587E+03  0.7818608E-02  0.1133049E+00
         21   -1    0    0  501  502  0.00000000000E+00  0.00000000000E+00  0.63333211529E+03  0.63333211529E+03  0.00000000000E+00 0. -1.
         21   -1    0    0  502  503 -0.00000000000E+00 -0.00000000000E+00 -0.13846542628E+03  0.13846542628E+03  0.00000000000E+00 0. -1.
         -6    2    1    2    0  503  0.11490518131E+03  0.66432349500E+02 -0.93991770944E+01  0.22205771036E+03  0.17777745765E+03 0.  0.
        -24    2    3    3    0    0  0.12602178624E+03  0.73212601688E+02  0.39534232314E+02  0.17120380902E+03  0.80661099952E+02 0.  0.
          6    2    1    2  501    0 -0.11490518131E+03 -0.66432349500E+02  0.50426586611E+03  0.54973983120E+03  0.17410732477E+03 0.  0.
         24    2    5    5    0    0 -0.10348798268E+03 -0.51130556879E+02  0.51023651975E+03  0.52919144959E+03  0.79863557546E+02 0.  0.
          5    1    5    5  501    0 -0.11417198632E+02 -0.15301792621E+02 -0.59706536448E+01  0.20548381614E+02  0.47000000000E+01 0. -1.
        -13    1    6    6    0    0 -0.10253042598E+01  0.16870280013E+02  0.77450014497E+02  0.79272708684E+02  0.00000000000E+00 0.  1.
         14    1    6    6    0    0 -0.10246267842E+03 -0.68000836892E+02  0.43278650525E+03  0.44991874090E+03  0.00000000000E+00 0. -1.
         -5    1    3    3    0  503 -0.11116604935E+02 -0.67802521884E+01 -0.48933409408E+02  0.50853901338E+02  0.47000000000E+01 0.  1.
         13    1    4    4    0    0  0.11133032169E+03  0.55167106916E+02  0.61999869150E+02  0.13885904359E+03  0.00000000000E+00 0. -1.
        -14    1    4    4    0    0  0.14691464557E+02  0.18045494772E+02 -0.22465636837E+02  0.32344765432E+02  0.00000000000E+00 0.  1.
</event>
<event>
12    1  0.1565987E-001  0.2503226E+03  0.7818608E-02  0.1115067E+00
         21   -1    0    0  503  502  0.00000000000E+00  0.00000000000E+00  0.16200971883E+04  0.16200971883E+04  0.00000000000E+00 0.  1.
         21   -1    0    0  501  503 -0.00000000000E+00 -0.00000000000E+00 -0.58828138130E+02  0.58828138130E+02  0.00000000000E+00 0. -1.
          6    2    1    2  501    0  0.14030371537E+03  0.10884617457E+03  0.25519127611E+03  0.34907551097E+03  0.15874036251E+03 0.  0.
         24    2    3    3    0    0  0.71818628761E+02  0.10911533133E+03  0.23279069723E+03  0.27686640166E+03  0.73480777629E+02 0.  0.
         -6    2    1    2    0  502 -0.14030371537E+03 -0.10884617457E+03  0.13060777741E+04  0.13298498155E+04  0.17643343654E+03 0.  0.
        -24    2    5    5    0    0  0.99769610353E+01 -0.31670449255E+02  0.34223553471E+03  0.35130276670E+03  0.72013301331E+02 0.  0.
          5    1    3    3  501    0  0.68485086610E+02 -0.26915676151E+00  0.22400578878E+02  0.72209109310E+02  0.47000000000E+01 0. -1.
        -13    1    4    4    0    0  0.38289805213E+01  0.16039961307E+02  0.98596932921E+02  0.99966477541E+02  0.00000000000E+00 0.  1.
         14    1    4    4    0    0  0.67989648240E+02  0.93075370021E+02  0.13419376431E+03  0.17689992411E+03  0.00000000000E+00 0. -1.
         -5    1    5    5    0  502 -0.15028067641E+03 -0.77175725311E+02  0.96384223938E+03  0.97854704879E+03  0.47000000000E+01 0.  1.
         11    1    6    6    0    0 -0.45559913461E+01 -0.99757043443E+01  0.34275391809E+01  0.11489985167E+02  0.00000000000E+00 0. -1.
        -12    1    6    6    0    0  0.14532952381E+02 -0.21694744911E+02  0.33880799553E+03  0.33981278154E+03  0.00000000000E+00 0.  1.
</event>
<event>
12    1  0.1565987E-001  0.1966314E+03  0.7818608E-02  0.1153167E+00
         21   -1    0    0  503  502  0.00000000000E+00  0.00000000000E+00  0.39525347407E+02  0.39525347407E+02  0.00000000000E+00 0. -1.
         21   -1    0    0  501  503 -0.00000000000E+00 -0.00000000000E+00 -0.11372925178E+04  0.11372925178E+04  0.00000000000E+00 0. -1.
          6    2    1    2  501    0 -0.56777460064E+02  0.75668715306E+02 -0.78057921801E+03  0.80496447739E+03  0.17237882650E+03 0.  0.
         24    2    3    3    0    0 -0.63625221666E+02  0.23739465036E+01 -0.61902495602E+03  0.62736694210E+03  0.79646590732E+02 0.  0.
         -6    2    1    2    0  502  0.56777460064E+02 -0.75668715306E+02 -0.31718795242E+03  0.37185338786E+03  0.16946182594E+03 0.  0.
        -24    2    5    5    0    0  0.98828234957E+02 -0.45416531854E+02 -0.17986455966E+03  0.22500902646E+03  0.80300191644E+02 0.  0.
          5    1    3    3  501    0  0.68477616021E+01  0.73294768803E+02 -0.16155426199E+03  0.17759753529E+03  0.47000000000E+01 0. -1.
        -13    1    4    4    0    0  0.14241355523E+02 -0.12198907022E+02 -0.63140008314E+02  0.65865698126E+02  0.00000000000E+00 0.  1.
         14    1    4    4    0    0 -0.77866577189E+02  0.14572853526E+02 -0.55588494770E+03  0.56150124398E+03  0.00000000000E+00 0. -1.
         -5    1    5    5    0  502 -0.42050774893E+02 -0.30252183452E+02 -0.13732339277E+03  0.14684436140E+03  0.47000000000E+01 0.  1.
         11    1    6    6    0    0  0.22043364843E+02 -0.50100006366E+02 -0.10076005864E+03  0.11466695247E+03  0.00000000000E+00 0. -1.
        -12    1    6    6    0    0  0.76784870113E+02  0.46834745122E+01 -0.79104501023E+02  0.11034207400E+03  0.00000000000E+00 0.  1.
</event>
<event>
12    1  0.1565987E-001  0.1822412E+03  0.7818608E-02  0.1165702E+00
         21   -1    0    0  503  502  0.00000000000E+00  0.00000000000E+00  0.97671396423E+02  0.97671396423E+02  0.00000000000E+00 0.  1.
         21   -1    0    0  501  503 -0.00000000000E+00 -0.00000000000E+00 -0.36020432924E+03  0.36020432924E+03  0.00000000000E+00 0.  1.
          6    2    1    2  501    0  0.51950960858E+02 -0.31280231230E+02 -0.18589729661E+03  0.26017675228E+03  0.17162978279E+03 0.  0.
         24    2    3    3    0    0  0.10128190236E+03 -0.16383245911E+02 -0.12938044845E+03  0.18354969383E+03  0.80154570489E+02 0.  0.
         -6    2    1    2    0  502 -0.51950960858E+02  0.31280231230E+02 -0.76635636209E+02  0.19769897338E+03  0.17185606809E+03 0.  0.
        -24    2    5    5    0    0 -0.90804417847E+01  0.97443512324E+01 -0.11295625523E+03  0.13734209392E+03  0.76982649747E+02 0.  0.
          5    1    3    3  501    0 -0.49330941505E+02 -0.14896985319E+02 -0.56516848160E+02  0.76627058454E+02  0.47000000000E+01 0. -1.
        -11    1    4    4    0    0  0.40504517330E+02  0.31921127933E+02 -0.62909307921E+02  0.81345899440E+02  0.00000000000E+00 0.  1.
         12    1    4    4    0    0  0.60777385033E+02 -0.48304373844E+02 -0.66471140529E+02  0.10220379439E+03  0.00000000000E+00 0. -1.
         -5    1    5    5    0  502 -0.42870519073E+02  0.21535879998E+02  0.36320619020E+02  0.60356879466E+02  0.47000000000E+01 0.  1.
         13    1    6    6    0    0  0.15158163347E+02  0.30458350725E+02 -0.20918761622E+02  0.39938397975E+02  0.00000000000E+00 0. -1.
        -14    1    6    6    0    0 -0.24238605132E+02 -0.20713999493E+02 -0.92037493607E+02  0.97403695942E+02  0.00000000000E+00 0.  1.
</event>
<event>
12    1  0.1565987E-001  0.2805681E+03  0.7818608E-02  0.1095503E+00
         21   -1    0    0  503  502  0.00000000000E+00  0.00000000000E+00  0.68717257341E+03  0.68717257341E+03  0.00000000000E+00 0. -1.
         21   -1    0    0  501  503 -0.00000000000E+00 -0.00000000000E+00 -0.23312148324E+03  0.23312148324E+03  0.00000000000E+00 0.  1.
          6    2    1    2  501    0  0.19450763796E+03  0.10672732838E+03 -0.10146766175E+03  0.29835242477E+03  0.17173974245E+03 0.  0.
         24    2    3    3    0    0  0.10024472337E+03  0.12975702862E+03 -0.54266809405E+02  0.19034374631E+03  0.79999775738E+02 0.  0.
         -6    2    1    2    0  502 -0.19450763796E+03 -0.10672732838E+03  0.55551875192E+03  0.62194163189E+03  0.17025382784E+03 0.  0.
        -24    2    5    5    0    0 -0.21017283095E+03 -0.11083204357E+03  0.54930312647E+03  0.60397023912E+03  0.81177362877E+02 0.  0.
          5    1    3    3  501    0  0.94262914588E+02 -0.23029700240E+02 -0.47200852341E+02  0.10800867845E+03  0.47000000000E+01 0. -1.
        -11    1    4    4    0    0  0.31199606122E+02 -0.41209551910E+00 -0.25312765628E+02  0.40178618053E+02  0.00000000000E+00 0.  1.
         12    1    4    4    0    0  0.69045117249E+02  0.13016912414E+03 -0.28954043777E+02  0.15016512826E+03  0.00000000000E+00 0. -1.
         -5    1    5    5    0  502  0.15665192989E+02  0.41047151923E+01  0.62156254474E+01  0.17971392765E+02  0.47000000000E+01 0.  1.
         13    1    6    6    0    0 -0.17366550193E+02 -0.22986080964E+02  0.14158868542E+03  0.14448983640E+03  0.00000000000E+00 0. -1.
        -14    1    6    6    0    0 -0.19280628075E+03 -0.87845962606E+02  0.40771444105E+03  0.45948040272E+03  0.00000000000E+00 0.  1.
</event>
<event>
12    1  0.1565987E-001  0.1915798E+03  0.7818608E-02  0.1157225E+00
         21   -1    0    0  503  502  0.00000000000E+00  0.00000000000E+00  0.16597580033E+03  0.16597580033E+03  0.00000000000E+00 0.  1.
         21   -1    0    0  501  503 -0.00000000000E+00 -0.00000000000E+00 -0.38329006835E+03  0.38329006835E+03  0.00000000000E+00 0.  1.
          6    2    1    2  501    0 -0.21114389471E+01  0.83602230338E+02 -0.28766935792E+03  0.34517600720E+03  0.17146143988E+03 0.  0.
         24    2    3    3    0    0 -0.12925782851E+02 -0.21340452082E+02 -0.13570155317E+03  0.16011866390E+03  0.81243979712E+02 0.  0.
         -6    2    1    2    0  502  0.21114389471E+01 -0.83602230338E+02  0.70355089897E+02  0.20408986149E+03  0.17236311031E+03 0.  0.
        -24    2    5    5    0    0  0.18468727170E+02 -0.73884608630E+02  0.11267656327E+03  0.15745092755E+03  0.79339507183E+02 0.  0.
          5    1    3    3  501    0  0.10814343904E+02  0.10494268242E+03 -0.15196780475E+03  0.18505734330E+03  0.47000000000E+01 0. -1.
        -11    1    4    4    0    0  0.13500260664E+02  0.26747860426E+01 -0.12054326981E+03  0.12132638384E+03  0.00000000000E+00 0.  1.
         12    1    4    4    0    0 -0.26426043516E+02 -0.24015238124E+02 -0.15158283357E+02  0.38792280062E+02  0.00000000000E+00 0. -1.
         -5    1    5    5    0  502 -0.16357288223E+02 -0.97176217079E+01 -0.42321473377E+02  0.46638933934E+02  0.47000000000E+01 0.  1.
         13    1    6    6    0    0  0.10568864910E+02 -0.65366245448E+01 -0.10875520753E+02  0.16513791738E+02  0.00000000000E+00 0. -1.
        -14    1    6    6    0    0  0.78998622605E+01 -0.67347984085E+02  0.12355208403E+03  0.14093713581E+03  0.00000000000E+00 0.  1.
</event>
<event>
12    1  0.1565987E-001  0.2144673E+03  0.7818608E-02  0.1138214E+00
         21   -1    0    0  501  502  0.00000000000E+00  0.00000000000E+00  0.93903699958E+02  0.93903699958E+02  0.00000000000E+00 0.  1.
         21   -1    0    0  502  503 -0.00000000000E+00 -0.00000000000E+00 -0.94817758239E+03  0.94817758239E+03  0.00000000000E+00 0. -1.
         -6    2    1    2    0  503  0.64740866965E+02  0.11069403524E+03 -0.79041433616E+03  0.81899392404E+03  0.17190600778E+03 0.  0.
        -24    2    3    3    0    0  0.37526077337E+01  0.36108656034E+02 -0.17049736977E+03  0.19161709806E+03  0.79560304584E+02 0.  0.
          6    2    1    2  501    0 -0.64740866965E+02 -0.11069403524E+03 -0.63859546275E+02  0.22308735831E+03  0.17101280214E+03 0.  0.
         24    2    5    5    0    0  0.26196958322E+02 -0.22657267144E+02 -0.27707850058E+02  0.91371012538E+02  0.79883068279E+02 0.  0.
          5    1    5    5  501    0 -0.90937825286E+02 -0.88036768097E+02 -0.36151696217E+02  0.13171634577E+03  0.47000000000E+01 0. -1.
        -11    1    6    6    0    0  0.16729272994E+02 -0.82258490706E+01  0.27670940452E+02  0.33364863455E+02  0.00000000000E+00 0.  1.
         12    1    6    6    0    0  0.94676853271E+01 -0.14431418073E+02 -0.55378790510E+02  0.58006149083E+02  0.00000000000E+00 0. -1.
         -5    1    3    3    0  503  0.60988259231E+02  0.74585379207E+02 -0.61991696639E+03  0.62737682597E+03  0.47000000000E+01 0.  1.
         11    1    4    4    0    0 -0.50225487068E+01  0.30687974646E+02 -0.17681038836E+03  0.17952406863E+03  0.00000000000E+00 0. -1.
        -12    1    4    4    0    0  0.87751564405E+01  0.54206813874E+01  0.63130185894E+01  0.12093029437E+02  0.00000000000E+00 0.  1.
</event>
<event>
12    1  0.1565987E-001  0.1767628E+03  0.7818608E-02  0.1171001E+00
         21   -1    0    0  503  502  0.00000000000E+00  0.00000000000E+00  0.17472220491E+03  0.17472220491E+03  0.00000000000E+00 0.  1.
         21   -1    0    0  501  503 -0.00000000000E+00 -0.00000000000E+00 -0.19436556172E+03  0.19436556172E+03  0.00000000000E+00 0.  1.
          6    2    1    2  501    0 -0.42486038145E+02  0.44947085950E+00 -0.62195139891E+02  0.18738553372E+03  0.17158041077E+03 0.  0.
         24    2    3    3    0    0 -0.93926124248E+02 -0.11478902956E+02 -0.39541775237E+02  0.12973457110E+03  0.79458321912E+02 0.  0.
         -6    2    1    2    0  502  0.42486038145E+02 -0.44947085950E+00  0.42551783083E+02  0.18170223292E+03  0.17146364554E+03 0.  0.
        -24    2    5    5    0    0  0.55939571926E+02  0.39182732165E+02 -0.18867248882E+02  0.10723011347E+03  0.80484793264E+02 0.  0.
          5    1    3    3  501    0  0.51440086103E+02  0.11928373815E+02 -0.22653364654E+02  0.57650962614E+02  0.47000000000E+01 0. -1.
        -13    1    4    4    0    0 -0.87592236245E+02  0.19372947315E+02 -0.40031159498E+02  0.98235455253E+02  0.00000000000E+00 0.  1.
         14    1    4    4    0    0 -0.63338880029E+01 -0.30851850271E+02  0.48938426020E+00  0.31499115850E+02  0.00000000000E+00 0. -1.
         -5    1    5    5    0  502 -0.13453533781E+02 -0.39632203025E+02  0.61419031965E+02  0.74472119450E+02  0.47000000000E+01 0.  1.
         11    1    6    6    0    0  0.15697571111E+02  0.54839796991E+02  0.60728375472E+01  0.57364592117E+02  0.00000000000E+00 0. -1.
        -12    1    6    6    0    0  0.40242000815E+02 -0.15657064826E+02 -0.24940086429E+02  0.49865521351E+02  0.00000000000E+00 0.  1.
</event>
<event>
12    1  0.1565987E-001  0.1882135E+03  0.7818608E-02  0.1160600E+00
         21   -1    0    0  503  502  0.00000000000E+00  0.00000000000E+00  0.69978424178E+02  0.69978424178E+02  0.00000000000E+00 0.  1.
         21   -1    0    0  501  503 -0.00000000000E+00 -0.00000000000E+00 -0.76986265490E+03  0.76986265490E+03  0.00000000000E+00 0. -1.
          6    2    1    2  501    0  0.88663882966E+01 -0.76006374092E+02 -0.59710580982E+03  0.62539354923E+03  0.16948793926E+03 0.  0.
         24    2    3    3    0    0 -0.28750542990E+02  0.43521378538E+01 -0.40319303600E+03  0.41209381221E+03  0.80069663165E+02 0.  0.
         -6    2    1    2    0  502 -0.88663882966E+01  0.76006374092E+02 -0.10277842090E+03  0.21444752984E+03  0.17195568473E+03 0.  0.
        -24    2    5    5    0    0  0.47684522115E+02 -0.12535698149E+01 -0.51449630315E+02  0.10571005174E+03  0.79070636101E+02 0.  0.
          5    1    3    3  501    0  0.37616931287E+02 -0.80358511946E+02 -0.19391277382E+03  0.21329973702E+03  0.47000000000E+01 0. -1.
        -13    1    4    4    0    0 -0.22121708471E+02  0.16586733386E+02 -0.39953096964E+02  0.48587443513E+02  0.00000000000E+00 0.  1.
         14    1    4    4    0    0 -0.66288345197E+01 -0.12234595533E+02 -0.36323993904E+03  0.36350636870E+03  0.00000000000E+00 0. -1.
         -5    1    5    5    0  502 -0.56550910412E+02  0.77259943907E+02 -0.51328790585E+02  0.10873747810E+03  0.47000000000E+01 0.  1.
         11    1    6    6    0    0 -0.12541112615E+02 -0.33044744728E+01 -0.42934904452E+02  0.44850920587E+02  0.00000000000E+00 0. -1.
        -12    1    6    6    0    0  0.60225634730E+02  0.20509046579E+01 -0.85147258627E+01  0.60859131156E+02  0.00000000000E+00 0.  1.
</event>
<event>
12    1  0.1565987E-001  0.2345923E+03  0.7818608E-02  0.1124732E+00
         21   -1    0    0  503  502  0.00000000000E+00  0.00000000000E+00  0.49418402896E+03  0.49418402896E+03  0.00000000000E+00 0.  1.
         21   -1    0    0  501  503 -0.00000000000E+00 -0.00000000000E+00 -0.11523364443E+03  0.11523364443E+03  0.00000000000E+00 0. -1.
          6    2    1    2  501    0 -0.14877930461E+03  0.51944344597E+02  0.11542854068E+03  0.26145231223E+03  0.17378166517E+03 0.  0.
         24    2    3    3    0    0 -0.14617984187E+03  0.89756714630E+02  0.11838428184E+03  0.22314619078E+03  0.79715558616E+02 0.  0.
         -6    2    1    2    0  502  0.14877930461E+03 -0.51944344597E+02  0.26352184385E+03  0.34796536116E+03  0.16371509999E+03 0.  0.
        -24    2    5    5    0    0  0.33640412327E+02 -0.19006878725E+02  0.18495539863E+03  0.20465933376E+03  0.78638442453E+02 0.  0.
          5    1    3    3  501    0 -0.25994627465E+01 -0.37812370033E+02 -0.29557411641E+01  0.38306121441E+02  0.47000000000E+01 0. -1.
        -13    1    4    4    0    0 -0.36724362828E+02  0.67075693312E+02  0.37500226204E+02  0.85170971720E+02  0.00000000000E+00 0.  1.
         14    1    4    4    0    0 -0.10945547904E+03  0.22681021317E+02  0.80884055639E+02  0.13797521906E+03  0.00000000000E+00 0. -1.
         -5    1    5    5    0  502  0.11513889228E+03 -0.32937465872E+02  0.78566445219E+02  0.14330602740E+03  0.47000000000E+01 0.  1.
         11    1    6    6    0    0  0.51150247382E+01  0.33700098327E+01 -0.70049143265E+01  0.93053355161E+01  0.00000000000E+00 0. -1.
        -12    1    6    6    0    0  0.28525387589E+02 -0.22376888558E+02  0.19196031296E+03  0.19535399825E+03  0.00000000000E+00 0.  1.
</event>
<event>
12    1  0.1565987E-001  0.1777091E+03  0.7818608E-02  0.1170527E+00
         21   -1    0    0  501  502  0.00000000000E+00  0.00000000000E+00  0.17059391297E+03  0.17059391297E+03  0.00000000000E+00 0. -1.
         21   -1    0    0  502  503 -0.00000000000E+00 -0.00000000000E+00 -0.19271983331E+03  0.19271983331E+03  0.00000000000E+00 0. -1.
         -6    2    1    2    0  503  0.36064620759E+02 -0.10576743486E+02 -0.51646598439E+02  0.18316936108E+03  0.17167154492E+03 0.  0.
        -24    2    3    3    0    0  0.43749176125E+01  0.32400398189E+02 -0.83737966471E+02  0.12069362264E+03  0.80535568597E+02 0.  0.
          6    2    1    2  501    0 -0.36064620759E+02  0.10576743486E+02  0.29520678094E+02  0.18014438520E+03  0.17368939148E+03 0.  0.
         24    2    5    5    0    0 -0.31277355637E+02  0.34368269309E+02  0.80182544658E+02  0.12377356534E+03  0.82043915668E+02 0.  0.
          5    1    5    5  501    0 -0.47872651228E+01 -0.23791525823E+02 -0.50661866563E+02  0.56370819863E+02  0.47000000000E+01 0. -1.
        -11    1    6    6    0    0 -0.32364578827E+02  0.18168977061E+02 -0.46459008396E+01  0.37405375078E+02  0.00000000000E+00 0.  1.
         12    1    6    6    0    0  0.10872231904E+01  0.16199292248E+02  0.84828445497E+02  0.86368190262E+02  0.00000000000E+00 0. -1.
         -5    1    3    3    0  503  0.31689703147E+02 -0.42977141675E+02  0.32091368032E+02  0.62475738445E+02  0.47000000000E+01 0.  1.
         11    1    4    4    0    0 -0.32989020213E+02  0.27536161098E+02 -0.21773899908E+02  0.48172796679E+02  0.00000000000E+00 0. -1.
        -12    1    4    4    0    0  0.37363937826E+02  0.48642370904E+01 -0.61964066564E+02  0.72520825957E+02  0.00000000000E+00 0.  1.
</event>
<event>
12    1  0.1565987E-001  0.1729181E+03  0.7818608E-02  0.1175151E+00
         21   -1    0    0  503  502  0.00000000000E+00  0.00000000000E+00  0.53640039837E+02  0.53640039837E+02  0.00000000000E+00 0. -1.
         21   -1    0    0  501  503 -0.00000000000E+00 -0.00000000000E+00 -0.79344487211E+03  0.79344487211E+03  0.00000000000E+00 0. -1.
          6    2    1    2  501    0  0.11554251219E+02  0.12032293105E+02 -0.60189915846E+03  0.62590931528E+03  0.17088474829E+03 0.  0.
         24    2    3    3    0    0  0.73086255813E+02  0.18977840821E+02 -0.39149728157E+03  0.40653413888E+03  0.79360729355E+02 0.  0.
         -6    2    1    2    0  502 -0.11554251219E+02 -0.12032293105E+02 -0.13790567381E+03  0.22117559666E+03  0.17211157106E+03 0.  0.
        -24    2    5    5    0    0 -0.59902241328E+02  0.21794982235E+02 -0.12260729339E+03  0.16003687613E+03  0.80721456654E+02 0.  0.
          5    1    3    3  501    0 -0.61532004594E+02 -0.69455477164E+01 -0.21040187689E+03  0.21937517640E+03  0.47000000000E+01 0. -1.
        -13    1    4    4    0    0  0.12086760774E+02 -0.18678370981E+02 -0.26673096920E+02  0.34733635396E+02  0.00000000000E+00 0.  1.
         14    1    4    4    0    0  0.60999495039E+02  0.37656211802E+02 -0.36482418465E+03  0.37180050348E+03  0.00000000000E+00 0. -1.
         -5    1    5    5    0  502  0.48347990109E+02 -0.33827275340E+02 -0.15298380421E+02  0.61138720530E+02  0.47000000000E+01 0.  1.
         13    1    6    6    0    0 -0.31702744034E+02  0.22164759599E+02 -0.48922645115E+01  0.38990701448E+02  0.00000000000E+00 0. -1.
        -14    1    6    6    0    0 -0.28199497294E+02 -0.36977736390E+00 -0.11771502888E+03  0.12104617469E+03  0.00000000000E+00 0.  1.
</event>
<event>
12    1  0.1565987E-001  0.1823710E+03  0.7818608E-02  0.1166048E+00
         21   -1    0    0  501  502  0.00000000000E+00  0.00000000000E+00  0.26117069640E+03  0.26117069640E+03  0.00000000000E+00 0. -1.
         21   -1    0    0  502  503 -0.00000000000E+00 -0.00000000000E+00 -0.12813908976E+03  0.12813908976E+03  0.00000000000E+00 0. -1.
         -6    2    1    2    0  503  0.28760492766E+02  0.50804629243E+02  0.93022232159E+02  0.20472494029E+03  0.17277409876E+03 0.  0.
        -24    2    3    3    0    0 -0.46757860427E+02  0.13942372765E+02  0.73143585573E+02  0.11824316064E+03  0.79061834390E+02 0.  0.
          6    2    1    2  501    0 -0.28760492766E+02 -0.50804629243E+02  0.40009374489E+02  0.18458484587E+03  0.17047738554E+03 0.  0.
         24    2    5    5    0    0 -0.13224875748E+02 -0.59143669241E+02  0.88805435220E+02  0.13248839180E+03  0.77420266639E+02 0.  0.
          5    1    5    5  501    0 -0.15535617018E+02  0.83390399988E+01 -0.48796060730E+02  0.52096454073E+02  0.47000000000E+01 0. -1.
        -11    1    6    6    0    0 -0.39149100739E+02 -0.52326573940E+02  0.39481711338E+02  0.76351345497E+02  0.00000000000E+00 0.  1.
         12    1    6    6    0    0  0.25924224991E+02 -0.68170953010E+01  0.49323723882E+02  0.56137046300E+02  0.00000000000E+00 0. -1.
         -5    1    3    3    0  503  0.75518353193E+02  0.36862256478E+02  0.19878646587E+02  0.86481779651E+02  0.47000000000E+01 0.  1.
         13    1    4    4    0    0  0.80720957469E+01  0.19898440715E+02  0.56794616504E+02  0.60718490895E+02  0.00000000000E+00 0. -1.
        -14    1    4    4    0    0 -0.54829956174E+02 -0.59560679502E+01  0.16348969068E+02  0.57524669743E+02  0.00000000000E+00 0.  1.
</event>
<event>
12    1  0.1565987E-001  0.2770751E+03  0.7818608E-02  0.1097417E+00
         21   -1    0    0  501  502  0.00000000000E+00  0.00000000000E+00  0.99726457280E+02  0.99726457280E+02  0.00000000000E+00 0.  1.
         21   -1    0    0  502  503 -0.00000000000E+00 -0.00000000000E+00 -0.78844699181E+03  0.78844699181E+03  0.00000000000E+00 0. -1.
         -6    2    1    2    0  503  0.71334453803E+02 -0.20503381479E+03 -0.41636241683E+03  0.49965119878E+03  0.17078111365E+03 0.  0.
        -24    2    3    3    0    0  0.10266050352E+03 -0.11516866792E+03 -0.31894352748E+03  0.36338089381E+03  0.80732268681E+02 0.  0.
          6    2    1    2  501    0 -0.71334453803E+02  0.20503381479E+03 -0.27235811770E+03  0.38852225032E+03  0.17217178981E+03 0.  0.
         24    2    5    5    0    0 -0.32109746976E+02  0.21545411891E+03 -0.20102586386E+03  0.30631798764E+03  0.77251526905E+02 0.  0.
          5    1    5    5  501    0 -0.39224706827E+02 -0.10420304117E+02 -0.71332253840E+02  0.82204262672E+02  0.47000000000E+01 0. -1.
        -13    1    6    6    0    0 -0.17132551015E+02  0.67513285502E+02 -0.20849996860E+02  0.72706879954E+02  0.00000000000E+00 0.  1.
         14    1    6    6    0    0 -0.14977195961E+02  0.14794083341E+03 -0.18017586700E+03  0.23361110769E+03  0.00000000000E+00 0. -1.
         -5    1    3    3    0  503 -0.31326049721E+02 -0.89865146876E+02 -0.97418889351E+02  0.13627030497E+03  0.47000000000E+01 0.  1.
         13    1    4    4    0    0 -0.82227667019E+01 -0.37638409770E+02 -0.79896241744E+02  0.88699905451E+02  0.00000000000E+00 0. -1.
        -14    1    4    4    0    0  0.11088327023E+03 -0.77530258145E+02 -0.23904728574E+03  0.27468098836E+03  0.00000000000E+00 0.  1.
</event>
<event>
12    1  0.1565987E-001  0.2116400E+03  0.7818608E-02  0.1140437E+00
         21   -1    0    0  503  502  0.00000000000E+00  0.00000000000E+00  0.94690269985E+02  0.94690269985E+02  0.00000000000E+00 0.  1.
         21   -1    0    0  501  503 -0.00000000000E+00 -0.00000000000E+00 -0.61318530638E+03  0.61318530638E+03  0.00000000000E+00 0.  1.
          6    2    1    2  501    0  0.12338387690E+03  0.27824373750E+02 -0.89310825217E+02  0.22971272102E+03  0.16968716465E+03 0.  0.
         24    2    3    3    0    0  0.11091590509E+03 -0.12261532540E+02 -0.66257234374E+01  0.13686205457E+03  0.78959727640E+02 0.  0.
         -6    2    1    2    0  502 -0.12338387690E+03 -0.27824373750E+02 -0.42918421118E+03  0.47816285535E+03  0.16865008821E+03 0.  0.
        -24    2    5    5    0    0 -0.86218199979E+02  0.43636207319E+02 -0.30778141837E+03  0.33239375611E+03  0.80115610310E+02 0.  0.
          5    1    3    3  501    0  0.12467971809E+02  0.40085906290E+02 -0.82685101780E+02  0.92850666451E+02  0.47000000000E+01 0. -1.
        -11    1    4    4    0    0  0.69646292855E+02 -0.12008418922E+02 -0.42252544072E+02  0.82341275883E+02  0.00000000000E+00 0.  1.
         12    1    4    4    0    0  0.41269612233E+02 -0.25311361800E+00  0.35626820635E+02  0.54520778689E+02  0.00000000000E+00 0. -1.
         -5    1    5    5    0  502 -0.37165676918E+02 -0.71460581069E+02 -0.12140279282E+03  0.14576909923E+03  0.47000000000E+01 0.  1.
         11    1    6    6    0    0 -0.18087956180E+02  0.51107760804E+02 -0.10221621615E+03  0.11570363960E+03  0.00000000000E+00 0. -1.
        -12    1    6    6    0    0 -0.68130243798E+02 -0.74715534852E+01 -0.20556520222E+03  0.21669011651E+03  0.00000000000E+00 0.  1.
</event>
<event>
12    1  0.1565987E-001  0.1733303E+03  0.7818608E-02  0.1174608E+00
         21   -1    0    0  501  502  0.00000000000E+00  0.00000000000E+00  0.13500463966E+03  0.13500463966E+03  0.00000000000E+00 0.  1.
         21   -1    0    0  502  503 -0.00000000000E+00 -0.00000000000E+00 -0.69977955782E+03  0.69977955782E+03  0.00000000000E+00 0.  1.
         -6    2    1    2    0  503 -0.16662784626E+02 -0.91713294655E+01 -0.62761851668E+03  0.65111319799E+03  0.17228358148E+03 0.  0.
        -24    2    3    3    0    0  0.19021161718E+02  0.44649398785E+02 -0.23638282285E+03  0.25455617442E+03  0.81034767810E+02 0.  0.
          6    2    1    2  501    0  0.16662784626E+02  0.91713294655E+01  0.62843598516E+02  0.18367099950E+03  0.17153412636E+03 0.  0.
         24    2    5    5    0    0  0.53964148941E+02 -0.36430076026E+02  0.10613593513E+02  0.10479804225E+03  0.81429119373E+02 0.  0.
          5    1    5    5  501    0 -0.37301364314E+02  0.45601405491E+02  0.52230005004E+02  0.78872957249E+02  0.47000000000E+01 0. -1.
        -11    1    6    6    0    0  0.68482105821E+02 -0.40540369998E+02  0.25534002593E+02  0.83578141315E+02  0.00000000000E+00 0.  1.
         12    1    6    6    0    0 -0.14517956881E+02  0.41102939726E+01 -0.14920409080E+02  0.21219900934E+02  0.00000000000E+00 0. -1.
         -5    1    3    3    0  503 -0.35683946344E+02 -0.53820728250E+02 -0.39123569383E+03  0.39655702357E+03  0.47000000000E+01 0.  1.
         11    1    4    4    0    0  0.16191718590E+02 -0.32540347734E+01 -0.36321091286E+01  0.16910136307E+02  0.00000000000E+00 0. -1.
        -12    1    4    4    0    0  0.28294431283E+01  0.47903433558E+02 -0.23275071372E+03  0.23764603811E+03  0.00000000000E+00 0.  1.
</event>
<event>
12    1  0.1565987E-001  0.1795603E+03  0.7818608E-02  0.1168326E+00
         21   -1    0    0  503  502  0.00000000000E+00  0.00000000000E+00  0.76471842765E+03  0.76471842765E+03  0.00000000000E+00 0. -1.
         21   -1    0    0  501  503 -0.00000000000E+00 -0.00000000000E+00 -0.61131065050E+02  0.61131065050E+02  0.00000000000E+00 0. -1.
          6    2    1    2  501    0 -0.37516455192E+02 -0.32026110559E+02  0.12093604680E+03  0.21615740270E+03  0.17223628874E+03 0.  0.
         24    2    3    3    0    0 -0.69118164464E+01  0.44168665098E+02  0.90233831150E+02  0.12836786006E+03  0.79608536166E+02 0.  0.
         -6    2    1    2    0  502  0.37516455192E+02  0.32026110559E+02  0.58265131580E+03  0.60969209000E+03  0.17265205658E+03 0.  0.
        -24    2    5    5    0    0  0.29035664344E+02  0.63316852131E+02  0.55975958065E+03  0.56972765757E+03  0.80042002103E+02 0.  0.
          5    1    3    3  501    0 -0.30604638746E+02 -0.76194775657E+02  0.30702215655E+02  0.87789542636E+02  0.47000000000E+01 0. -1.
        -11    1    4    4    0    0 -0.40728326763E+02  0.16970524373E+02  0.63744376787E+02  0.77525098325E+02  0.00000000000E+00 0.  1.
         12    1    4    4    0    0  0.33816510316E+02  0.27198140724E+02  0.26489454363E+02  0.50842761739E+02  0.00000000000E+00 0. -1.
         -5    1    5    5    0  502  0.84807908485E+01 -0.31290741573E+02  0.22891735145E+02  0.39964432431E+02  0.47000000000E+01 0.  1.
         13    1    6    6    0    0  0.18718292412E+02 -0.87812017303E+01  0.41393217474E+02  0.46269670709E+02  0.00000000000E+00 0. -1.
        -14    1    6    6    0    0  0.10317371931E+02  0.72098053862E+02  0.51836636318E+03  0.52345798686E+03  0.00000000000E+00 0.  1.
</event>
<event>
12    1  0.1565987E-001  0.1894123E+03  0.7818608E-02  0.1159008E+00
         21   -1    0    0  501  502  0.00000000000E+00  0.00000000000E+00  0.11928268817E+03  0.11928268817E+03  0.00000000000E+00 0.  1.
         21   -1    0    0  502  503 -0.00000000000E+00 -0.00000000000E+00 -0.32967148922E+03  0.32967148922E+03  0.00000000000E+00 0. -1.
         -6    2    1    2    0  503  0.39781093081E+02  0.69234068065E+02 -0.17179914280E+03  0.25571853630E+03  0.17175893803E+03 0.  0.
        -24    2    3    3    0    0  0.51464050335E+02  0.10241050827E+03 -0.17071900620E+03  0.22021608047E+03  0.78826913786E+02 0.  0.
          6    2    1    2  501    0 -0.39781093081E+02 -0.69234068065E+02 -0.38589658246E+02  0.19323564109E+03  0.17168272981E+03 0.  0.
         24    2    5    5    0    0 -0.10060273188E+02  0.25048144890E+02  0.65998387803E+01  0.84439301736E+02  0.79735933848E+02 0.  0.
          5    1    5    5  501    0 -0.29720819893E+02 -0.94282212955E+02 -0.45189497026E+02  0.10879633935E+03  0.47000000000E+01 0. -1.
        -13    1    6    6    0    0 -0.31537238483E+02  0.39457739609E+02  0.21153116984E+02  0.54762806579E+02  0.00000000000E+00 0.  1.
         14    1    6    6    0    0  0.21476965296E+02 -0.14409594720E+02 -0.14553278204E+02  0.29676495157E+02  0.00000000000E+00 0. -1.
         -5    1    3    3    0  503 -0.11682957254E+02 -0.33176440206E+02 -0.10801365993E+01  0.35502455830E+02  0.47000000000E+01 0.  1.
         13    1    4    4    0    0 -0.15672451208E+02  0.19938514520E+02 -0.67120927086E+02  0.71752274814E+02  0.00000000000E+00 0. -1.
        -14    1    4    4    0    0  0.67136501543E+02  0.82471993751E+02 -0.10359807912E+03  0.14846380565E+03  0.00000000000E+00 0.  1.
</event>
<event>
12    1  0.1565987E-001  0.2070433E+03  0.7818608E-02  0.1144046E+00
         21   -1    0    0  501  502  0.00000000000E+00  0.00000000000E+00  0.35256953959E+03  0.35256953959E+03  0.00000000000E+00 0.  1.
         21   -1    0    0  502  503 -0.00000000000E+00 -0.00000000000E+00 -0.14011364473E+03  0.14011364473E+03  0.00000000000E+00 0. -1.
         -6    2    1    2    0  503  0.49680519283E+02 -0.10291799491E+03  0.15694748344E+02  0.20705778409E+03  0.17194863522E+03 0.  0.
        -24    2    3    3    0    0  0.92201138868E+02 -0.10848042166E+03  0.13638982797E+02  0.16386912987E+03  0.79987611418E+02 0.  0.
          6    2    1    2  501    0 -0.49680519283E+02  0.10291799491E+03  0.19676114652E+03  0.28562540022E+03  0.17264603327E+03 0.  0.
         24    2    5    5    0    0  0.14183597205E+02  0.10047185979E+03  0.17623163587E+03  0.21833379778E+03  0.79475082464E+02 0.  0.
          5    1    5    5  501    0 -0.63864116488E+02  0.24461351181E+01  0.20529510642E+02  0.67291602440E+02  0.47000000000E+01 0. -1.
        -13    1    6    6    0    0 -0.27838494928E+02  0.33318761279E+02  0.32561460208E+02  0.54271266282E+02  0.00000000000E+00 0.  1.
         14    1    6    6    0    0  0.42022092133E+02  0.67153098508E+02  0.14367017567E+03  0.16406253150E+03  0.00000000000E+00 0. -1.
         -5    1    3    3    0  503 -0.42520619586E+02  0.55624267549E+01  0.20557655476E+01  0.43188654220E+02  0.47000000000E+01 0.  1.
         13    1    4    4    0    0  0.78696903266E+02 -0.60547049622E+02 -0.23148101300E+02  0.10195578647E+03  0.00000000000E+00 0. -1.
        -14    1    4    4    0    0  0.13504235603E+02 -0.47933372038E+02  0.36787084097E+02  0.61913343396E+02  0.00000000000E+00 0.  1.
</event>
<event>
12    1  0.1565987E-001  0.1733987E+03  0.7818608E-02  0.1174368E+00
         21   -1    0    0  503  502  0.00000000000E+00  0.00000000000E+00  0.31462225032E+03  0.31462225032E+03  0.00000000000E+00 0. -1.
         21   -1    0    0  501  503 -0.00000000000E+00 -0.00000000000E+00 -0.10232583174E+03  0.10232583174E+03  0.00000000000E+00 0.  1.
          6    2    1    2  501    0  0.21384255646E+02  0.11734609508E+02  0.15991798217E+03  0.23588313923E+03  0.17167442123E+03 0.  0.
         24    2    3    3    0    0 -0.11250826157E+02 -0.26715066693E+02  0.16112645695E+03  0.18521780024E+03  0.86623452458E+02 0.  0.
         -6    2    1    2    0  502 -0.21384255646E+02 -0.11734609508E+02  0.52378436413E+02  0.18106494282E+03  0.17159844250E+03 0.  0.
        -24    2    5    5    0    0 -0.32966425370E+02  0.14019986931E+02 -0.31161799016E+02  0.92755787979E+02  0.79682076093E+02 0.  0.
          5    1    3    3  501    0  0.32635081802E+02  0.38449676201E+02 -0.12084747884E+01  0.50665338996E+02  0.47000000000E+01 0. -1.
        -11    1    4    4    0    0 -0.41683760935E+02 -0.16749025647E+01  0.12491615633E+03  0.13169809162E+03  0.00000000000E+00 0.  1.
         12    1    4    4    0    0  0.30432934778E+02 -0.25040164129E+02  0.36210300621E+02  0.53519708612E+02  0.00000000000E+00 0. -1.
         -5    1    5    5    0  502  0.11582169724E+02 -0.25754596439E+02  0.83540235429E+02  0.88309154841E+02  0.47000000000E+01 0.  1.
         13    1    6    6    0    0  0.23240561315E+02 -0.10853329468E+02 -0.60137939956E+01  0.26345477202E+02  0.00000000000E+00 0. -1.
        -14    1    6    6    0    0 -0.56206986686E+02  0.24873316399E+02 -0.25148005021E+02  0.66410310777E+02  0.00000000000E+00 0.  1.
</event>
<event>
12    1  0.1565987E-001  0.1954627E+03  0.7818608E-02  0.1153811E+00
         21   -1    0    0  501  502  0.00000000000E+00  0.00000000000E+00  0.82138242010E+03  0.82138242010E+03  0.00000000000E+00 0.  1.
         21   -1    0    0  502  503 -0.00000000000E+00 -0.00000000000E+00 -0.89341799715E+02  0.89341799715E+02  0.00000000000E+00 0.  1.
         -6    2    1    2    0  503 -0.62075699653E+02  0.68961887007E+02  0.50411416640E+02  0.20185884401E+03  0.17203647181E+03 0.  0.
        -24    2    3    3    0    0 -0.69703828645E+02 -0.16769117499E+02  0.12941854869E+02  0.10786920871E+03  0.79551540214E+02 0.  0.
          6    2    1    2  501    0  0.62075699653E+02 -0.68961887007E+02  0.68162920374E+03  0.70886537580E+03  0.17106319085E+03 0.  0.
         24    2    5    5    0    0  0.28916632787E+02 -0.82607636108E+02  0.65025575371E+03  0.66098935308E+03  0.80088616313E+02 0.  0.
          5    1    5    5  501    0  0.33159066866E+02  0.13645749101E+02  0.31373450033E+02  0.47876022714E+02  0.47000000000E+01 0. -1.
        -11    1    6    6    0    0  0.67183401462E+01 -0.24477872227E+02  0.46240483637E+03  0.46310099873E+03  0.00000000000E+00 0.  1.
         12    1    6    6    0    0  0.22198292641E+02 -0.58129763881E+02  0.18785091734E+03  0.19788835436E+03  0.00000000000E+00 0. -1.
         -5    1    3    3    0  503  0.76281289917E+01  0.85731004506E+02  0.37469561771E+02  0.93989635305E+02  0.47000000000E+01 0.  1.
         13    1    4    4    0    0  0.12440189863E+02 -0.19258539020E+02  0.11558497137E+02  0.25675835042E+02  0.00000000000E+00 0. -1.
        -14    1    4    4    0    0 -0.82144018508E+02  0.24894215212E+01  0.13833577319E+01  0.82193373667E+02  0.00000000000E+00 0.  1.
</event>
<event>
12    1  0.1565987E-001  0.1927336E+03  0.7818608E-02  0.1156099E+00
         21   -1    0    0  503  502  0.00000000000E+00  0.00000000000E+00  0.35994451133E+03  0.35994451133E+03  0.00000000000E+00 0.  1.
         21   -1    0    0  501  503 -0.00000000000E+00 -0.00000000000E+00 -0.10862104864E+03  0.10862104864E+03  0.00000000000E+00 0.  1.
          6    2    1    2  501    0  0.51729670966E+02 -0.71741607790E+02  0.72505990940E+02  0.20592071554E+03  0.17124078141E+03 0.  0.
         24    2    3    3    0    0  0.89778108500E+02 -0.87352173493E+02  0.71829767245E+02  0.16452119091E+03  0.78849196683E+02 0.  0.
         -6    2    1    2    0  502 -0.51729670966E+02  0.71741607790E+02  0.17881747175E+03  0.26264484443E+03  0.17083269288E+03 0.  0.
        -24    2    5    5    0    0  0.18706125141E+02  0.23872164157E-01  0.41163037542E+02  0.92129542377E+02  0.80271646497E+02 0.  0.
          5    1    3    3  501    0 -0.38048437534E+02  0.15610565703E+02  0.67622369441E+00  0.41399524621E+02  0.47000000000E+01 0. -1.
        -11    1    4    4    0    0 -0.82187335695E+01 -0.20503593420E+02 -0.56921207176E+01  0.22811075444E+02  0.00000000000E+00 0.  1.
         12    1    4    4    0    0  0.97996842070E+02 -0.66848580072E+02  0.77521887963E+02  0.14171011547E+03  0.00000000000E+00 0. -1.
         -5    1    5    5    0  502 -0.70435796107E+02  0.71717735626E+02  0.13765443421E+03  0.17051530205E+03  0.47000000000E+01 0.  1.
         13    1    6    6    0    0 -0.21785942896E+02  0.17700358274E+02 -0.46841925204E+01  0.28458243981E+02  0.00000000000E+00 0. -1.
        -14    1    6    6    0    0  0.40492068037E+02 -0.17676486110E+02  0.45847230063E+02  0.63671298397E+02  0.00000000000E+00 0.  1.
</event>
<event>
12    1  0.1565987E-001  0.2340532E+03  0.7818608E-02  0.1124096E+00
         21   -1    0    0  501  502  0.00000000000E+00  0.00000000000E+00  0.12366354803E+03  0.12366354803E+03  0.00000000000E+00 0.  1.
         21   -1    0    0  502  503 -0.00000000000E+00 -0.00000000000E+00 -0.46203126220E+03  0.46203126220E+03  0.00000000000E+00 0. -1.
         -6    2    1    2    0  503  0.10453640611E+03  0.12116860072E+03 -0.23264208546E+03  0.32887031305E+03  0.16859315787E+03 0.  0.
        -24    2    3    3    0    0  0.12290645161E+03  0.13485260734E+03 -0.23178174503E+03  0.30547072343E+03  0.79362232779E+02 0.  0.
          6    2    1    2  501    0 -0.10453640611E+03 -0.12116860072E+03 -0.10572562872E+03  0.25682449718E+03  0.17079585411E+03 0.  0.
         24    2    5    5    0    0 -0.10489757698E+03 -0.11583457857E+03 -0.13852248530E+03  0.22326401389E+03  0.78975880590E+02 0.  0.
          5    1    5    5  501    0  0.36117087646E+00 -0.53340221495E+01  0.32796856585E+02  0.33560483288E+02  0.47000000000E+01 0. -1.
        -13    1    6    6    0    0 -0.99632389313E+02 -0.55483934911E+02 -0.82521488455E+02  0.14076532275E+03  0.00000000000E+00 0.  1.
         14    1    6    6    0    0 -0.52651876716E+01 -0.60350643664E+02 -0.56000996846E+02  0.82498691139E+02  0.00000000000E+00 0. -1.
         -5    1    3    3    0  503 -0.18370045498E+02 -0.13684006621E+02 -0.86034042610E+00  0.23399589621E+02  0.47000000000E+01 0.  1.
         13    1    4    4    0    0  0.11410779162E+03  0.89852942259E+02 -0.13461414581E+03  0.19802804749E+03  0.00000000000E+00 0. -1.
        -14    1    4    4    0    0  0.87986599872E+01  0.44999665085E+02 -0.97167599224E+02  0.10744267595E+03  0.00000000000E+00 0.  1.
</event>
<event>
12    1  0.1565987E-001  0.2053348E+03  0.7818608E-02  0.1145335E+00
         21   -1    0    0  503  502  0.00000000000E+00  0.00000000000E+00  0.47373537735E+03  0.47373537735E+03  0.00000000000E+00 0. -1.
         21   -1    0    0  501  503 -0.00000000000E+00 -0.00000000000E+00 -0.90625068902E+02  0.90625068902E+02  0.00000000000E+00 0.  1.
          6    2    1    2  501    0 -0.94751550213E+02 -0.56366264998E+02  0.22989414790E+03  0.30824294401E+03  0.17322638713E+03 0.  0.
         24    2    3    3    0    0 -0.12551549159E+03 -0.57134114076E+02  0.13272989550E+03  0.20621357753E+03  0.76735707331E+02 0.  0.
         -6    2    1    2    0  502  0.94751550213E+02  0.56366264998E+02  0.15321616055E+03  0.25611750224E+03  0.17310681963E+03 0.  0.
        -24    2    5    5    0    0  0.21602626036E+02 -0.27899714068E+02  0.98428513080E+02  0.13171775685E+03  0.80101983663E+02 0.  0.
          5    1    3    3  501    0  0.30763941373E+02  0.76784907741E+00  0.97164252393E+02  0.10202936648E+03  0.47000000000E+01 0. -1.
        -13    1    4    4    0    0 -0.96217159498E+01 -0.39420799384E+02  0.34490140750E+02  0.53255484702E+02  0.00000000000E+00 0.  1.
         14    1    4    4    0    0 -0.11589377564E+03 -0.17713314692E+02  0.98239754753E+02  0.15295809283E+03  0.00000000000E+00 0. -1.
         -5    1    5    5    0  502  0.73148924177E+02  0.84265979067E+02  0.54787647471E+02  0.12439974538E+03  0.47000000000E+01 0.  1.
         11    1    6    6    0    0 -0.88153251954E+01 -0.30017010238E+02  0.96183756074E+02  0.10114368885E+03  0.00000000000E+00 0. -1.
        -12    1    6    6    0    0  0.30417951232E+02  0.21172961697E+01  0.22447570058E+01  0.30574068003E+02  0.00000000000E+00 0.  1.
</event>
<event>
12    1  0.1565987E-001  0.2153606E+03  0.7818608E-02  0.1137468E+00
         21   -1    0    0  503  502  0.00000000000E+00  0.00000000000E+00  0.14107947466E+03  0.14107947466E+03  0.00000000000E+00 0.  1.
         21   -1    0    0  501  503 -0.00000000000E+00 -0.00000000000E+00 -0.40829216990E+03  0.40829216990E+03  0.00000000000E+00 0. -1.
          6    2    1    2  501    0  0.12444435097E+03  0.35587034899E+02 -0.25542032702E+03  0.33409539298E+03  0.17212598472E+03 0.  0.
         24    2    3    3    0    0  0.11151016658E+03 -0.30801736525E+02 -0.12331790265E+03  0.18561003134E+03  0.76553996613E+02 0.  0.
         -6    2    1    2    0  502 -0.12444435097E+03 -0.35587034899E+02 -0.11792368230E+02  0.21527625158E+03  0.17161576561E+03 0.  0.
        -24    2    5    5    0    0 -0.11725711725E+03 -0.76939531062E+02 -0.39746480979E+02  0.16462837219E+03  0.76510098629E+02 0.  0.
          5    1    3    3  501    0  0.12934184393E+02  0.66388771424E+02 -0.13210242436E+03  0.14848536163E+03  0.47000000000E+01 0. -1.
        -11    1    4    4    0    0  0.31507923357E+02 -0.13726650737E+02  0.36601897126E+01  0.34562510954E+02  0.00000000000E+00 0.  1.
         12    1    4    4    0    0  0.80002243219E+02 -0.17075085789E+02 -0.12697809236E+03  0.15104752039E+03  0.00000000000E+00 0. -1.
         -5    1    5    5    0  502 -0.71872337168E+01  0.41352496163E+02  0.27954112749E+02  0.50647879393E+02  0.47000000000E+01 0.  1.
         11    1    6    6    0    0 -0.75521475772E+02 -0.45808250714E+02  0.14416986334E+02  0.89497143145E+02  0.00000000000E+00 0. -1.
        -12    1    6    6    0    0 -0.41735641481E+02 -0.31131280348E+02 -0.54163467313E+02  0.75131229042E+02  0.00000000000E+00 0.  1.
</event>
<event>
12    1  0.1565987E-001  0.1743216E+03  0.7818608E-02  0.1174525E+00
         21   -1    0    0  501  502  0.00000000000E+00  0.00000000000E+00  0.29702013980E+02  0.29702013980E+02  0.00000000000E+00 0. -1.
         21   -1    0    0  502  503 -0.00000000000E+00 -0.00000000000E+00 -0.10831706903E+04  0.10831706903E+04  0.00000000000E+00 0. -1.
         -6    2    1    2    0  503 -0.19066962350E+02  0.15396726919E+02 -0.68907706486E+03  0.71078494464E+03  0.17259034726E+03 0.  0.
        -24    2    3    3    0    0 -0.34821460653E+02  0.56812056938E+02 -0.61784553447E+03  0.62676438348E+03  0.81610930619E+02 0.  0.
          6    2    1    2  501    0  0.19066962350E+02 -0.15396726919E+02 -0.36439161148E+03  0.40208775965E+03  0.16820437477E+03 0.  0.
         24    2    5    5    0    0 -0.42052525738E+02 -0.28508020870E+02 -0.12805878842E+03  0.15758256317E+03  0.76498946055E+02 0.  0.
          5    1    5    5  501    0  0.61119488088E+02  0.13111293951E+02 -0.23633282305E+03  0.24450519648E+03  0.47000000000E+01 0. -1.
        -11    1    6    6    0    0 -0.91628797173E+01  0.26090415036E+02 -0.46076280928E+02  0.53737247656E+02  0.00000000000E+00 0.  1.
         12    1    6    6    0    0 -0.32889646021E+02 -0.54598435906E+02 -0.81982507497E+02  0.10384531551E+03  0.00000000000E+00 0. -1.
         -5    1    3    3    0  503  0.15754498303E+02 -0.41415330019E+02 -0.71231530384E+02  0.84020561164E+02  0.47000000000E+01 0.  1.
         13    1    4    4    0    0 -0.56847767730E+02  0.21979777110E+02 -0.28977178072E+03  0.29611224933E+03  0.00000000000E+00 0. -1.
        -14    1    4    4    0    0  0.22026307077E+02  0.34832279828E+02 -0.32807375375E+03  0.33065213415E+03  0.00000000000E+00 0.  1.
</event>
<event>
12    1  0.1565987E-001  0.2036991E+03  0.7818608E-02  0.1147482E+00
         21   -1    0    0  503  502  0.00000000000E+00  0.00000000000E+00  0.41879346331E+03  0.41879346331E+03  0.00000000000E+00 0.  1.
         21   -1    0    0  501  503 -0.00000000000E+00 -0.00000000000E+00 -0.73004555515E+03  0.73004555515E+03  0.00000000000E+00 0. -1.
          6    2    1    2  501    0 -0.34105865659E+02  0.95942220075E+02 -0.69025175671E+03  0.71856693841E+03  0.17182211052E+03 0.  0.
         24    2    3    3    0    0 -0.33319646126E+02  0.13133705317E+03 -0.62291947704E+03  0.64234923550E+03  0.78893885172E+02 0.  0.
         -6    2    1    2    0  502  0.34105865659E+02 -0.95942220075E+02  0.37899966487E+03  0.43027208004E+03  0.17642334661E+03 0.  0.
        -24    2    5    5    0    0 -0.47887942850E+01 -0.95711297275E+02  0.36941002503E+03  0.38993724287E+03  0.80023132979E+02 0.  0.
          5    1    3    3  501    0 -0.78621953304E+00 -0.35394833094E+02 -0.67332279672E+02  0.76217702909E+02  0.47000000000E+01 0. -1.
        -13    1    4    4    0    0  0.45113860570E+01 -0.65970233563E+00 -0.86807590091E-01  0.45601915403E+01  0.00000000000E+00 0.  1.
         14    1    4    4    0    0 -0.37831032183E+02  0.13199675550E+03 -0.62283266945E+03  0.63778904396E+03  0.00000000000E+00 0. -1.
         -5    1    5    5    0  502  0.38894659944E+02 -0.23092279977E+00  0.95896398453E+01  0.40334837174E+02  0.47000000000E+01 0.  1.
         11    1    6    6    0    0 -0.13442618515E+02 -0.61476893977E+01  0.66938027335E+01  0.16226677803E+02  0.00000000000E+00 0. -1.
        -12    1    6    6    0    0  0.86538242304E+01 -0.89563607877E+02  0.36271622229E+03  0.37371056507E+03  0.00000000000E+00 0.  1.
</event>
<event>
12    1  0.1565987E-001  0.2000129E+03  0.7818608E-02  0.1149785E+00
         21   -1    0    0  501  502  0.00000000000E+00  0.00000000000E+00  0.39970025837E+03  0.39970025837E+03  0.00000000000E+00 0.  1.
         21   -1    0    0  502  503 -0.00000000000E+00 -0.00000000000E+00 -0.11070613991E+03  0.11070613991E+03  0.00000000000E+00 0. -1.
         -6    2    1    2    0  503  0.88633720225E+02 -0.54161368073E+02  0.65045528946E+02  0.21032371596E+03  0.17092616682E+03 0.  0.
        -24    2    3    3    0    0  0.78712795409E+02 -0.54914166148E+02  0.11106309674E+03  0.16300883458E+03  0.70891458514E+02 0.  0.
          6    2    1    2  501    0 -0.88633720225E+02  0.54161368073E+02  0.22394858951E+03  0.30008268232E+03  0.17060848553E+03 0.  0.
         24    2    5    5    0    0 -0.41505936498E+02 -0.30853631722E+02  0.76604946580E+02  0.12350177367E+03  0.81912641903E+02 0.  0.
          5    1    5    5  501    0 -0.47127783727E+02  0.85014999795E+02  0.14734364293E+03  0.17658090866E+03  0.47000000000E+01 0. -1.
        -11    1    6    6    0    0  0.12419725545E+02 -0.29633574753E+02  0.58251290951E+02  0.66525267626E+02  0.00000000000E+00 0.  1.
         12    1    6    6    0    0 -0.53925662043E+02 -0.12200569684E+01  0.18353655629E+02  0.56976506042E+02  0.00000000000E+00 0. -1.
         -5    1    3    3    0  503  0.99209248158E+01  0.75279807468E+00 -0.46017567790E+02  0.47314881374E+02  0.47000000000E+01 0.  1.
         11    1    4    4    0    0  0.58950546829E+02  0.10164563055E+01  0.44629223885E+02  0.73945708323E+02  0.00000000000E+00 0. -1.
        -12    1    4    4    0    0  0.19762248580E+02 -0.55930622453E+02  0.66433872851E+02  0.89063126259E+02  0.00000000000E+00 0.  1.
</event>
<event>
12    1  0.1565987E-001  0.3230373E+03  0.7818608E-02  0.1074273E+00
         21   -1    0    0  501  502  0.00000000000E+00  0.00000000000E+00  0.11598468309E+03  0.11598468309E+03  0.00000000000E+00 0.  1.
         21   -1    0    0  502  503 -0.00000000000E+00 -0.00000000000E+00 -0.10200929588E+04  0.10200929588E+04  0.00000000000E+00 0.  1.
         -6    2    1    2    0  503  0.48930720433E+00 -0.27383273153E+03 -0.25659060176E+03  0.41245325520E+03  0.17115591295E+03 0.  0.
        -24    2    3    3    0    0  0.43317411847E+02 -0.23022220913E+03 -0.24780022799E+03  0.35052196357E+03  0.81129712258E+02 0.  0.
          6    2    1    2  501    0 -0.48930720433E+00  0.27383273153E+03 -0.64751767400E+03  0.72362438674E+03  0.17137243263E+03 0.  0.
         24    2    5    5    0    0 -0.53474777065E+02  0.18607427010E+03 -0.33814902086E+03  0.39767951239E+03  0.79505021810E+02 0.  0.
          5    1    5    5  501    0  0.52985469860E+02  0.87758461431E+02 -0.30936865314E+03  0.32594487435E+03  0.47000000000E+01 0. -1.
        -13    1    6    6    0    0 -0.45830833322E+02  0.16427967638E+03 -0.33282200001E+03  0.37397695256E+03  0.00000000000E+00 0.  1.
         14    1    6    6    0    0 -0.76439437425E+01  0.21794593722E+02 -0.53270208452E+01  0.23702559831E+02  0.00000000000E+00 0. -1.
         -5    1    3    3    0  503 -0.42828104643E+02 -0.43610522404E+02 -0.87903737668E+01  0.61931291627E+02  0.47000000000E+01 0.  1.
         13    1    4    4    0    0 -0.20890701493E+02 -0.34701917217E+02 -0.56714822464E+02  0.69693726794E+02  0.00000000000E+00 0. -1.
        -14    1    4    4    0    0  0.64208113340E+02 -0.19552029191E+03 -0.19108540552E+03  0.28082823678E+03  0.00000000000E+00 0.  1.
</event>
<event>
12    1  0.1565987E-001  0.2227303E+03  0.7818608E-02  0.1131947E+00
         21   -1    0    0  501  502  0.00000000000E+00  0.00000000000E+00  0.18194688016E+03  0.18194688016E+03  0.00000000000E+00 0.  1.
         21   -1    0    0  502  503 -0.00000000000E+00 -0.00000000000E+00 -0.32487272711E+03  0.32487272711E+03  0.00000000000E+00 0. -1.
         -6    2    1    2    0  503 -0.12626602334E+03 -0.64064826917E+02 -0.17353576280E+03  0.28199579325E+03  0.17134630356E+03 0.  0.
        -24    2    3    3    0    0 -0.10481393162E+03 -0.16680193506E+02 -0.18620803613E+03  0.22825407543E+03  0.78500325578E+02 0.  0.
          6    2    1    2  501    0  0.12626602334E+03  0.64064826917E+02  0.30609915855E+02  0.22482381402E+03  0.17193420167E+03 0.  0.
         24    2    5    5    0    0  0.45400957096E+02 -0.14948659368E+02  0.53065628116E+02  0.10946073948E+03  0.82951692443E+02 0.  0.
          5    1    5    5  501    0  0.80865066245E+02  0.79013486284E+02 -0.22455712261E+02  0.11536307454E+03  0.47000000000E+01 0. -1.
        -13    1    6    6    0    0  0.43071207584E+02 -0.31409517124E+02 -0.56703985766E+00  0.53310488864E+02  0.00000000000E+00 0.  1.
         14    1    6    6    0    0  0.23297495115E+01  0.16460857756E+02  0.53632667973E+02  0.56150250621E+02  0.00000000000E+00 0. -1.
         -5    1    3    3    0  503 -0.21452091716E+02 -0.47384633411E+02  0.12672273329E+02  0.53741717816E+02  0.47000000000E+01 0.  1.
         13    1    4    4    0    0 -0.42474025181E+02 -0.41366430419E+02 -0.12089806938E+03  0.13465350928E+03  0.00000000000E+00 0. -1.
        -14    1    4    4    0    0 -0.62339906444E+02  0.24686236913E+02 -0.65309966744E+02  0.93600566155E+02  0.00000000000E+00 0.  1.
</event>
<event>
12    1  0.1565987E-001  0.1982639E+03  0.7818608E-02  0.1151662E+00
         21   -1    0    0  503  502  0.00000000000E+00  0.00000000000E+00  0.18475117013E+03  0.18475117013E+03  0.00000000000E+00 0. -1.
         21   -1    0    0  501  503 -0.00000000000E+00 -0.00000000000E+00 -0.21081269125E+03  0.21081269125E+03  0.00000000000E+00 0. -1.
          6    2    1    2  501    0  0.41790410633E+02  0.81328551188E+02 -0.20470853148E+02  0.19931794360E+03  0.17591991119E+03 0.  0.
         24    2    3    3    0    0 -0.16425767010E+02  0.14448911088E+02 -0.59182824292E+02  0.10245352129E+03  0.80718897913E+02 0.  0.
         -6    2    1    2    0  502 -0.41790410633E+02 -0.81328551188E+02 -0.55906679716E+01  0.19624591778E+03  0.17355239272E+03 0.  0.
        -24    2    5    5    0    0 -0.26455944168E+02 -0.70638992424E+01  0.51948571715E+02  0.10093989229E+03  0.82099890979E+02 0.  0.
          5    1    3    3  501    0  0.58216177643E+02  0.66879640100E+02  0.38711971144E+02  0.96864422308E+02  0.47000000000E+01 0. -1.
        -13    1    4    4    0    0 -0.41472429223E+02  0.12349562067E+02 -0.60726643403E+01  0.43696124784E+02  0.00000000000E+00 0.  1.
         14    1    4    4    0    0  0.25046662213E+02  0.20993490211E+01 -0.53110159952E+02  0.58757396508E+02  0.00000000000E+00 0. -1.
         -5    1    5    5    0  502 -0.15334466465E+02 -0.74264651946E+02 -0.57539239687E+02  0.95306025487E+02  0.47000000000E+01 0.  1.
         13    1    6    6    0    0 -0.48836923310E+02 -0.27126928811E+02  0.27891099357E+02  0.62440601922E+02  0.00000000000E+00 0. -1.
        -14    1    6    6    0    0  0.22380979142E+02  0.20063029569E+02  0.24057472358E+02  0.38499290371E+02  0.00000000000E+00 0.  1.
</event>
<event>
12    1  0.1565987E-001  0.1950599E+03  0.7818608E-02  0.1154133E+00
         21   -1    0    0  503  502  0.00000000000E+00  0.00000000000E+00  0.21726538253E+04  0.21726538253E+04  0.00000000000E+00 0.  1.
         21   -1    0    0  501  503 -0.00000000000E+00 -0.00000000000E+00 -0.19349549217E+02  0.19349549217E+02  0.00000000000E+00 0.  1.
          6    2    1    2  501    0  0.79719464907E+02 -0.44213510974E+02  0.73121801585E+03  0.75660179013E+03  0.17162882767E+03 0.  0.
         24    2    3    3    0    0  0.64924862222E+02  0.25329327421E+02  0.27364710437E+03  0.29351614398E+03  0.80076066859E+02 0.  0.
         -6    2    1    2    0  502 -0.79719464907E+02  0.44213510974E+02  0.14220862602E+04  0.14354015844E+04  0.17244810604E+03 0.  0.
        -24    2    5    5    0    0 -0.10879729188E+03  0.69603926639E+02  0.97971914844E+03  0.99132845434E+03  0.78746030046E+02 0.  0.
          5    1    3    3  501    0  0.14794602685E+02 -0.69542838395E+02  0.45757091148E+03  0.46308564615E+03  0.47000000000E+01 0. -1.
        -11    1    4    4    0    0  0.41054889266E+02 -0.65355560364E+01  0.44348003792E+02  0.60786206212E+02  0.00000000000E+00 0.  1.
         12    1    4    4    0    0  0.23869972956E+02  0.31864883458E+02  0.22929910058E+03  0.23272993777E+03  0.00000000000E+00 0. -1.
         -5    1    5    5    0  502  0.29077826974E+02 -0.25390415665E+02  0.44236711180E+03  0.44407313005E+03  0.47000000000E+01 0.  1.
         13    1    6    6    0    0 -0.32044188239E+02  0.29588874203E+02  0.12809662090E+03  0.13531842359E+03  0.00000000000E+00 0. -1.
        -14    1    6    6    0    0 -0.76753103642E+02  0.40015052436E+02  0.85162252754E+03  0.85601003076E+03  0.00000000000E+00 0.  1.
</event>
<event>
12    1  0.1565987E-001  0.2183935E+03  0.7818608E-02  0.1135381E+00
         21   -1    0    0  501  502  0.00000000000E+00  0.00000000000E+00  0.20530814588E+04  0.20530814588E+04  0.00000000000E+00 0. -1.
         21   -1    0    0  502  503 -0.00000000000E+00 -0.00000000000E+00 -0.37500721428E+02  0.37500721428E+02  0.00000000000E+00 0.  1.
         -6    2    1    2    0  503 -0.75177895918E+02  0.10870437692E+03  0.35704089968E+03  0.41772530549E+03  0.17189493652E+03 0.  0.
        -24    2    3    3    0    0 -0.74323205874E+02  0.24779281930E+02  0.28760605201E+03  0.30869576758E+03  0.80236425802E+02 0.  0.
          6    2    1    2  501    0  0.75177895918E+02 -0.10870437692E+03  0.16585398377E+04  0.16728568748E+04  0.17386020987E+03 0.  0.
         24    2    5    5    0    0  0.76587454087E+02 -0.43452902070E+02  0.59868137327E+03  0.61098032993E+03  0.84402512037E+02 0.  0.
          5    1    5    5  501    0 -0.14095581691E+01 -0.65251474849E+02  0.10598584645E+04  0.10618765449E+04  0.47000000000E+01 0. -1.
        -13    1    6    6    0    0 -0.16862877557E+02  0.36559835365E+01  0.77949213961E+02  0.79836099681E+02  0.00000000000E+00 0.  1.
         14    1    6    6    0    0  0.93450331644E+02 -0.47108885607E+02  0.52073215931E+03  0.53114423025E+03  0.00000000000E+00 0. -1.
         -5    1    3    3    0  503 -0.85469004400E+00  0.83925094989E+02  0.69434847671E+02  0.10902953790E+03  0.47000000000E+01 0.  1.
         13    1    4    4    0    0 -0.12707188143E+02  0.26083727299E+02  0.19694447364E+03  0.19907023674E+03  0.00000000000E+00 0. -1.
        -14    1    4    4    0    0 -0.61616017731E+02 -0.13044453692E+01  0.90661578372E+02  0.10962553084E+03  0.00000000000E+00 0.  1.
</event>
<event>
12    1  0.1565987E-001  0.2454762E+03  0.7818608E-02  0.1116445E+00
         21   -1    0    0  503  502  0.00000000000E+00  0.00000000000E+00  0.18922669533E+03  0.18922669533E+03  0.00000000000E+00 0. -1.
         21   -1    0    0  501  503 -0.00000000000E+00 -0.00000000000E+00 -0.59820755771E+03  0.59820755771E+03  0.00000000000E+00 0.  1.
          6    2    1    2  501    0 -0.16624882819E+03 -0.52804329109E+02 -0.47502098867E+03  0.53469945578E+03  0.17271826274E+03 0.  0.
         24    2    3    3    0    0 -0.15504295439E+03  0.12955573945E+02 -0.30110948295E+03  0.34837383145E+03  0.80568238892E+02 0.  0.
         -6    2    1    2    0  502  0.16624882819E+03  0.52804329109E+02  0.66040126291E+02  0.25273479726E+03  0.17054796809E+03 0.  0.
        -24    2    5    5    0    0  0.10185064375E+03  0.22133502429E+02 -0.28593188446E+02  0.13413724237E+03  0.79446735637E+02 0.  0.
          5    1    3    3  501    0 -0.11205873799E+02 -0.65759903054E+02 -0.17391150573E+03  0.18632562433E+03  0.47000000000E+01 0. -1.
        -11    1    4    4    0    0 -0.88285063398E+01  0.24150297962E+02 -0.70977202067E+02  0.75491341418E+02  0.00000000000E+00 0.  1.
         12    1    4    4    0    0 -0.14621444805E+03 -0.11194724017E+02 -0.23013228088E+03  0.27288249004E+03  0.00000000000E+00 0. -1.
         -5    1    5    5    0  502  0.64398184436E+02  0.30670826680E+02  0.94633314737E+02  0.11859755489E+03  0.47000000000E+01 0.  1.
         11    1    6    6    0    0  0.33809596304E+02  0.43305030853E+02  0.53636352156E+01  0.55201296019E+02  0.00000000000E+00 0. -1.
        -12    1    6    6    0    0  0.68041047447E+02 -0.21171528424E+02 -0.33956823662E+02  0.78935946353E+02  0.00000000000E+00 0.  1.
</event>
<event>
12    1  0.1565987E-001  0.1816467E+03  0.7818608E-02  0.1166266E+00
         21   -1    0    0  501  502  0.00000000000E+00  0.00000000000E+00  0.20244856354E+03  0.20244856354E+03  0.00000000000E+00 0. -1.
         21   -1    0    0  502  503 -0.00000000000E+00 -0.00000000000E+00 -0.17131236937E+03  0.17131236937E+03  0.00000000000E+00 0. -1.
         -6    2    1    2    0  503  0.55073378355E+02 -0.18653460540E+02 -0.26087136719E+02  0.18331402511E+03  0.17187921487E+03 0.  0.
        -24    2    3    3    0    0  0.91470064148E+01 -0.20042606108E+02 -0.75330692762E+02  0.11579973642E+03  0.85143948095E+02 0.  0.
          6    2    1    2  501    0 -0.55073378355E+02  0.18653460540E+02  0.57223330890E+02  0.19044690781E+03  0.17208860073E+03 0.  0.
         24    2    5    5    0    0 -0.78138090267E+02 -0.25642771949E+02  0.72993876425E+02  0.13786423714E+03  0.83158457068E+02 0.  0.
          5    1    5    5  501    0  0.23064711912E+02  0.44296232489E+02 -0.15770545535E+02  0.52582670670E+02  0.47000000000E+01 0. -1.
        -11    1    6    6    0    0 -0.56994103587E+02 -0.49160853671E+02  0.22991903976E+02  0.78700349592E+02  0.00000000000E+00 0.  1.
         12    1    6    6    0    0 -0.21143986680E+02  0.23518081722E+02  0.50001972449E+02  0.59163887545E+02  0.00000000000E+00 0. -1.
         -5    1    3    3    0  503  0.45926371940E+02  0.13891455679E+01  0.49243556043E+02  0.67514288686E+02  0.47000000000E+01 0.  1.
         13    1    4    4    0    0 -0.46402934778E+01 -0.43437840523E+02 -0.96661820949E+01  0.44741629264E+02  0.00000000000E+00 0. -1.
        -14    1    4    4    0    0  0.13787299893E+02  0.23395234415E+02 -0.65664510667E+02  0.71058107157E+02  0.00000000000E+00 0.  1.
</event>
<event>
12    1  0.1565987E-001  0.1970625E+03  0.7818608E-02  0.1152337E+00
         21   -1    0    0  501  502  0.00000000000E+00  0.00000000000E+00  0.43198269772E+02  0.43198269772E+02  0.00000000000E+00 0.  1.
         21   -1    0    0  502  503 -0.00000000000E+00 -0.00000000000E+00 -0.12165210895E+04  0.12165210895E+04  0.00000000000E+00 0.  1.
         -6    2    1    2    0  503 -0.87014059657E+02 -0.31819992196E+02 -0.90900469475E+03  0.93002602211E+03  0.17342118739E+03 0.  0.
        -24    2    3    3    0    0 -0.26377032734E+02  0.46781219658E+02 -0.41822996437E+03  0.42928963885E+03  0.80554705370E+02 0.  0.
          6    2    1    2  501    0  0.87014059657E+02  0.31819992196E+02 -0.26431812494E+03  0.32969333713E+03  0.17392431369E+03 0.  0.
         24    2    5    5    0    0  0.11231134825E+03 -0.20150610696E+02 -0.19460807637E+03  0.23901546084E+03  0.78969621233E+02 0.  0.
          5    1    5    5  501    0 -0.25297288595E+02  0.51970602892E+02 -0.69710048574E+02  0.90677876284E+02  0.47000000000E+01 0. -1.
        -11    1    6    6    0    0  0.72909871876E+01  0.22997100837E+02 -0.23606984163E+02  0.33753738198E+02  0.00000000000E+00 0.  1.
         12    1    6    6    0    0  0.10502036106E+03 -0.43147711533E+02 -0.17100109220E+03  0.20526172264E+03  0.00000000000E+00 0. -1.
         -5    1    3    3    0  503 -0.60637026923E+02 -0.78601211854E+02 -0.49077473038E+03  0.50073638326E+03  0.47000000000E+01 0.  1.
         11    1    4    4    0    0  0.26157405607E+01  0.24605978567E+02 -0.28043705159E+02  0.37399808542E+02  0.00000000000E+00 0. -1.
        -12    1    4    4    0    0 -0.28992773294E+02  0.22175241091E+02 -0.39018625921E+03  0.39188983031E+03  0.00000000000E+00 0.  1.
</event>
<event>
12    1  0.1565987E-001  0.1857181E+03  0.7818608E-02  0.1162427E+00
         21   -1    0    0  501  502  0.00000000000E+00  0.00000000000E+00  0.36501215834E+03  0.36501215834E+03  0.00000000000E+00 0.  1.
         21   -1    0    0  502  503 -0.00000000000E+00 -0.00000000000E+00 -0.10415756158E+03  0.10415756158E+03  0.00000000000E+00 0.  1.
         -6    2    1    2    0  503  0.61998935755E+02  0.33556506363E+02  0.58662928916E+02  0.19476285167E+03  0.17181769993E+03 0.  0.
        -24    2    3    3    0    0 -0.15403297998E+02 -0.17107793047E+02  0.57583566592E+02  0.10212791200E+03  0.81143731100E+02 0.  0.
          6    2    1    2  501    0 -0.61998935755E+02 -0.33556506363E+02  0.20219166785E+03  0.27440686824E+03  0.17160347210E+03 0.  0.
         24    2    5    5    0    0 -0.66552976284E+02 -0.47110060003E+02  0.21994512267E+03  0.25113213389E+03  0.89681855915E+02 0.  0.
          5    1    5    5  501    0  0.45540405282E+01  0.13553553640E+02 -0.17753454817E+02  0.23274734356E+02  0.47000000000E+01 0. -1.
        -13    1    6    6    0    0 -0.49677223409E+02 -0.21690217422E+02  0.36928764432E+02  0.65589829242E+02  0.00000000000E+00 0.  1.
         14    1    6    6    0    0 -0.16875752875E+02 -0.25419842581E+02  0.18301635824E+03  0.18554230465E+03  0.00000000000E+00 0. -1.
         -5    1    3    3    0  503  0.77402233753E+02  0.50664299410E+02  0.10793623242E+01  0.92634939670E+02  0.47000000000E+01 0.  1.
         11    1    4    4    0    0  0.12634035044E+02  0.24841833228E+02  0.33792877424E+01  0.28074100258E+02  0.00000000000E+00 0. -1.
        -12    1    4    4    0    0 -0.28037333042E+02 -0.41949626274E+02  0.54204278850E+02  0.74053811747E+02  0.00000000000E+00 0.  1.
</event>
<event>
12    1  0.1565987E-001  0.1776211E+03  0.7818608E-02  0.1170186E+00
         21   -1    0    0  501  502  0.00000000000E+00  0.00000000000E+00  0.44218281685E+03  0.44218281685E+03  0.00000000000E+00 0. -1.
         21   -1    0    0  502  503 -0.00000000000E+00 -0.00000000000E+00 -0.15057099283E+03  0.15057099283E+03  0.00000000000E+00 0. -1.
         -6    2    1    2    0  503 -0.96653463006E+01 -0.42620376377E+02 -0.69356349249E+02  0.19045134662E+03  0.17190548812E+03 0.  0.
        -24    2    3    3    0    0  0.55670039626E+02 -0.43185380270E+02 -0.64622408957E+02  0.12477386132E+03  0.80176869164E+02 0.  0.
          6    2    1    2  501    0  0.96653463006E+01  0.42620376377E+02  0.36096817326E+03  0.40230246307E+03  0.17216078032E+03 0.  0.
         24    2    5    5    0    0 -0.25298062653E+02 -0.43076603612E+01  0.31970548470E+03  0.33054328202E+03  0.79929446545E+02 0.  0.
          5    1    5    5  501    0  0.34963408953E+02  0.46928036739E+02  0.41262688557E+02  0.71759181048E+02  0.47000000000E+01 0. -1.
        -13    1    6    6    0    0 -0.50544176308E+02  0.12053607497E+02  0.23434248955E+03  0.24003417594E+03  0.00000000000E+00 0.  1.
         14    1    6    6    0    0  0.25246113655E+02 -0.16361267858E+02  0.85362995158E+02  0.90509106078E+02  0.00000000000E+00 0. -1.
         -5    1    3    3    0  503 -0.65335385927E+02  0.56500389242E+00 -0.47339402921E+01  0.65677485292E+02  0.47000000000E+01 0.  1.
         11    1    4    4    0    0 -0.12772597611E+02  0.36922658606E+01 -0.33722160509E+02  0.36248533575E+02  0.00000000000E+00 0. -1.
        -12    1    4    4    0    0  0.68442637238E+02 -0.46877646130E+02 -0.30900248448E+02  0.88525327748E+02  0.00000000000E+00 0.  1.
</event>
<event>
12    1  0.1565987E-001  0.2203519E+03  0.7818608E-02  0.1134042E+00
         21   -1    0    0  503  502  0.00000000000E+00  0.00000000000E+00  0.11472643427E+03  0.11472643427E+03  0.00000000000E+00 0. -1.
         21   -1    0    0  501  503 -0.00000000000E+00 -0.00000000000E+00 -0.48483309967E+03  0.48483309967E+03  0.00000000000E+00 0. -1.
          6    2    1    2  501    0 -0.11722683138E+03  0.67024798399E+02 -0.73698195198E+02  0.23021831438E+03  0.17127345008E+03 0.  0.
         24    2    3    3    0    0 -0.12742809763E+03  0.33505799858E+00 -0.55228248732E+02  0.16011256404E+03  0.79673341693E+02 0.  0.
         -6    2    1    2    0  502  0.11722683138E+03 -0.67024798399E+02 -0.29640847020E+03  0.36934121956E+03  0.17412783140E+03 0.  0.
        -24    2    5    5    0    0  0.13863756527E+03 -0.69788930202E+02 -0.30034876548E+03  0.34689849520E+03  0.77706600510E+02 0.  0.
          5    1    3    3  501    0  0.10201266248E+02  0.66689740400E+02 -0.18469946466E+02  0.70105750336E+02  0.47000000000E+01 0. -1.
        -11    1    4    4    0    0  0.10676810710E+02  0.19914659991E+01  0.11756568788E+01  0.10924394393E+02  0.00000000000E+00 0.  1.
         12    1    4    4    0    0 -0.13810490834E+03 -0.16564080006E+01 -0.56403905611E+02  0.14918816965E+03  0.00000000000E+00 0. -1.
         -5    1    5    5    0  502 -0.21410733886E+02  0.27641318032E+01  0.39402952805E+01  0.22442724368E+02  0.47000000000E+01 0.  1.
         11    1    6    6    0    0  0.99388610110E+02 -0.23193228202E+02 -0.12561936268E+03  0.16185254380E+03  0.00000000000E+00 0. -1.
        -12    1    6    6    0    0  0.39248955155E+02 -0.46595702000E+02 -0.17472940280E+03  0.18504595140E+03  0.00000000000E+00 0.  1.
</event>
<event>
12    1  0.1565987E-001  0.1797854E+03  0.7818608E-02  0.1168025E+00
         21   -1    0    0  501  502  0.00000000000E+00  0.00000000000E+00  0.29385613195E+02  0.29385613195E+02  0.00000000000E+00 0. -1.
         21   -1    0    0  502  503 -0.00000000000E+00 -0.00000000000E+00 -0.19403251392E+04  0.19403251392E+04  0.00000000000E+00 0. -1.
         -6    2    1    2    0  503 -0.17917337802E+02  0.51056647952E+02 -0.16036642493E+04  0.16137039036E+04  0.17138684847E+03 0.  0.
        -24    2    3    3    0    0  0.51446492916E+01  0.55538406822E+02 -0.47361210074E+03  0.48339779913E+03  0.79082413910E+02 0.  0.
          6    2    1    2  501    0  0.17917337802E+02 -0.51056647952E+02 -0.30727527675E+03  0.35600684880E+03  0.17144960892E+03 0.  0.
         24    2    5    5    0    0  0.17574566093E+02  0.74559887080E+01 -0.56360796042E+02  0.98317088104E+02  0.78263997736E+02 0.  0.
          5    1    5    5  501    0  0.34277170907E+00 -0.58512636660E+02 -0.25091448071E+03  0.25768976070E+03  0.47000000000E+01 0. -1.
        -11    1    6    6    0    0 -0.25154440557E+02 -0.14923838034E+02 -0.87182721803E+01  0.30520076855E+02  0.00000000000E+00 0.  1.
         12    1    6    6    0    0  0.42729006650E+02  0.22379826742E+02 -0.47642523862E+02  0.67797011249E+02  0.00000000000E+00 0. -1.
         -5    1    3    3    0  503 -0.23061987093E+02 -0.44817588706E+01 -0.11300521486E+04  0.11303061045E+04  0.47000000000E+01 0.  1.
         11    1    4    4    0    0 -0.13703168481E+02 -0.13155914266E+02 -0.44077251490E+02  0.47996447842E+02  0.00000000000E+00 0. -1.
        -12    1    4    4    0    0  0.18847817772E+02  0.68694321089E+02 -0.42953484925E+03  0.43540135129E+03  0.00000000000E+00 0.  1.
</event>
<event>
12    1  0.1565987E-001  0.2098045E+03  0.7818608E-02  0.1142455E+00
         21   -1    0    0  503  502  0.00000000000E+00  0.00000000000E+00  0.54030223342E+03  0.54030223342E+03  0.00000000000E+00 0.  1.
         21   -1    0    0  501  503 -0.00000000000E+00 -0.00000000000E+00 -0.84356512576E+02  0.84356512576E+02  0.00000000000E+00 0.  1.
          6    2    1    2  501    0  0.59864138034E+02  0.10534871581E+03  0.15549823630E+03  0.25820736349E+03  0.16676112893E+03 0.  0.
         24    2    3    3    0    0 -0.30643904029E+02  0.60630063251E+02  0.80039597849E+02  0.13208218883E+03  0.80151818189E+02 0.  0.
         -6    2    1    2    0  502 -0.59864138034E+02 -0.10534871581E+03  0.30044748454E+03  0.36645138251E+03  0.17127713749E+03 0.  0.
        -24    2    5    5    0    0 -0.80687771735E+02 -0.35756505948E+02  0.10503631853E+03  0.15792245598E+03  0.78216556233E+02 0.  0.
          5    1    3    3  501    0  0.90508042062E+02  0.44718652560E+02  0.75458638449E+02  0.12612517465E+03  0.47000000000E+01 0. -1.
        -13    1    4    4    0    0 -0.48999065946E+01  0.64161976577E+02  0.83981135302E+02  0.10579980817E+03  0.00000000000E+00 0.  1.
         14    1    4    4    0    0 -0.25743997434E+02 -0.35319133258E+01 -0.39415374530E+01  0.26282380659E+02  0.00000000000E+00 0. -1.
         -5    1    5    5    0  502  0.20823633701E+02 -0.69592209863E+02  0.19541116602E+03  0.20852892652E+03  0.47000000000E+01 0.  1.
         11    1    6    6    0    0 -0.71540963487E+02 -0.36785078889E+02  0.11751798949E+03  0.14241393660E+03  0.00000000000E+00 0. -1.
        -12    1    6    6    0    0 -0.91468082471E+01  0.10285729411E+01 -0.12481670960E+02  0.15508519380E+02  0.00000000000E+00 0.  1.
</event>
<event>
12    1  0.1565987E-001  0.1817464E+03  0.7818608E-02  0.1166719E+00
         21   -1    0    0  503  502  0.00000000000E+00  0.00000000000E+00  0.34386439506E+02  0.34386439506E+02  0.00000000000E+00 0.  1.
         21   -1    0    0  501  503 -0.00000000000E+00 -0.00000000000E+00 -0.11865156071E+04  0.11865156071E+04  0.00000000000E+00 0.  1.
          6    2    1    2  501    0 -0.11198630211E+02 -0.51304080618E+02 -0.85316254200E+03  0.87230618388E+03  0.17399493487E+03 0.  0.
         24    2    3    3    0    0  0.11412556231E+02 -0.87364440077E+02 -0.37797290400E+03  0.39519100142E+03  0.74495769094E+02 0.  0.
         -6    2    1    2    0  502  0.11198630211E+02  0.51304080618E+02 -0.29896662563E+03  0.34859586276E+03  0.17140745108E+03 0.  0.
        -24    2    5    5    0    0  0.25327001925E+02  0.63426486161E+02 -0.30954241836E+03  0.32667552984E+03  0.78968454838E+02 0.  0.
          5    1    3    3  501    0 -0.22611186442E+02  0.36060359459E+02 -0.47518963799E+03  0.47711518246E+03  0.47000000000E+01 0. -1.
        -11    1    4    4    0    0  0.16564841172E+02 -0.82948818902E+02 -0.37900326452E+03  0.38832766453E+03  0.00000000000E+00 0.  1.
         12    1    4    4    0    0 -0.51522849407E+01 -0.44156211752E+01  0.10303605190E+01  0.68633368905E+01  0.00000000000E+00 0. -1.
         -5    1    5    5    0  502 -0.14128371714E+02 -0.12122405543E+02  0.10575792729E+02  0.21920332919E+02  0.47000000000E+01 0.  1.
         11    1    6    6    0    0 -0.33588382425E+00 -0.90903754412E+01 -0.14230028860E+03  0.14259074262E+03  0.00000000000E+00 0. -1.
        -12    1    6    6    0    0  0.25662885749E+02  0.72516861603E+02 -0.16724212976E+03  0.18408478723E+03  0.00000000000E+00 0.  1.
</event>
<event>
12    1  0.1565987E-001  0.1807435E+03  0.7818608E-02  0.1167455E+00
         21   -1    0    0  503  502  0.00000000000E+00  0.00000000000E+00  0.16685607059E+04  0.16685607059E+04  0.00000000000E+00 0.  1.
         21   -1    0    0  501  503 -0.00000000000E+00 -0.00000000000E+00 -0.21142893127E+02  0.21142893127E+02  0.00000000000E+00 0.  1.
          6    2    1    2  501    0  0.12786170151E+02  0.48156088619E+02  0.10621336767E+04  0.10771468745E+04  0.17214803791E+03 0.  0.
         24    2    3    3    0    0 -0.41498602101E+02 -0.24043075960E+02  0.52169069909E+03  0.52918678658E+03  0.74681095942E+02 0.  0.
         -6    2    1    2    0  502 -0.12786170151E+02 -0.48156088619E+02  0.58528413604E+03  0.61255672454E+03  0.17374039788E+03 0.  0.
        -24    2    5    5    0    0  0.62473740335E+01 -0.89580700731E+02  0.29184510048E+03  0.31556037459E+03  0.79630746003E+02 0.  0.
          5    1    3    3  501    0  0.54284772251E+02  0.72199164579E+02  0.54044297761E+03  0.54796008789E+03  0.47000000000E+01 0. -1.
        -13    1    4    4    0    0 -0.10894036196E+02  0.94189425738E+01  0.38300426281E+03  0.38327491678E+03  0.00000000000E+00 0.  1.
         14    1    4    4    0    0 -0.30604565904E+02 -0.33462018534E+02  0.13868643629E+03  0.14591186980E+03  0.00000000000E+00 0. -1.
         -5    1    5    5    0  502 -0.19033544184E+02  0.41424612111E+02  0.29343903556E+03  0.29699634995E+03  0.47000000000E+01 0.  1.
         13    1    6    6    0    0  0.13523607299E+01 -0.84052644620E+02  0.29556882388E+03  0.30729075092E+03  0.00000000000E+00 0. -1.
        -14    1    6    6    0    0  0.48950133036E+01 -0.55280561105E+01 -0.37237234053E+01  0.82696236675E+01  0.00000000000E+00 0.  1.
</event>
<event>
12    1  0.1565987E-001  0.3081981E+03  0.7818608E-02  0.1081289E+00
         21   -1    0    0  503  502  0.00000000000E+00  0.00000000000E+00  0.10392019874E+04  0.10392019874E+04  0.00000000000E+00 0. -1.
         21   -1    0    0  501  503 -0.00000000000E+00 -0.00000000000E+00 -0.97426673328E+02  0.97426673328E+02  0.00000000000E+00 0. -1.
          6    2    1    2  501    0  0.64001378792E+02 -0.24703803582E+03  0.32695532973E+03  0.44888622773E+03  0.17168310977E+03 0.  0.
         24    2    3    3    0    0  0.71678396595E+02 -0.64799937262E+02  0.12653903553E+03  0.17785404855E+03  0.79266075134E+02 0.  0.
         -6    2    1    2    0  502 -0.64001378792E+02  0.24703803582E+03  0.61481998432E+03  0.68774243298E+03  0.17280646217E+03 0.  0.
        -24    2    5    5    0    0 -0.70011892183E+02  0.25990305200E+03  0.61051070945E+03  0.67217661265E+03  0.81527975329E+02 0.  0.
          5    1    3    3  501    0 -0.76770178023E+01 -0.18223809856E+03  0.20041629420E+03  0.27103217918E+03  0.47000000000E+01 0. -1.
        -13    1    4    4    0    0 -0.37113192168E+01 -0.24420912890E+02  0.72734429578E+02  0.76814400490E+02  0.00000000000E+00 0.  1.
         14    1    4    4    0    0  0.75389715811E+02 -0.40379024373E+02  0.53804605952E+02  0.10103964806E+03  0.00000000000E+00 0. -1.
         -5    1    5    5    0  502  0.60105133905E+01 -0.12865016180E+02  0.43092748764E+01  0.15565820328E+02  0.47000000000E+01 0.  1.
         13    1    6    6    0    0 -0.39674960052E+02  0.33507169215E+02  0.93467248019E+02  0.10692501717E+03  0.00000000000E+00 0. -1.
        -14    1    6    6    0    0 -0.30336932131E+02  0.22639588278E+03  0.51704346143E+03  0.56525159548E+03  0.00000000000E+00 0.  1.
</event>
<event>
12    1  0.1565987E-001  0.2427222E+03  0.7818608E-02  0.1118041E+00
         21   -1    0    0  503  502  0.00000000000E+00  0.00000000000E+00  0.13510405141E+03  0.13510405141E+03  0.00000000000E+00 0.  1.
         21   -1    0    0  501  503 -0.00000000000E+00 -0.00000000000E+00 -0.44078840637E+03  0.44078840637E+03  0.00000000000E+00 0.  1.
          6    2    1    2  501    0  0.13975267401E+03 -0.99445194377E+02 -0.18419058493E+03  0.30446144076E+03  0.17131970334E+03 0.  0.
         24    2    3    3    0    0  0.71106396158E+02 -0.11177602915E+03 -0.17583034707E+03  0.23406013021E+03  0.79484799414E+02 0.  0.
         -6    2    1    2    0  502 -0.13975267401E+03  0.99445194377E+02 -0.12149377004E+03  0.27143101702E+03  0.17173789409E+03 0.  0.
        -24    2    5    5    0    0 -0.48715202793E+02 -0.15181297363E+02 -0.63678466727E+02  0.11397704574E+03  0.79574977594E+02 0.  0.
          5    1    3    3  501    0  0.68646277853E+02  0.12330834768E+02 -0.83602378543E+01  0.70401310542E+02  0.47000000000E+01 0. -1.
        -11    1    4    4    0    0  0.48770796249E+02 -0.90992515430E+02 -0.72066664113E+02  0.12590406073E+03  0.00000000000E+00 0.  1.
         12    1    4    4    0    0  0.22335599909E+02 -0.20783513716E+02 -0.10376368296E+03  0.10815606949E+03  0.00000000000E+00 0. -1.
         -5    1    5    5    0  502 -0.91037471218E+02  0.11462649174E+03 -0.57815303308E+02  0.15745397128E+03  0.47000000000E+01 0.  1.
         11    1    6    6    0    0 -0.11367445923E+02 -0.20576926078E+02 -0.71650739540E+02  0.75408601567E+02  0.00000000000E+00 0. -1.
        -12    1    6    6    0    0 -0.37347756870E+02  0.53956287147E+01  0.79722728129E+01  0.38568444177E+02  0.00000000000E+00 0.  1.
</event>
<event>
12    1  0.1565987E-001  0.2139576E+03  0.7818608E-02  0.1138552E+00
         21   -1    0    0  503  502  0.00000000000E+00  0.00000000000E+00  0.33579273001E+03  0.33579273001E+03  0.00000000000E+00 0. -1.
         21   -1    0    0  501  503 -0.00000000000E+00 -0.00000000000E+00 -0.38819706433E+03  0.38819706433E+03  0.00000000000E+00 0.  1.
          6    2    1    2  501    0 -0.72635231684E+02 -0.10374267987E+03 -0.31795302292E+03  0.38323879213E+03  0.17245122936E+03 0.  0.
         24    2    3    3    0    0 -0.60978470404E+02 -0.13806469808E+03 -0.29346002258E+03  0.33924017757E+03  0.78643998636E+02 0.  0.
         -6    2    1    2    0  502  0.72635231684E+02  0.10374267987E+03  0.26554868860E+03  0.34075100220E+03  0.17192067640E+03 0.  0.
        -24    2    5    5    0    0 -0.16117270893E+02  0.59239177076E+02  0.72191534187E+02  0.12334206118E+03  0.78946817069E+02 0.  0.
          5    1    3    3  501    0 -0.11656761280E+02  0.34322018211E+02 -0.24493000339E+02  0.43998614560E+02  0.47000000000E+01 0. -1.
        -11    1    4    4    0    0  0.11821663936E+02 -0.63756757925E+02 -0.92681997478E+02  0.11311334393E+03  0.00000000000E+00 0.  1.
         12    1    4    4    0    0 -0.72800134340E+02 -0.74307940154E+02 -0.20077802510E+03  0.22612683364E+03  0.00000000000E+00 0. -1.
         -5    1    5    5    0  502  0.88752502577E+02  0.44503502792E+02  0.19335715441E+03  0.21740894103E+03  0.47000000000E+01 0.  1.
         11    1    6    6    0    0  0.19887098812E+02  0.55709978260E+02  0.62143255784E+02  0.85795586229E+02  0.00000000000E+00 0. -1.
        -12    1    6    6    0    0 -0.36004369705E+02  0.35291988163E+01  0.10048278402E+02  0.37546474947E+02  0.00000000000E+00 0.  1.
</event>
<event>
12    1  0.1565987E-001  0.1957163E+03  0.7818608E-02  0.1153539E+00
         21   -1    0    0  501  502  0.00000000000E+00  0.00000000000E+00  0.11049599625E+03  0.11049599625E+03  0.00000000000E+00 0.  1.
         21   -1    0    0  502  503 -0.00000000000E+00 -0.00000000000E+00 -0.38135600807E+03  0.38135600807E+03  0.00000000000E+00 0.  1.
         -6    2    1    2    0  503 -0.92369883957E+02 -0.24111395055E+01 -0.21057711022E+03  0.28706210526E+03  0.17182527134E+03 0.  0.
        -24    2    3    3    0    0 -0.43040232289E+02 -0.64896578630E+02 -0.13595917148E+03  0.17784776821E+03  0.84148112476E+02 0.  0.
          6    2    1    2  501    0  0.92369883957E+02  0.24111395055E+01 -0.60282901610E+02  0.20478989906E+03  0.17253076675E+03 0.  0.
         24    2    5    5    0    0  0.78973681936E+02  0.22423190773E+02  0.23691388533E+02  0.11730440410E+03  0.80370388866E+02 0.  0.
          5    1    5    5  501    0  0.13396202020E+02 -0.20012051268E+02 -0.83974290143E+02  0.87485494967E+02  0.47000000000E+01 0. -1.
        -11    1    6    6    0    0  0.30429065509E+02 -0.21651100122E+02 -0.16033043977E+02  0.40641809303E+02  0.00000000000E+00 0.  1.
         12    1    6    6    0    0  0.48544616427E+02  0.44074290896E+02  0.39724432510E+02  0.76662594792E+02  0.00000000000E+00 0. -1.
         -5    1    3    3    0  503 -0.49329651668E+02  0.62485439125E+02 -0.74617938733E+02  0.10921433705E+03  0.47000000000E+01 0.  1.
         11    1    4    4    0    0 -0.29189815860E+02 -0.55356648351E+02 -0.27953448806E+02  0.68540492898E+02  0.00000000000E+00 0. -1.
        -12    1    4    4    0    0 -0.13850416429E+02 -0.95399302795E+01 -0.10800572268E+03  0.10930727531E+03  0.00000000000E+00 0.  1.
</event>
<event>
12    1  0.1565987E-001  0.2093998E+03  0.7818608E-02  0.1142167E+00
         21   -1    0    0  501  502  0.00000000000E+00  0.00000000000E+00  0.26191463933E+03  0.26191463933E+03  0.00000000000E+00 0. -1.
         21   -1    0    0  502  503 -0.00000000000E+00 -0.00000000000E+00 -0.19884289154E+03  0.19884289154E+03  0.00000000000E+00 0. -1.
         -6    2    1    2    0  503  0.36208530612E+02 -0.11462008509E+03 -0.60742686898E+02  0.21803196357E+03  0.17146265346E+03 0.  0.
        -24    2    3    3    0    0  0.31956989097E+02 -0.16085570645E+02 -0.79264608889E+02  0.11757163440E+03  0.79121528407E+02 0.  0.
          6    2    1    2  501    0 -0.36208530612E+02  0.11462008509E+03  0.12381443469E+03  0.24272556731E+03  0.17069524068E+03 0.  0.
         24    2    5    5    0    0 -0.59306575213E+02  0.12018362058E+03  0.68001985654E+02  0.18188485677E+03  0.10245222570E+03 0.  0.
          5    1    5    5  501    0  0.23098044601E+02 -0.55635354813E+01  0.55812449033E+02  0.60840710536E+02  0.47000000000E+01 0. -1.
        -11    1    6    6    0    0  0.99493169274E+01 -0.10535509477E+02 -0.69242338851E+01  0.16060226716E+02  0.00000000000E+00 0.  1.
         12    1    6    6    0    0 -0.69255892141E+02  0.13071913005E+03  0.74926219539E+02  0.16582463005E+03  0.00000000000E+00 0. -1.
         -5    1    3    3    0  503  0.42515415150E+01 -0.98534514450E+02  0.18521921991E+02  0.10046032917E+03  0.47000000000E+01 0.  1.
         13    1    4    4    0    0  0.36313314057E+02  0.23200624047E+02 -0.23102225969E+02  0.48894156898E+02  0.00000000000E+00 0. -1.
        -14    1    4    4    0    0 -0.43563249605E+01 -0.39286194691E+02 -0.56162382920E+02  0.68677477500E+02  0.00000000000E+00 0.  1.
</event>
<event>
12    1  0.1565987E-001  0.2687833E+03  0.7818608E-02  0.1102206E+00
         21   -1    0    0  503  502  0.00000000000E+00  0.00000000000E+00  0.41183643536E+03  0.41183643536E+03  0.00000000000E+00 0. -1.
         21   -1    0    0  501  503 -0.00000000000E+00 -0.00000000000E+00 -0.17911332630E+03  0.17911332630E+03  0.00000000000E+00 0.  1.
          6    2    1    2  501    0 -0.12443248547E+03  0.16437616019E+03  0.16468199647E+03  0.31522153428E+03  0.17245721276E+03 0.  0.
         24    2    3    3    0    0 -0.76922377965E+02  0.24487049809E+02  0.32624207401E+02  0.11701072940E+03  0.78169713099E+02 0.  0.
         -6    2    1    2    0  502  0.12443248547E+03 -0.16437616019E+03  0.68041112591E+02  0.27572822738E+03  0.16998087214E+03 0.  0.
        -24    2    5    5    0    0  0.49912580112E+02 -0.15873798715E+03  0.73563343192E+02  0.20064433882E+03  0.84602429174E+02 0.  0.
          5    1    3    3  501    0 -0.47510107509E+02  0.13988911038E+03  0.13205778907E+03  0.19821080488E+03  0.47000000000E+01 0. -1.
        -13    1    4    4    0    0 -0.60484006055E+02  0.39977481671E+02 -0.54869014362E+01  0.72709147406E+02  0.00000000000E+00 0.  1.
         14    1    4    4    0    0 -0.16438371910E+02 -0.15490431862E+02  0.38111108837E+02  0.44301581993E+02  0.00000000000E+00 0. -1.
         -5    1    5    5    0  502  0.74519905362E+02 -0.56381730391E+01 -0.55222306011E+01  0.75083888560E+02  0.47000000000E+01 0.  1.
         11    1    6    6    0    0  0.28232749304E+02 -0.23506994633E+02  0.49412928574E+02  0.61573569331E+02  0.00000000000E+00 0. -1.
        -12    1    6    6    0    0  0.21679830808E+02 -0.13523099251E+03  0.24150414618E+02  0.13907076949E+03  0.00000000000E+00 0.  1.
</event>
<event>
12    1  0.1565987E-001  0.1871717E+03  0.7818608E-02  0.1161197E+00
         21   -1    0    0  501  502  0.00000000000E+00  0.00000000000E+00  0.40912519767E+02  0.40912519767E+02  0.00000000000E+00 0. -1.
         21   -1    0    0  502  503 -0.00000000000E+00 -0.00000000000E+00 -0.86966163960E+03  0.86966163960E+03  0.00000000000E+00 0. -1.
         -6    2    1    2    0  503  0.36119394885E+02  0.64787115939E+02 -0.47639136009E+03  0.51158888616E+03  0.17109202025E+03 0.  0.
        -24    2    3    3    0    0  0.65465970711E+02  0.42640983757E+02 -0.17785143728E+03  0.21075695934E+03  0.81751546464E+02 0.  0.
          6    2    1    2  501    0 -0.36119394885E+02 -0.64787115939E+02 -0.35235775975E+03  0.39898527321E+03  0.17184666511E+03 0.  0.
         24    2    5    5    0    0  0.15840444540E+02 -0.69483322939E+02 -0.12409173491E+03  0.16478589796E+03  0.81711575949E+02 0.  0.
          5    1    5    5  501    0 -0.51959839426E+02  0.46962070007E+01 -0.22826602484E+03  0.23419937526E+03  0.47000000000E+01 0. -1.
        -13    1    6    6    0    0 -0.48183138721E+01  0.14906495094E+02 -0.33261391735E+01  0.16015084963E+02  0.00000000000E+00 0.  1.
         14    1    6    6    0    0  0.20658758412E+02 -0.84389818033E+02 -0.12076559573E+03  0.14877081300E+03  0.00000000000E+00 0. -1.
         -5    1    3    3    0  503 -0.29346575826E+02  0.22146132182E+02 -0.29853992281E+03  0.30083192682E+03  0.47000000000E+01 0.  1.
         13    1    4    4    0    0  0.34963609080E+02  0.65915199084E+02 -0.12158790455E+03  0.14265653144E+03  0.00000000000E+00 0. -1.
        -14    1    4    4    0    0  0.30502361631E+02 -0.23274215327E+02 -0.56263532738E+02  0.68100427901E+02  0.00000000000E+00 0.  1.
</event>
<event>
12    1  0.1565987E-001  0.2039879E+03  0.7818608E-02  0.1149973E+00
         21   -1    0    0  503  502  0.00000000000E+00  0.00000000000E+00  0.30148523337E+03  0.30148523337E+03  0.00000000000E+00 0.  1.
         21   -1    0    0  501  503 -0.00000000000E+00 -0.00000000000E+00 -0.26113117526E+03  0.26113117526E+03  0.00000000000E+00 0.  1.
          6    2    1    2  501    0  0.97424740135E+02 -0.55442654538E+02 -0.18088703976E+03  0.27263745010E+03  0.17042766827E+03 0.  0.
         24    2    3    3    0    0  0.21257590949E+02 -0.58878492895E+02 -0.16628386063E+03  0.19486481712E+03  0.80021325581E+02 0.  0.
         -6    2    1    2    0  502 -0.97424740135E+02  0.55442654538E+02  0.22124109787E+03  0.28997895852E+03  0.15024881053E+03 0.  0.
        -24    2    5    5    0    0 -0.36859140689E+01  0.46855039558E+02  0.91334262852E+02  0.12948412861E+03  0.78836611404E+02 0.  0.
          5    1    3    3  501    0  0.76167149186E+02  0.34358383573E+01 -0.14603179134E+02  0.77772632983E+02  0.47000000000E+01 0. -1.
        -11    1    4    4    0    0  0.32433302718E+00 -0.70983065640E+02 -0.88736466064E+02  0.11363477113E+03  0.00000000000E+00 0.  1.
         12    1    4    4    0    0  0.20933257922E+02  0.12104572745E+02 -0.77547394562E+02  0.81230045992E+02  0.00000000000E+00 0. -1.
         -5    1    5    5    0  502 -0.93738826066E+02  0.85876149800E+01  0.12990683501E+03  0.16049482991E+03  0.47000000000E+01 0.  1.
         13    1    6    6    0    0  0.22050159836E+02  0.37414625555E+02  0.92350573024E+02  0.10205239876E+03  0.00000000000E+00 0. -1.
        -14    1    6    6    0    0 -0.25736073905E+02  0.94404140025E+01 -0.10163101719E+01  0.27431729857E+02  0.00000000000E+00 0.  1.
</event>
<event>
12    1  0.1565987E-001  0.1907005E+03  0.7818608E-02  0.1157935E+00
         21   -1    0    0  503  502  0.00000000000E+00  0.00000000000E+00  0.86874007947E+03  0.86874007947E+03  0.00000000000E+00 0. -1.
         21   -1    0    0  501  503 -0.00000000000E+00 -0.00000000000E+00 -0.44850768129E+02  0.44850768129E+02  0.00000000000E+00 0. -1.
          6    2    1    2  501    0 -0.25606100742E+01 -0.81742865062E+02  0.29155281263E+03  0.34812747859E+03  0.17175926783E+03 0.  0.
         24    2    3    3    0    0 -0.58331478197E+02 -0.89299846730E+02  0.17703012497E+03  0.22043631330E+03  0.76651673837E+02 0.  0.
         -6    2    1    2    0  502  0.25606100742E+01  0.81742865062E+02  0.53233649872E+03  0.56546336901E+03  0.17227368086E+03 0.  0.
        -24    2    5    5    0    0 -0.24164852284E+02  0.33766325023E+02  0.12550792238E+03  0.15491790349E+03  0.80766412894E+02 0.  0.
          5    1    3    3  501    0  0.55770868123E+02  0.75569816672E+01  0.11452268766E+03  0.12769116528E+03  0.47000000000E+01 0. -1.
        -11    1    4    4    0    0 -0.37380154724E+02 -0.84377130647E+02  0.17619219958E+03  0.19889813307E+03  0.00000000000E+00 0.  1.
         12    1    4    4    0    0 -0.20951323473E+02 -0.49227160830E+01  0.83792538250E+00  0.21538180235E+02  0.00000000000E+00 0. -1.
         -5    1    5    5    0  502  0.26725462358E+02  0.47976540040E+02  0.40682857634E+03  0.41054546552E+03  0.47000000000E+01 0.  1.
         13    1    6    6    0    0 -0.47558138038E+01  0.15040234578E+02  0.12693391286E+03  0.12791029925E+03  0.00000000000E+00 0. -1.
        -14    1    6    6    0    0 -0.19409038480E+02  0.18726090445E+02 -0.14259904799E+01  0.27007604242E+02  0.00000000000E+00 0.  1.
</event>
<event>
12    1  0.1565987E-001  0.2146596E+03  0.7818608E-02  0.1138170E+00
         21   -1    0    0  503  502  0.00000000000E+00  0.00000000000E+00  0.29807130199E+03  0.29807130199E+03  0.00000000000E+00 0.  1.
         21   -1    0    0  501  503 -0.00000000000E+00 -0.00000000000E+00 -0.19839509447E+03  0.19839509447E+03  0.00000000000E+00 0. -1.
          6    2    1    2  501    0  0.10010813234E+03 -0.79230065609E+02 -0.67885822115E+02  0.22513821464E+03  0.17256792689E+03 0.  0.
         24    2    3    3    0    0  0.54532751445E+02 -0.11885007637E+03 -0.38563547693E+02  0.15784225359E+03  0.79547898611E+02 0.  0.
         -6    2    1    2    0  502 -0.10010813234E+03  0.79230065609E+02  0.16756202963E+03  0.27132818182E+03  0.17100557599E+03 0.  0.
        -24    2    5    5    0    0 -0.11653667776E+02  0.10044191398E+03  0.11127228158E+03  0.16425455973E+03  0.66133604832E+02 0.  0.
          5    1    3    3  501    0  0.45575380892E+02  0.39620010763E+02 -0.29322274423E+02  0.67295961050E+02  0.47000000000E+01 0. -1.
        -11    1    4    4    0    0 -0.13494852384E+02  0.26996036571E+01 -0.38456483687E+01  0.14289433584E+02  0.00000000000E+00 0.  1.
         12    1    4    4    0    0  0.68027603829E+02 -0.12154968003E+03 -0.34717899324E+02  0.14355282001E+03  0.00000000000E+00 0. -1.
         -5    1    5    5    0  502 -0.88454464561E+02 -0.21211848366E+02  0.56289748046E+02  0.10707362209E+03  0.47000000000E+01 0.  1.
         11    1    6    6    0    0 -0.22574390281E+02  0.62187757408E+02  0.27751345252E+02  0.71742995695E+02  0.00000000000E+00 0. -1.
        -12    1    6    6    0    0  0.10920722505E+02  0.38254156567E+02  0.83520936333E+02  0.92511564037E+02  0.00000000000E+00 0.  1.
</event>
<event>
12    1  0.1565987E-001  0.1757049E+03  0.7818608E-02  0.1172154E+00
         21   -1    0    0  503  502  0.00000000000E+00  0.00000000000E+00  0.64503042286E+02  0.64503042286E+02  0.00000000000E+00 0. -1.
         21   -1    0    0  501  503 -0.00000000000E+00 -0.00000000000E+00 -0.13115132242E+04  0.13115132242E+04  0.00000000000E+00 0. -1.
          6    2    1    2  501    0 -0.31872059976E+02  0.47085822853E+01 -0.11725773964E+04  0.11856685779E+04  0.17272587272E+03 0.  0.
         24    2    3    3    0    0  0.33786598688E+01  0.64557728183E+02 -0.80625626510E+03  0.81279085699E+03  0.80004353477E+02 0.  0.
         -6    2    1    2    0  502  0.31872059976E+02 -0.47085822853E+01 -0.74432785518E+02  0.19034768859E+03  0.17220337987E+03 0.  0.
        -24    2    5    5    0    0  0.76583863742E+02 -0.12272725678E+02 -0.90744117732E+01  0.11065974296E+03  0.78406159075E+02 0.  0.
          5    1    3    3  501    0 -0.35250719845E+02 -0.59849145898E+02 -0.36632113126E+03  0.37287772087E+03  0.47000000000E+01 0. -1.
        -11    1    4    4    0    0  0.23148771157E+02 -0.53506282790E+01 -0.98912364259E+02  0.10172586019E+03  0.00000000000E+00 0.  1.
         12    1    4    4    0    0 -0.19770111289E+02  0.69908356462E+02 -0.70734390084E+03  0.71106499679E+03  0.00000000000E+00 0. -1.
         -5    1    5    5    0  502 -0.44711803766E+02  0.75641433923E+01 -0.65358373744E+02  0.79687945637E+02  0.47000000000E+01 0.  1.
         11    1    6    6    0    0 -0.49068449265E+01  0.19869961529E+02 -0.10593323148E+02  0.23045845474E+02  0.00000000000E+00 0. -1.
        -12    1    6    6    0    0  0.81490708669E+02 -0.32142687207E+02  0.15189113751E+01  0.87613897482E+02  0.00000000000E+00 0.  1.
</event>
<event>
12    1  0.1565987E-001  0.1947145E+03  0.7818608E-02  0.1154683E+00
         21   -1    0    0  501  502  0.00000000000E+00  0.00000000000E+00  0.30287371323E+03  0.30287371323E+03  0.00000000000E+00 0.  1.
         21   -1    0    0  502  503 -0.00000000000E+00 -0.00000000000E+00 -0.18726868851E+03  0.18726868851E+03  0.00000000000E+00 0.  1.
         -6    2    1    2    0  503 -0.24400794269E+02  0.81827674627E+02 -0.84468429505E+02  0.21224664307E+03  0.17499301361E+03 0.  0.
        -24    2    3    3    0    0 -0.30268251137E+02 -0.21886505927E+02 -0.24470355116E+02  0.92192833344E+02  0.80656891038E+02 0.  0.
          6    2    1    2  501    0  0.24400794269E+02 -0.81827674627E+02  0.20007345422E+03  0.27789575867E+03  0.17293206328E+03 0.  0.
         24    2    5    5    0    0 -0.13376700578E+02 -0.57458788284E+02  0.32289096077E+02  0.10412964410E+03  0.79498104288E+02 0.  0.
          5    1    5    5  501    0  0.37777494847E+02 -0.24368886344E+02  0.16778435814E+03  0.17376611458E+03  0.47000000000E+01 0. -1.
        -13    1    6    6    0    0  0.17206604483E+02 -0.64607629742E+02  0.27774411128E+02  0.72399108919E+02  0.00000000000E+00 0.  1.
         14    1    6    6    0    0 -0.30583305061E+02  0.71488414583E+01  0.45146849490E+01  0.31730535181E+02  0.00000000000E+00 0. -1.
         -5    1    3    3    0  503  0.58674568680E+01  0.10371418055E+03 -0.59998074389E+02  0.12005380972E+03  0.47000000000E+01 0.  1.
         11    1    4    4    0    0  0.15962396582E+02 -0.36899684841E+02 -0.92020137704E+01  0.41243931717E+02  0.00000000000E+00 0. -1.
        -12    1    4    4    0    0 -0.46230647719E+02  0.15013178914E+02 -0.15268341345E+02  0.50948901627E+02  0.00000000000E+00 0.  1.
</event>
<event>
12    1  0.1565987E-001  0.2279209E+03  0.7818608E-02  0.1128341E+00
         21   -1    0    0  501  502  0.00000000000E+00  0.00000000000E+00  0.16386817958E+03  0.16386817958E+03  0.00000000000E+00 0. -1.
         21   -1    0    0  502  503 -0.00000000000E+00 -0.00000000000E+00 -0.42302050498E+03  0.42302050498E+03  0.00000000000E+00 0.  1.
         -6    2    1    2    0  503 -0.35570390873E+02 -0.14385165954E+03 -0.27797820706E+03  0.35947157242E+03  0.17317440665E+03 0.  0.
        -24    2    3    3    0    0 -0.76000440764E+02 -0.74014726307E+02 -0.22912123525E+03  0.26502116283E+03  0.80532164995E+02 0.  0.
          6    2    1    2  501    0  0.35570390873E+02  0.14385165954E+03  0.18825881657E+02  0.22741711214E+03  0.17148054238E+03 0.  0.
         24    2    5    5    0    0  0.38575873382E+02  0.12423887610E+03 -0.46388231508E+02  0.15908948409E+03  0.78956947651E+02 0.  0.
          5    1    5    5  501    0 -0.30054825091E+01  0.19612783437E+02  0.65214113165E+02  0.68327628052E+02  0.47000000000E+01 0. -1.
        -13    1    6    6    0    0  0.49292092290E+02  0.94776145788E+02 -0.47041853583E+01  0.10693155536E+03  0.00000000000E+00 0.  1.
         14    1    6    6    0    0 -0.10716218908E+02  0.29462730314E+02 -0.41684046150E+02  0.52157928723E+02  0.00000000000E+00 0. -1.
         -5    1    3    3    0  503  0.40430049892E+02 -0.69836933232E+02 -0.48856971808E+02  0.94450409591E+02  0.47000000000E+01 0.  1.
         13    1    4    4    0    0 -0.20349604108E+02  0.15113901286E+02 -0.25887838164E+02  0.36231430612E+02  0.00000000000E+00 0. -1.
        -14    1    4    4    0    0 -0.55650836656E+02 -0.89128627593E+02 -0.20323339709E+03  0.22878973222E+03  0.00000000000E+00 0.  1.
</event>
<event>
12    1  0.1565987E-001  0.4480219E+03  0.7818608E-02  0.1028333E+00
         21   -1    0    0  503  502  0.00000000000E+00  0.00000000000E+00  0.13068009536E+04  0.13068009536E+04  0.00000000000E+00 0. -1.
         21   -1    0    0  501  503 -0.00000000000E+00 -0.00000000000E+00 -0.15821329077E+03  0.15821329077E+03  0.00000000000E+00 0.  1.
          6    2    1    2  501    0  0.40046630690E+03 -0.10427507445E+03  0.70073591833E+03  0.83171778823E+03  0.17168895686E+03 0.  0.
         24    2    3    3    0    0  0.23703077182E+03 -0.11151848772E+03  0.52036468666E+03  0.58816181442E+03  0.80839055716E+02 0.  0.
         -6    2    1    2    0  502 -0.40046630690E+03  0.10427507445E+03  0.44785174448E+03  0.63329645612E+03  0.17101655532E+03 0.  0.
        -24    2    5    5    0    0 -0.65716178398E+02  0.39910816161E+02  0.84067547801E+02  0.13473709353E+03  0.71939157838E+02 0.  0.
          5    1    3    3  501    0  0.16343553508E+03  0.72434132725E+01  0.18037123167E+03  0.24355597380E+03  0.47000000000E+01 0. -1.
        -13    1    4    4    0    0  0.53759483088E+02 -0.61213494620E+02  0.19539832975E+03  0.21170186871E+03  0.00000000000E+00 0.  1.
         14    1    4    4    0    0  0.18327128873E+03 -0.50304993105E+02  0.32496635691E+03  0.37645994572E+03  0.00000000000E+00 0. -1.
         -5    1    5    5    0  502 -0.33475012850E+03  0.64364258292E+02  0.36378419667E+03  0.49855936259E+03  0.47000000000E+01 0.  1.
         13    1    6    6    0    0 -0.11016367346E+02 -0.18808485258E+02  0.56114939570E+01  0.22507961517E+02  0.00000000000E+00 0. -1.
        -14    1    6    6    0    0 -0.54699811052E+02  0.58719301419E+02  0.78456053844E+02  0.11222913202E+03  0.00000000000E+00 0.  1.
</event>
<event>
12    1  0.1565987E-001  0.2736834E+03  0.7818608E-02  0.1099922E+00
         21   -1    0    0  501  502  0.00000000000E+00  0.00000000000E+00  0.15938052153E+04  0.15938052153E+04  0.00000000000E+00 0. -1.
         21   -1    0    0  502  503 -0.00000000000E+00 -0.00000000000E+00 -0.50285687867E+02  0.50285687867E+02  0.00000000000E+00 0.  1.
         -6    2    1    2    0  503  0.19356795734E+03 -0.85108820099E+02  0.52829071714E+03  0.59261948962E+03  0.16551348069E+03 0.  0.
        -24    2    3    3    0    0  0.18396777516E+03 -0.26619871293E+02  0.45848465132E+03  0.50092381112E+03  0.78509421104E+02 0.  0.
          6    2    1    2  501    0 -0.19356795734E+03  0.85108820099E+02  0.10152288103E+04  0.10514714136E+04  0.17375422556E+03 0.  0.
         24    2    5    5    0    0 -0.16071894317E+03  0.46794148765E+02  0.48926625818E+03  0.52307216299E+03  0.78757509147E+02 0.  0.
          5    1    5    5  501    0 -0.32849014172E+02  0.38314671334E+02  0.52596255211E+03  0.52839925056E+03  0.47000000000E+01 0. -1.
        -11    1    6    6    0    0 -0.97736893725E+02  0.28172599301E+02  0.17854867589E+03  0.20548923429E+03  0.00000000000E+00 0.  1.
         12    1    6    6    0    0 -0.62982049443E+02  0.18621549464E+02  0.31071758230E+03  0.31758292870E+03  0.00000000000E+00 0. -1.
         -5    1    3    3    0  503  0.96001821855E+01 -0.58488948806E+02  0.69806065814E+02  0.91695678496E+02  0.47000000000E+01 0.  1.
         11    1    4    4    0    0  0.10879267094E+03 -0.84559511659E+01  0.35715304589E+03  0.37345099618E+03  0.00000000000E+00 0. -1.
        -12    1    4    4    0    0  0.75175104216E+02 -0.18163920127E+02  0.10133160544E+03  0.12747281494E+03  0.00000000000E+00 0.  1.
</event>
<event>
12    1  0.1565987E-001  0.1919272E+03  0.7818608E-02  0.1156937E+00
         21   -1    0    0  503  502  0.00000000000E+00  0.00000000000E+00  0.31066773275E+03  0.31066773275E+03  0.00000000000E+00 0.  1.
         21   -1    0    0  501  503 -0.00000000000E+00 -0.00000000000E+00 -0.16144168710E+03  0.16144168710E+03  0.00000000000E+00 0. -1.
          6    2    1    2  501    0 -0.82073521863E+02  0.20894700286E+02 -0.47948671826E+02  0.19694779483E+03  0.17122122318E+03 0.  0.
         24    2    3    3    0    0 -0.28928475483E+02 -0.49079043847E+02 -0.18520765252E+02  0.10416410818E+03  0.85214631662E+02 0.  0.
         -6    2    1    2    0  502  0.82073521863E+02 -0.20894700286E+02  0.19717471747E+03  0.27516162502E+03  0.17223065692E+03 0.  0.
        -24    2    5    5    0    0  0.48705611097E+02 -0.11254149979E+02  0.21595779183E+03  0.23539667109E+03  0.79214471309E+02 0.  0.
          5    1    3    3  501    0 -0.53145046379E+02  0.69973744134E+02 -0.29427906574E+02  0.92783686648E+02  0.47000000000E+01 0. -1.
        -13    1    4    4    0    0 -0.68781862445E+01 -0.17930024435E+02  0.34114954274E+02  0.39148758950E+02  0.00000000000E+00 0.  1.
         14    1    4    4    0    0 -0.22050289239E+02 -0.31149019412E+02 -0.52635719526E+02  0.65015349233E+02  0.00000000000E+00 0. -1.
         -5    1    5    5    0  502  0.33367910766E+02 -0.96405503078E+01 -0.18783074353E+02  0.39764953933E+02  0.47000000000E+01 0.  1.
         11    1    6    6    0    0 -0.21552196936E+01 -0.36474405178E+02  0.74676442418E+02  0.83136022621E+02  0.00000000000E+00 0. -1.
        -12    1    6    6    0    0  0.50860830790E+02  0.25220255199E+02  0.14128134941E+03  0.15226064847E+03  0.00000000000E+00 0.  1.
</event>
<event>
12    1  0.1565987E-001  0.2072985E+03  0.7818608E-02  0.1143934E+00
         21   -1    0    0  501  502  0.00000000000E+00  0.00000000000E+00  0.45193145925E+02  0.45193145925E+02  0.00000000000E+00 0.  1.
         21   -1    0    0  502  503 -0.00000000000E+00 -0.00000000000E+00 -0.10059641913E+04  0.10059641913E+04  0.00000000000E+00 0.  1.
         -6    2    1    2    0  503  0.95580491598E+02  0.64212321117E+02 -0.60975135643E+03  0.64402591396E+03  0.17237693760E+03 0.  0.
        -24    2    3    3    0    0  0.12442874548E+03  0.28924159116E+02 -0.54076235645E+03  0.56120654274E+03  0.78801889464E+02 0.  0.
          6    2    1    2  501    0 -0.95580491598E+02 -0.64212321117E+02 -0.35101968890E+03  0.40713142323E+03  0.17112077964E+03 0.  0.
         24    2    5    5    0    0 -0.12975778435E+03 -0.75776100956E+02 -0.28314020708E+03  0.33011504577E+03  0.78920634210E+02 0.  0.
          5    1    5    5  501    0  0.34177292752E+02  0.11563779839E+02 -0.67879481822E+02  0.77016377456E+02  0.47000000000E+01 0. -1.
        -13    1    6    6    0    0 -0.51940275685E+02 -0.19889485322E+02 -0.18410302022E+03  0.19232084109E+03  0.00000000000E+00 0.  1.
         14    1    6    6    0    0 -0.77817508666E+02 -0.55886615635E+02 -0.99037186858E+02  0.13779420468E+03  0.00000000000E+00 0. -1.
         -5    1    3    3    0  503 -0.28848253880E+02  0.35288162001E+02 -0.68988999986E+02  0.82819371215E+02  0.47000000000E+01 0.  1.
         11    1    4    4    0    0  0.17894972814E+02 -0.45279260657E+01 -0.23446251122E+03  0.23518801274E+03  0.00000000000E+00 0. -1.
        -12    1    4    4    0    0  0.10653377266E+03  0.33452085182E+02 -0.30629984522E+03  0.32601853000E+03  0.00000000000E+00 0.  1.
</event>
<event>
12    1  0.1565987E-001  0.3451643E+03  0.7818608E-02  0.1065131E+00
         21   -1    0    0  503  502  0.00000000000E+00  0.00000000000E+00  0.11983367915E+04  0.11983367915E+04  0.00000000000E+00 0.  1.
         21   -1    0    0  501  503 -0.00000000000E+00 -0.00000000000E+00 -0.19308574127E+03  0.19308574127E+03  0.00000000000E+00 0.  1.
          6    2    1    2  501    0  0.12028853966E+03  0.26892350827E+03  0.12651199207E+02  0.34052155082E+03  0.17031056239E+03 0.  0.
         24    2    3    3    0    0  0.92750743399E+02  0.10334563364E+03 -0.42408217805E+02  0.16380711398E+03  0.75837281451E+02 0.  0.
         -6    2    1    2    0  502 -0.12028853966E+03 -0.26892350827E+03  0.99259985106E+03  0.10509009820E+04  0.17985889901E+03 0.  0.
        -24    2    5    5    0    0 -0.62090555824E+02 -0.14418460149E+03  0.32789562073E+03  0.37207802716E+03  0.79259597344E+02 0.  0.
          5    1    3    3  501    0  0.27537796256E+02  0.16557787463E+03  0.55059417012E+02  0.17671443685E+03  0.47000000000E+01 0. -1.
        -11    1    4    4    0    0  0.96648690128E+02  0.11217934579E+03 -0.42833035614E+02  0.15414228448E+03  0.00000000000E+00 0.  1.
         12    1    4    4    0    0 -0.38979467289E+01 -0.88337121474E+01  0.42481780888E+00  0.96648294954E+01  0.00000000000E+00 0. -1.
         -5    1    5    5    0  502 -0.58197983831E+02 -0.12473890677E+03  0.66470423033E+03  0.67882295483E+03  0.47000000000E+01 0.  1.
         13    1    6    6    0    0  0.14175824648E+01  0.91275607500E+01  0.25816412031E+02  0.27419136301E+02  0.00000000000E+00 0. -1.
        -14    1    6    6    0    0 -0.63508138289E+02 -0.15331216224E+03  0.30207920870E+03  0.34465889086E+03  0.00000000000E+00 0.  1.
</event>
<event>
12    1  0.1565987E-001  0.1890693E+03  0.7818608E-02  0.1160228E+00
         21   -1    0    0  503  502  0.00000000000E+00  0.00000000000E+00  0.18008278454E+03  0.18008278454E+03  0.00000000000E+00 0.  1.
         21   -1    0    0  501  503 -0.00000000000E+00 -0.00000000000E+00 -0.63158569732E+03  0.63158569732E+03  0.00000000000E+00 0.  1.
          6    2    1    2  501    0 -0.10885898282E+02  0.65850095643E+02 -0.56268598965E+03  0.59233108481E+03  0.17258578507E+03 0.  0.
         24    2    3    3    0    0 -0.69050657934E+02  0.14152931906E+02 -0.29945095468E+03  0.31779418448E+03  0.79711797072E+02 0.  0.
         -6    2    1    2    0  502  0.10885898282E+02 -0.65850095643E+02  0.11118307686E+03  0.21933739706E+03  0.17689680407E+03 0.  0.
        -24    2    5    5    0    0 -0.77716482340E+01 -0.10708885554E+03  0.10827966136E+03  0.17373850254E+03  0.83259598272E+02 0.  0.
          5    1    3    3  501    0  0.58164759652E+02  0.51697163737E+02 -0.26323503497E+03  0.27453690032E+03  0.47000000000E+01 0. -1.
        -13    1    4    4    0    0 -0.98210756773E+01 -0.10670388512E+02 -0.19248250906E+03  0.19302804722E+03  0.00000000000E+00 0.  1.
         14    1    4    4    0    0 -0.59229582256E+02  0.24823320418E+02 -0.10696844562E+03  0.12476613727E+03  0.00000000000E+00 0. -1.
         -5    1    5    5    0  502  0.18657546516E+02  0.41238759894E+02  0.29034154995E+01  0.45598894517E+02  0.47000000000E+01 0.  1.
         11    1    6    6    0    0  0.35606017125E+02 -0.36140062312E+02  0.27066920642E+02  0.57502267368E+02  0.00000000000E+00 0. -1.
        -12    1    6    6    0    0 -0.43377665359E+02 -0.70948793225E+02  0.81212740721E+02  0.11623623517E+03  0.00000000000E+00 0.  1.
</event>
<event>
12    1  0.1565987E-001  0.2047063E+03  0.7818608E-02  0.1146405E+00
         21   -1    0    0  503  502  0.00000000000E+00  0.00000000000E+00  0.13531987568E+03  0.13531987568E+03  0.00000000000E+00 0.  1.
         21   -1    0    0  501  503 -0.00000000000E+00 -0.00000000000E+00 -0.32702694584E+03  0.32702694584E+03  0.00000000000E+00 0. -1.
          6    2    1    2  501    0  0.98341806291E+02 -0.37928895386E+02 -0.15584728143E+03  0.25728006434E+03  0.17548488370E+03 0.  0.
         24    2    3    3    0    0  0.10439343366E+03 -0.79920003714E+02 -0.14776040282E+03  0.21383627332E+03  0.81287263203E+02 0.  0.
         -6    2    1    2    0  502 -0.98341806291E+02  0.37928895386E+02 -0.35859788732E+02  0.20506675718E+03  0.17221131926E+03 0.  0.
        -24    2    5    5    0    0 -0.11138342015E+03  0.95459222355E+01 -0.73748157438E+02  0.15573831366E+03  0.79487361881E+02 0.  0.
          5    1    3    3  501    0 -0.60516273694E+01  0.41991108328E+02 -0.80868786072E+01  0.43443791019E+02  0.47000000000E+01 0. -1.
        -13    1    4    4    0    0  0.76478853075E+01 -0.13955922461E+02  0.89137246057E+01  0.18240405910E+02  0.00000000000E+00 0.  1.
         14    1    4    4    0    0  0.96745548353E+02 -0.65964081253E+02 -0.15667412743E+03  0.19559586741E+03  0.00000000000E+00 0. -1.
         -5    1    5    5    0  502  0.13041613860E+02  0.28382973150E+02  0.37888368706E+02  0.49328443520E+02  0.47000000000E+01 0.  1.
         13    1    6    6    0    0 -0.85984883015E+02 -0.28537622189E+02 -0.40929919344E+02  0.99413551817E+02  0.00000000000E+00 0. -1.
        -14    1    6    6    0    0 -0.25398537136E+02  0.38083544424E+02 -0.32818238094E+02  0.56324761839E+02  0.00000000000E+00 0.  1.
</event>
<event>
12    1  0.1565987E-001  0.1996729E+03  0.7818608E-02  0.1150085E+00
         21   -1    0    0  501  502  0.00000000000E+00  0.00000000000E+00  0.15312826485E+03  0.15312826485E+03  0.00000000000E+00 0. -1.
         21   -1    0    0  502  503 -0.00000000000E+00 -0.00000000000E+00 -0.36362552022E+03  0.36362552022E+03  0.00000000000E+00 0. -1.
         -6    2    1    2    0  503  0.44245933777E+02 -0.90619603310E+02 -0.24328202185E+03  0.31473069439E+03  0.17233587170E+03 0.  0.
        -24    2    3    3    0    0  0.20488849833E+02 -0.12672902804E+03 -0.20880853666E+03  0.25924375203E+03  0.84417287725E+02 0.  0.
          6    2    1    2  501    0 -0.44245933777E+02  0.90619603310E+02  0.32784766482E+02  0.20202309068E+03  0.17195602081E+03 0.  0.
         24    2    5    5    0    0 -0.16969026608E+02 -0.12642457998E+01  0.61607865239E+02  0.10182562358E+03  0.79267789018E+02 0.  0.
          5    1    5    5  501    0 -0.27276907169E+02  0.91883849109E+02 -0.28823098757E+02  0.10019746710E+03  0.47000000000E+01 0. -1.
        -13    1    6    6    0    0  0.31044560159E+02  0.64179987332E+01  0.31182541655E+02  0.44466912725E+02  0.00000000000E+00 0.  1.
         14    1    6    6    0    0 -0.48013586767E+02 -0.76822445331E+01  0.30425323584E+02  0.57358710851E+02  0.00000000000E+00 0. -1.
         -5    1    3    3    0  503  0.23757083944E+02  0.36109424726E+02 -0.34473485184E+02  0.55486942359E+02  0.47000000000E+01 0.  1.
         11    1    4    4    0    0  0.45714526858E+02 -0.43431823280E+02 -0.11586641434E+03  0.13191348381E+03  0.00000000000E+00 0. -1.
        -12    1    4    4    0    0 -0.25225677026E+02 -0.83297204756E+02 -0.92942122322E+02  0.12733026821E+03  0.00000000000E+00 0.  1.
</event>
<event>
12    1  0.1565987E-001  0.2021592E+03  0.7818608E-02  0.1148528E+00
         21   -1    0    0  503  502  0.00000000000E+00  0.00000000000E+00  0.39126026156E+03  0.39126026156E+03  0.00000000000E+00 0. -1.
         21   -1    0    0  501  503 -0.00000000000E+00 -0.00000000000E+00 -0.37047534432E+03  0.37047534432E+03  0.00000000000E+00 0. -1.
          6    2    1    2  501    0 -0.10529022150E+03 -0.11012258122E+02 -0.31321552064E+03  0.37278991853E+03  0.17222386714E+03 0.  0.
         24    2    3    3    0    0  0.40900037813E+01 -0.84791417144E+01 -0.19413440413E+03  0.21100965808E+03  0.82147945564E+02 0.  0.
         -6    2    1    2    0  502  0.10529022150E+03  0.11012258122E+02  0.33400043788E+03  0.38894568735E+03  0.16886430833E+03 0.  0.
        -24    2    5    5    0    0 -0.10149882653E+02 -0.31079667419E+01  0.16369132936E+03  0.18266170629E+03  0.80360239298E+02 0.  0.
          5    1    3    3  501    0 -0.10938022529E+03 -0.25331164079E+01 -0.11908111651E+03  0.16178026045E+03  0.47000000000E+01 0. -1.
        -13    1    4    4    0    0  0.27963617493E+02 -0.32479202436E+02 -0.14601997459E+03  0.15217981297E+03  0.00000000000E+00 0.  1.
         14    1    4    4    0    0 -0.23873613712E+02  0.24000060721E+02 -0.48114429535E+02  0.58829845111E+02  0.00000000000E+00 0. -1.
         -5    1    5    5    0  502  0.11544010416E+03  0.14120224864E+02  0.17030910852E+03  0.20628398106E+03  0.47000000000E+01 0.  1.
         11    1    6    6    0    0  0.12504097558E+02  0.33259506014E+02  0.97899569870E+02  0.10414832201E+03  0.00000000000E+00 0. -1.
        -12    1    6    6    0    0 -0.22653980210E+02 -0.36367472756E+02  0.65791759492E+02  0.78513384280E+02  0.00000000000E+00 0.  1.
</event>
<event>
12    1  0.1565987E-001  0.2418093E+03  0.7818608E-02  0.1118666E+00
         21   -1    0    0  503  502  0.00000000000E+00  0.00000000000E+00  0.13107882380E+03  0.13107882380E+03  0.00000000000E+00 0.  1.
         21   -1    0    0  501  503 -0.00000000000E+00 -0.00000000000E+00 -0.44527594842E+03  0.44527594842E+03  0.00000000000E+00 0.  1.
          6    2    1    2  501    0 -0.15805157644E+03 -0.63242374881E+02 -0.15752841174E+03  0.28822837615E+03  0.17111545084E+03 0.  0.
         24    2    3    3    0    0 -0.11361905433E+03  0.32383870667E+01 -0.16424658558E+03  0.20784700647E+03  0.57477478784E+02 0.  0.
         -6    2    1    2    0  502  0.15805157644E+03  0.63242374881E+02 -0.15666871288E+03  0.28812639608E+03  0.17173187161E+03 0.  0.
        -24    2    5    5    0    0  0.42351700326E+02  0.39358349054E+02 -0.11344478105E+02  0.10078144356E+03  0.81764637961E+02 0.  0.
          5    1    3    3  501    0 -0.44432522114E+02 -0.66480761947E+02  0.67181738477E+01  0.80381369672E+02  0.47000000000E+01 0. -1.
        -13    1    4    4    0    0 -0.34939728313E+02  0.86751385779E+01 -0.14913676994E+02  0.38967427493E+02  0.00000000000E+00 0.  1.
         14    1    4    4    0    0 -0.78679326014E+02 -0.54367515111E+01 -0.14933290859E+03  0.16887957898E+03  0.00000000000E+00 0. -1.
         -5    1    5    5    0  502  0.11569987611E+03  0.23884025826E+02 -0.14532423478E+03  0.18734495253E+03  0.47000000000E+01 0.  1.
         11    1    6    6    0    0  0.16516414895E+02  0.29460019013E+02 -0.45602083015E+02  0.56747111438E+02  0.00000000000E+00 0. -1.
        -12    1    6    6    0    0  0.25835285431E+02  0.98983300418E+01  0.34257604910E+02  0.44034332118E+02  0.00000000000E+00 0.  1.
</event>
<event>
12    1  0.1565987E-001  0.3010946E+03  0.7818608E-02  0.1084908E+00
         21   -1    0    0  503  502  0.00000000000E+00  0.00000000000E+00  0.58412442745E+02  0.58412442745E+02  0.00000000000E+00 0.  1.
         21   -1    0    0  501  503 -0.00000000000E+00 -0.00000000000E+00 -0.15771332194E+04  0.15771332194E+04  0.00000000000E+00 0. -1.
          6    2    1    2  501    0 -0.23372917132E+03  0.70654557384E+02 -0.87712327064E+03  0.92681066962E+03  0.17323796755E+03 0.  0.
         24    2    3    3    0    0 -0.57253994817E+02 -0.18658046659E+02 -0.36185311305E+03  0.37486352136E+03  0.77193533360E+02 0.  0.
         -6    2    1    2    0  502  0.23372917132E+03 -0.70654557384E+02 -0.64159750601E+03  0.70873499253E+03  0.17617189875E+03 0.  0.
        -24    2    5    5    0    0  0.20264329815E+03  0.44524757249E+01 -0.43006402529E+03  0.48207246497E+03  0.79716151481E+02 0.  0.
          5    1    3    3  501    0 -0.17647517651E+03  0.89312604043E+02 -0.51527015759E+03  0.55194714825E+03  0.47000000000E+01 0. -1.
        -11    1    4    4    0    0 -0.29767396892E+02  0.13671839014E+02 -0.47743285416E+02  0.57900245267E+02  0.00000000000E+00 0.  1.
         12    1    4    4    0    0 -0.27486597925E+02 -0.32329885672E+02 -0.31410982764E+03  0.31696327609E+03  0.00000000000E+00 0. -1.
         -5    1    5    5    0  502  0.31085873170E+02 -0.75107033109E+02 -0.21153348073E+03  0.22666252756E+03  0.47000000000E+01 0.  1.
         11    1    6    6    0    0  0.60387620467E+02  0.38351062572E+02 -0.14499692849E+03  0.16168357362E+03  0.00000000000E+00 0. -1.
        -12    1    6    6    0    0  0.14225567769E+03 -0.33898586847E+02 -0.28506709680E+03  0.32038889135E+03  0.00000000000E+00 0.  1.
</event>
<event>
12    1  0.1565987E-001  0.1763129E+03  0.7818608E-02  0.1172038E+00
         21   -1    0    0  503  502  0.00000000000E+00  0.00000000000E+00  0.10957724858E+03  0.10957724858E+03  0.00000000000E+00 0.  1.
         21   -1    0    0  501  503 -0.00000000000E+00 -0.00000000000E+00 -0.28406305020E+03  0.28406305020E+03  0.00000000000E+00 0.  1.
          6    2    1    2  501    0  0.38538851782E+02  0.71859466394E+01 -0.11214051520E+03  0.20895392578E+03  0.17189929327E+03 0.  0.
         24    2    3    3    0    0  0.45862716251E+02  0.24683642346E+02 -0.21794733612E+02  0.11651876691E+03  0.10192615802E+03 0.  0.
         -6    2    1    2    0  502 -0.38538851782E+02 -0.71859466394E+01 -0.62345286434E+02  0.18468637300E+03  0.16936717718E+03 0.  0.
        -24    2    5    5    0    0  0.14680442475E+02 -0.16678502144E+02  0.19988154142E+02  0.86079642354E+02  0.80724783658E+02 0.  0.
          5    1    3    3  501    0 -0.73238644691E+01 -0.17497695707E+02 -0.90345781583E+02  0.92435158872E+02  0.47000000000E+01 0. -1.
        -13    1    4    4    0    0 -0.14894099388E+02 -0.28134812147E+02 -0.16457033310E+02  0.35836235802E+02  0.00000000000E+00 0.  1.
         14    1    4    4    0    0  0.60756815639E+02  0.52818454493E+02 -0.53377003022E+01  0.80682531109E+02  0.00000000000E+00 0. -1.
         -5    1    5    5    0  502 -0.53219294257E+02  0.94925555049E+01 -0.82333440576E+02  0.98606730644E+02  0.47000000000E+01 0.  1.
         13    1    6    6    0    0  0.37105908322E+02  0.18640501223E+02  0.13971014391E+02  0.43812166819E+02  0.00000000000E+00 0. -1.
        -14    1    6    6    0    0 -0.22425465846E+02 -0.35319003368E+02  0.60171397516E+01  0.42267475535E+02  0.00000000000E+00 0.  1.
</event>
<event>
12    1  0.1565987E-001  0.3141957E+03  0.7818608E-02  0.1078497E+00
         21   -1    0    0  503  502  0.00000000000E+00  0.00000000000E+00  0.46042080390E+03  0.46042080390E+03  0.00000000000E+00 0. -1.
         21   -1    0    0  501  503 -0.00000000000E+00 -0.00000000000E+00 -0.28152026694E+03  0.28152026694E+03  0.00000000000E+00 0. -1.
          6    2    1    2  501    0 -0.51017349568E-03  0.26218537746E+03 -0.92670132635E+02  0.32757702858E+03  0.17314093687E+03 0.  0.
         24    2    3    3    0    0 -0.36870064144E+02  0.10300017789E+03 -0.95923026493E+02  0.16407790599E+03  0.75841241732E+02 0.  0.
         -6    2    1    2    0  502  0.51017349568E-03 -0.26218537746E+03  0.27157066960E+03  0.41436404226E+03  0.17089692445E+03 0.  0.
        -24    2    5    5    0    0 -0.43074577517E+01 -0.37435082715E+02  0.99695312073E+02  0.13135435675E+03  0.76778070936E+02 0.  0.
          5    1    3    3  501    0  0.36869553970E+02  0.15918519956E+03  0.32528938580E+01  0.16349912259E+03  0.47000000000E+01 0. -1.
        -11    1    4    4    0    0  0.16771802824E+02  0.13428946126E+02 -0.40566810166E+02  0.45905294369E+02  0.00000000000E+00 0.  1.
         12    1    4    4    0    0 -0.53641866967E+02  0.89571231768E+02 -0.55356216327E+02  0.11817261162E+03  0.00000000000E+00 0. -1.
         -5    1    5    5    0  502  0.43079679252E+01 -0.22475029474E+03  0.17187535752E+03  0.28300968552E+03  0.47000000000E+01 0.  1.
         11    1    6    6    0    0 -0.28081569244E+02 -0.24568540996E+02  0.97308419678E+02  0.10421667946E+03  0.00000000000E+00 0. -1.
        -12    1    6    6    0    0  0.23774111492E+02 -0.12866541719E+02  0.23868923952E+01  0.27137677284E+02  0.00000000000E+00 0.  1.
</event>
<event>
12    1  0.1565987E-001  0.1813105E+03  0.7818608E-02  0.1167837E+00
         21   -1    0    0  503  502  0.00000000000E+00  0.00000000000E+00  0.10670984440E+04  0.10670984440E+04  0.00000000000E+00 0.  1.
         21   -1    0    0  501  503 -0.00000000000E+00 -0.00000000000E+00 -0.10078930648E+03  0.10078930648E+03  0.00000000000E+00 0.  1.
          6    2    1    2  501    0 -0.16853258000E+02  0.26380549014E+02 -0.86631775687E+01  0.17620003966E+03  0.17318036165E+03 0.  0.
         24    2    3    3    0    0  0.44235086185E+02 -0.28053835607E+01  0.33674985322E+02  0.96211199865E+02  0.78472780734E+02 0.  0.
         -6    2    1    2    0  502  0.16853258000E+02 -0.26380549014E+02  0.97497231512E+03  0.99168771085E+03  0.17858761137E+03 0.  0.
        -24    2    5    5    0    0  0.15271137861E+02  0.55333463300E+02  0.47705263583E+03  0.48708313305E+03  0.79848364671E+02 0.  0.
          5    1    3    3  501    0 -0.61088344186E+02  0.29185932574E+02 -0.42338162891E+02  0.79988839800E+02  0.47000000000E+01 0. -1.
        -11    1    4    4    0    0  0.15427927418E+02  0.31390312624E+02 -0.71095313666E+01  0.35691989399E+02  0.00000000000E+00 0.  1.
         12    1    4    4    0    0  0.28807158768E+02 -0.34195696185E+02  0.40784516689E+02  0.60519210465E+02  0.00000000000E+00 0. -1.
         -5    1    5    5    0  502  0.15821201397E+01 -0.81714012313E+02  0.49791967929E+03  0.50460457780E+03  0.47000000000E+01 0.  1.
         13    1    6    6    0    0 -0.81449066560E+01  0.19024479151E+02  0.38325522176E+03  0.38381354239E+03  0.00000000000E+00 0. -1.
        -14    1    6    6    0    0  0.23416044517E+02  0.36308984148E+02  0.93797414067E+02  0.10326959067E+03  0.00000000000E+00 0.  1.
</event>
<event>
12    1  0.1565987E-001  0.1821984E+03  0.7818608E-02  0.1166440E+00
         21   -1    0    0  501  502  0.00000000000E+00  0.00000000000E+00  0.82653704967E+02  0.82653704967E+02  0.00000000000E+00 0. -1.
         21   -1    0    0  502  503 -0.00000000000E+00 -0.00000000000E+00 -0.49860386125E+03  0.49860386125E+03  0.00000000000E+00 0. -1.
         -6    2    1    2    0  503  0.15859547228E+02  0.46846552319E+02 -0.33916001882E+03  0.38353811773E+03  0.17212159853E+03 0.  0.
        -24    2    3    3    0    0 -0.70178452347E+01  0.50523300420E+02 -0.95897632740E+02  0.13912950077E+03  0.86941405447E+02 0.  0.
          6    2    1    2  501    0 -0.15859547228E+02 -0.46846552319E+02 -0.76790137459E+02  0.19771944849E+03  0.17535715097E+03 0.  0.
         24    2    5    5    0    0 -0.69060237790E+02 -0.59070511020E+02 -0.58047595909E+02  0.13981339089E+03  0.88992242167E+02 0.  0.
          5    1    5    5  501    0  0.53200690562E+02  0.12223958701E+02 -0.18742541550E+02  0.57906057596E+02  0.47000000000E+01 0. -1.
        -11    1    6    6    0    0  0.20703957643E+02 -0.14213912756E+02 -0.28192394743E+01  0.25271273991E+02  0.00000000000E+00 0.  1.
         12    1    6    6    0    0 -0.89764195433E+02 -0.44856598263E+02 -0.55228356435E+02  0.11454211690E+03  0.00000000000E+00 0. -1.
         -5    1    3    3    0  503  0.22877392463E+02 -0.36767481014E+01 -0.24326238608E+03  0.24440861696E+03  0.47000000000E+01 0.  1.
         11    1    4    4    0    0  0.29442295909E+02 -0.14814758809E+01 -0.77450398041E+01  0.30479980327E+02  0.00000000000E+00 0. -1.
        -12    1    4    4    0    0 -0.36460141143E+02  0.52004776301E+02 -0.88152592936E+02  0.10864952044E+03  0.00000000000E+00 0.  1.
</event>
<event>
12    1  0.1565987E-001  0.3050243E+03  0.7818608E-02  0.1083113E+00
         21   -1    0    0  503  502  0.00000000000E+00  0.00000000000E+00  0.23290172680E+03  0.23290172680E+03  0.00000000000E+00 0.  1.
         21   -1    0    0  501  503 -0.00000000000E+00 -0.00000000000E+00 -0.62218046610E+03  0.62218046610E+03  0.00000000000E+00 0. -1.
          6    2    1    2  501    0  0.12776698892E+03 -0.21270206252E+03 -0.45200197559E+03  0.54367569163E+03  0.17236850315E+03 0.  0.
         24    2    3    3    0    0  0.12274897941E+03 -0.12347109945E+03 -0.38996735962E+03  0.43478249273E+03  0.81540481163E+02 0.  0.
         -6    2    1    2    0  502 -0.12776698892E+03  0.21270206252E+03  0.62723236283E+02  0.31140650127E+03  0.17740697226E+03 0.  0.
        -24    2    5    5    0    0 -0.13641530192E+03  0.22058859407E+03  0.27492255002E+02  0.27398588209E+03  0.83928404428E+02 0.  0.
          5    1    3    3  501    0  0.50180095056E+01 -0.89230963065E+02 -0.62034615969E+02  0.10889319890E+03  0.47000000000E+01 0. -1.
        -11    1    4    4    0    0  0.11318486753E+03 -0.86456197940E+02 -0.23179820488E+03  0.27205862638E+03  0.00000000000E+00 0.  1.
         12    1    4    4    0    0  0.95641118826E+01 -0.37014901513E+02 -0.15816915473E+03  0.16272386635E+03  0.00000000000E+00 0. -1.
         -5    1    5    5    0  502  0.86483129993E+01 -0.78865315514E+01  0.35230981281E+02  0.37420619178E+02  0.47000000000E+01 0.  1.
         13    1    6    6    0    0 -0.42766322040E+02  0.13456077058E+02  0.10408472502E+02  0.46025651657E+02  0.00000000000E+00 0. -1.
        -14    1    6    6    0    0 -0.93648979879E+02  0.20713251701E+03  0.17083782500E+02  0.22796023044E+03  0.00000000000E+00 0.  1.
</event>
<event>
12    1  0.1565987E-001  0.1808126E+03  0.7818608E-02  0.1167291E+00
         21   -1    0    0  501  502  0.00000000000E+00  0.00000000000E+00  0.20508265357E+03  0.20508265357E+03  0.00000000000E+00 0. -1.
         21   -1    0    0  502  503 -0.00000000000E+00 -0.00000000000E+00 -0.35069993379E+03  0.35069993379E+03  0.00000000000E+00 0. -1.
         -6    2    1    2    0  503 -0.45567471660E+02 -0.28015053199E+02 -0.27867610026E+03  0.33219505300E+03  0.17271927138E+03 0.  0.
        -24    2    3    3    0    0  0.39539400370E+02 -0.48464457913E+01 -0.11521344067E+03  0.14639382826E+03  0.81056547078E+02 0.  0.
          6    2    1    2  501    0  0.45567471660E+02  0.28015053199E+02  0.13305882004E+03  0.22358753436E+03  0.17153862030E+03 0.  0.
         24    2    5    5    0    0 -0.30796376902E+02  0.23171289231E+02  0.27777092262E+02  0.93352241065E+02  0.80360118109E+02 0.  0.
          5    1    5    5  501    0  0.76363848561E+02  0.48437639681E+01  0.10528172778E+03  0.13023529330E+03  0.47000000000E+01 0. -1.
        -13    1    6    6    0    0 -0.40573925135E+02  0.12519099306E+02  0.50773085158E+02  0.66188197020E+02  0.00000000000E+00 0.  1.
         14    1    6    6    0    0  0.97775482339E+01  0.10652189925E+02 -0.22995992895E+02  0.27164044045E+02  0.00000000000E+00 0. -1.
         -5    1    3    3    0  503 -0.85106872030E+02 -0.23168607408E+02 -0.16346265959E+03  0.18580122474E+03  0.47000000000E+01 0.  1.
         11    1    4    4    0    0 -0.34539438160E+01 -0.33244106247E+02 -0.71100812968E+02  0.78564788122E+02  0.00000000000E+00 0. -1.
        -12    1    4    4    0    0  0.42993344186E+02  0.28397660456E+02 -0.44112627704E+02  0.67829040143E+02  0.00000000000E+00 0.  1.
</event>
<event>
12    1  0.1565987E-001  0.2416448E+03  0.7818608E-02  0.1119613E+00
         21   -1    0    0  503  502  0.00000000000E+00  0.00000000000E+00  0.14818939502E+04  0.14818939502E+04  0.00000000000E+00 0. -1.
         21   -1    0    0  501  503 -0.00000000000E+00 -0.00000000000E+00 -0.53008229881E+02  0.53008229881E+02  0.00000000000E+00 0.  1.
          6    2    1    2  501    0  0.48514410136E+02 -0.15385966533E+03  0.31915937695E+03  0.40031852877E+03  0.17990489703E+03 0.  0.
         24    2    3    3    0    0  0.21241965016E+02 -0.17656203358E+03  0.30500312734E+03  0.36182602054E+03  0.79156734845E+02 0.  0.
         -6    2    1    2    0  502 -0.48514410136E+02  0.15385966533E+03  0.11097263433E+04  0.11345836513E+04  0.17251394160E+03 0.  0.
        -24    2    5    5    0    0 -0.76832612549E+02  0.10963762492E+03  0.53068472218E+03  0.55314681165E+03  0.80134023577E+02 0.  0.
          5    1    3    3  501    0  0.27272445120E+02  0.22702368249E+02  0.14156249611E+02  0.38492508232E+02  0.47000000000E+01 0. -1.
        -13    1    4    4    0    0 -0.78851327467E+01 -0.10485109279E+03  0.11071694917E+03  0.15268978293E+03  0.00000000000E+00 0.  1.
         14    1    4    4    0    0  0.29127097763E+02 -0.71710940794E+02  0.19428617817E+03  0.20913623761E+03  0.00000000000E+00 0. -1.
         -5    1    5    5    0  502  0.28318202413E+02  0.44222040418E+02  0.57904162115E+03  0.58143683963E+03  0.47000000000E+01 0.  1.
         13    1    6    6    0    0 -0.41794972477E+02  0.38898643371E+02  0.36706956243E+03  0.37148349606E+03  0.00000000000E+00 0. -1.
        -14    1    6    6    0    0 -0.35037640072E+02  0.70738981545E+02  0.16361515975E+03  0.18166331559E+03  0.00000000000E+00 0.  1.
</event>
<event>
12    1  0.1565987E-001  0.1813091E+03  0.7818608E-02  0.1166599E+00
         21   -1    0    0  503  502  0.00000000000E+00  0.00000000000E+00  0.37522405028E+03  0.37522405028E+03  0.00000000000E+00 0.  1.
         21   -1    0    0  501  503 -0.00000000000E+00 -0.00000000000E+00 -0.12750741491E+03  0.12750741491E+03  0.00000000000E+00 0.  1.
          6    2    1    2  501    0 -0.56255350816E+02  0.88437844800E+01  0.26472437639E+03  0.32086129392E+03  0.17213395210E+03 0.  0.
         24    2    3    3    0    0 -0.33120318554E+02 -0.15934646365E+02  0.46154534800E+02  0.99628235803E+02  0.80278738348E+02 0.  0.
         -6    2    1    2    0  502  0.56255350816E+02 -0.88437844800E+01 -0.17007741014E+02  0.18187017127E+03  0.17188548200E+03 0.  0.
        -24    2    5    5    0    0 -0.17833819064E+01 -0.61421847361E+02 -0.27963767122E+02  0.10265482111E+03  0.77331857870E+02 0.  0.
          5    1    3    3  501    0 -0.23135032261E+02  0.24778430845E+02  0.21856984159E+03  0.22123305812E+03  0.47000000000E+01 0. -1.
        -11    1    4    4    0    0 -0.70071101389E+01 -0.41021845888E+02  0.47802197069E+02  0.63379345825E+02  0.00000000000E+00 0.  1.
         12    1    4    4    0    0 -0.26113208416E+02  0.25087199523E+02 -0.16476622691E+01  0.36248889978E+02  0.00000000000E+00 0. -1.
         -5    1    5    5    0  502  0.58038732722E+02  0.52578062881E+02  0.10956026108E+02  0.79215350156E+02  0.47000000000E+01 0.  1.
         13    1    6    6    0    0 -0.31212411750E+01  0.16634833961E+02  0.53863670521E+01  0.17761553913E+02  0.00000000000E+00 0. -1.
        -14    1    6    6    0    0  0.13378592687E+01 -0.78056681322E+02 -0.33350134175E+02  0.84893267200E+02  0.00000000000E+00 0.  1.
</event>
<event>
12    1  0.1565987E-001  0.2902168E+03  0.7818608E-02  0.1090347E+00
         21   -1    0    0  501  502  0.00000000000E+00  0.00000000000E+00  0.27380527056E+03  0.27380527056E+03  0.00000000000E+00 0. -1.
         21   -1    0    0  502  503 -0.00000000000E+00 -0.00000000000E+00 -0.50427480222E+03  0.50427480222E+03  0.00000000000E+00 0.  1.
         -6    2    1    2    0  503  0.65839391470E+02 -0.22393848244E+03 -0.35863992460E+03  0.46082085258E+03  0.17102629410E+03 0.  0.
        -24    2    3    3    0    0 -0.15498118166E+02 -0.14830649878E+03 -0.15657868566E+03  0.23019817003E+03  0.78989261511E+02 0.  0.
          6    2    1    2  501    0 -0.65839391470E+02  0.22393848244E+03  0.12817039295E+03  0.31725922019E+03  0.17246012230E+03 0.  0.
         24    2    5    5    0    0  0.26362066442E+00  0.34884905813E+02  0.59939788657E+02  0.10562659414E+03  0.79669146954E+02 0.  0.
          5    1    5    5  501    0 -0.66103012135E+02  0.18905357662E+03  0.68230604296E+02  0.21163262605E+03  0.47000000000E+01 0. -1.
        -11    1    6    6    0    0  0.93305726963E+00 -0.15076709940E+02 -0.11120769454E+02  0.18757646220E+02  0.00000000000E+00 0.  1.
         12    1    6    6    0    0 -0.66943660521E+00  0.49961615754E+02  0.71060558111E+02  0.86868947922E+02  0.00000000000E+00 0. -1.
         -5    1    3    3    0  503  0.81337509637E+02 -0.75631983653E+02 -0.20206123895E+03  0.23062268256E+03  0.47000000000E+01 0.  1.
         11    1    4    4    0    0  0.47919992212E+00  0.94429570503E+01 -0.14426523606E+02  0.17248873985E+02  0.00000000000E+00 0. -1.
        -12    1    4    4    0    0 -0.15977318089E+02 -0.15774945583E+03 -0.14215216205E+03  0.21294929604E+03  0.00000000000E+00 0.  1.
</event>
<event>
12    1  0.1565987E-001  0.2133757E+03  0.7818608E-02  0.1138930E+00
         21   -1    0    0  501  502  0.00000000000E+00  0.00000000000E+00  0.13735075296E+03  0.13735075296E+03  0.00000000000E+00 0. -1.
         21   -1    0    0  502  503 -0.00000000000E+00 -0.00000000000E+00 -0.34683888853E+03  0.34683888853E+03  0.00000000000E+00 0.  1.
         -6    2    1    2    0  503  0.11935121891E+03  0.41479293880E+02 -0.15583317569E+03  0.26422178755E+03  0.17194164445E+03 0.  0.
        -24    2    3    3    0    0  0.81144949824E+02  0.34526592637E+02 -0.17857177236E+02  0.12080796255E+03  0.80616974364E+02 0.  0.
          6    2    1    2  501    0 -0.11935121891E+03 -0.41479293880E+02 -0.53654959879E+02  0.21996785394E+03  0.17187715605E+03 0.  0.
         24    2    5    5    0    0 -0.14574226484E+03 -0.63413796244E+02 -0.37305643593E+02  0.18166642000E+03  0.79679732667E+02 0.  0.
          5    1    5    5  501    0  0.26391045927E+02  0.21934502364E+02 -0.16349316286E+02  0.38301433943E+02  0.47000000000E+01 0. -1.
        -11    1    6    6    0    0 -0.44613866262E+02 -0.38336937107E+02 -0.49348645007E+02  0.76781550998E+02  0.00000000000E+00 0.  1.
         12    1    6    6    0    0 -0.10112839857E+03 -0.25076859136E+02  0.12043001414E+02  0.10488486900E+03  0.00000000000E+00 0. -1.
         -5    1    3    3    0  503  0.38206269086E+02  0.69527012425E+01 -0.13797599846E+03  0.14341382500E+03  0.47000000000E+01 0.  1.
         11    1    4    4    0    0  0.56867906966E+02 -0.13050431920E+02  0.12071101594E+02  0.59581743090E+02  0.00000000000E+00 0. -1.
        -12    1    4    4    0    0  0.24277042858E+02  0.47577024557E+02 -0.29928278830E+02  0.61226219460E+02  0.00000000000E+00 0.  1.
</event>
<event>
12    1  0.1565987E-001  0.2297210E+03  0.7818608E-02  0.1127262E+00
         21   -1    0    0  503  502  0.00000000000E+00  0.00000000000E+00  0.61703531367E+02  0.61703531367E+02  0.00000000000E+00 0.  1.
         21   -1    0    0  501  503 -0.00000000000E+00 -0.00000000000E+00 -0.25467697387E+04  0.25467697387E+04  0.00000000000E+00 0.  1.
          6    2    1    2  501    0 -0.36391844431E+02  0.14569329608E+03 -0.23060769247E+04  0.23172535744E+04  0.17065299000E+03 0.  0.
         24    2    3    3    0    0  0.68492122747E+01  0.61246595912E+02 -0.54988903238E+03  0.55849860654E+03  0.75793722422E+02 0.  0.
         -6    2    1    2    0  502  0.36391844431E+02 -0.14569329608E+03 -0.17898928272E+03  0.29121969566E+03  0.17384143623E+03 0.  0.
        -24    2    5    5    0    0  0.51458157521E+02 -0.76831150760E+02 -0.18292785735E+03  0.22046242594E+03  0.81179508210E+02 0.  0.
          5    1    3    3  501    0 -0.43241056705E+02  0.84446700166E+02 -0.17561878923E+04  0.17587549679E+04  0.47000000000E+01 0. -1.
        -11    1    4    4    0    0 -0.29271347727E+02  0.35619603915E+02 -0.17380598000E+03  0.17981681419E+03  0.00000000000E+00 0.  1.
         12    1    4    4    0    0  0.36120560002E+02  0.25626991996E+02 -0.37608305238E+03  0.37868179235E+03  0.00000000000E+00 0. -1.
         -5    1    5    5    0  502 -0.15066313091E+02 -0.68862145318E+02  0.39385746351E+01  0.70757269719E+02  0.47000000000E+01 0.  1.
         13    1    6    6    0    0  0.32679371100E+02 -0.67163172443E+02 -0.18473559550E+03  0.19926382831E+03  0.00000000000E+00 0. -1.
        -14    1    6    6    0    0  0.18778786422E+02 -0.96679783166E+01  0.18077381491E+01  0.21198597629E+02  0.00000000000E+00 0.  1.
</event>
<event>
12    1  0.1565987E-001  0.2098616E+03  0.7818608E-02  0.1141917E+00
         21   -1    0    0  503  502  0.00000000000E+00  0.00000000000E+00  0.65743377211E+03  0.65743377211E+03  0.00000000000E+00 0. -1.
         21   -1    0    0  501  503 -0.00000000000E+00 -0.00000000000E+00 -0.67937809735E+02  0.67937809735E+02  0.00000000000E+00 0. -1.
          6    2    1    2  501    0 -0.84710235281E+02  0.85443031199E+02  0.34641566494E+03  0.40502557846E+03  0.17194641827E+03 0.  0.
         24    2    3    3    0    0 -0.12017433141E+03  0.55906692930E+02  0.20592398593E+03  0.25707254787E+03  0.78193213540E+02 0.  0.
         -6    2    1    2    0  502  0.84710235281E+02 -0.85443031199E+02  0.24308029743E+03  0.32034600338E+03  0.17046171223E+03 0.  0.
        -24    2    5    5    0    0  0.10295677102E+03 -0.91965352947E+02  0.25202052226E+03  0.29849435888E+03  0.80788710870E+02 0.  0.
          5    1    3    3  501    0  0.35464096124E+02  0.29536338269E+02  0.14049167900E+03  0.14795303059E+03  0.47000000000E+01 0. -1.
        -11    1    4    4    0    0  0.88940616622E+00  0.18191035284E+02  0.40178527540E+01  0.18650682260E+02  0.00000000000E+00 0.  1.
         12    1    4    4    0    0 -0.12106373757E+03  0.37715657647E+02  0.20190613318E+03  0.23842186561E+03  0.00000000000E+00 0. -1.
         -5    1    5    5    0  502 -0.18246535735E+02  0.65223217481E+01 -0.89402248232E+01  0.21851644497E+02  0.47000000000E+01 0.  1.
         13    1    6    6    0    0  0.79744410375E+02 -0.24622748424E+02  0.97473264747E+02  0.12832181446E+03  0.00000000000E+00 0. -1.
        -14    1    6    6    0    0  0.23212360641E+02 -0.67342604523E+02  0.15454725751E+03  0.17017254442E+03  0.00000000000E+00 0.  1.
</event>
<event>
12    1  0.1565987E-001  0.2583094E+03  0.7818608E-02  0.1108280E+00
         21   -1    0    0  503  502  0.00000000000E+00  0.00000000000E+00  0.32860150976E+02  0.32860150976E+02  0.00000000000E+00 0. -1.
         21   -1    0    0  501  503 -0.00000000000E+00 -0.00000000000E+00 -0.21940411577E+04  0.21940411577E+04  0.00000000000E+00 0. -1.
          6    2    1    2  501    0 -0.43509722530E+02  0.18703678513E+03 -0.13886117345E+04  0.14122928065E+04  0.17161750221E+03 0.  0.
         24    2    3    3    0    0  0.37280606145E+02  0.68252000917E+02 -0.49776408767E+03  0.50992452132E+03  0.78776590760E+02 0.  0.
         -6    2    1    2    0  502  0.43509722530E+02 -0.18703678513E+03 -0.77256927218E+03  0.81460850217E+03  0.17276538003E+03 0.  0.
        -24    2    5    5    0    0  0.86514298055E+02 -0.14358677040E+03 -0.66994607596E+03  0.69506391760E+03  0.78639814711E+02 0.  0.
          5    1    3    3  501    0 -0.80790328676E+02  0.11878478421E+03 -0.89084764684E+03  0.90236828515E+03  0.47000000000E+01 0. -1.
        -13    1    4    4    0    0 -0.18210738342E+02  0.41979049827E+01 -0.37225516081E+02  0.41653240507E+02  0.00000000000E+00 0.  1.
         14    1    4    4    0    0  0.55491344487E+02  0.64054095935E+02 -0.46053857158E+03  0.46827128081E+03  0.00000000000E+00 0. -1.
         -5    1    5    5    0  502 -0.43004575524E+02 -0.43450014723E+02 -0.10262319622E+03  0.11954458456E+03  0.47000000000E+01 0.  1.
         13    1    6    6    0    0  0.22539922507E+02 -0.86809542540E+02 -0.22976780840E+03  0.24665196240E+03  0.00000000000E+00 0. -1.
        -14    1    6    6    0    0  0.63974375548E+02 -0.56777227864E+02 -0.44017826756E+03  0.44841195520E+03  0.00000000000E+00 0.  1.
</event>
<event>
12    1  0.1565987E-001  0.1852450E+03  0.7818608E-02  0.1162984E+00
         21   -1    0    0  501  502  0.00000000000E+00  0.00000000000E+00  0.12914440820E+04  0.12914440820E+04  0.00000000000E+00 0.  1.
         21   -1    0    0  502  503 -0.00000000000E+00 -0.00000000000E+00 -0.26574478638E+02  0.26574478638E+02  0.00000000000E+00 0.  1.
         -6    2    1    2    0  503 -0.64181879960E+02 -0.19106387239E+02  0.67458119236E+03  0.69955377533E+03  0.17271749114E+03 0.  0.
        -24    2    3    3    0    0 -0.83043440227E+02  0.42699178673E+02  0.35784261622E+03  0.37625654050E+03  0.69269137878E+02 0.  0.
          6    2    1    2  501    0  0.64181879960E+02  0.19106387239E+02  0.59028841097E+03  0.61846478528E+03  0.17197067992E+03 0.  0.
         24    2    5    5    0    0  0.53064400513E+02  0.60699255880E+02  0.24049966088E+03  0.26600510707E+03  0.80114916452E+02 0.  0.
          5    1    5    5  501    0  0.11117479447E+02 -0.41592868640E+02  0.34978875010E+03  0.35245967821E+03  0.47000000000E+01 0. -1.
        -13    1    6    6    0    0 -0.32949656324E+01  0.18827466040E+02  0.15122804677E+03  0.15243113989E+03  0.00000000000E+00 0.  1.
         14    1    6    6    0    0  0.56359366145E+02  0.41871789840E+02  0.89271614101E+02  0.11357396718E+03  0.00000000000E+00 0. -1.
         -5    1    3    3    0  503  0.18861560267E+02 -0.61805565912E+02  0.31673857613E+03  0.32329723482E+03  0.47000000000E+01 0.  1.
         13    1    4    4    0    0 -0.47817842334E+02  0.48358316316E+02  0.30505034561E+03  0.31253925539E+03  0.00000000000E+00 0. -1.
        -14    1    4    4    0    0 -0.35225597893E+02 -0.56591376430E+01  0.52792270607E+02  0.63717285109E+02  0.00000000000E+00 0.  1.
</event>
<event>
12    1  0.1565987E-001  0.1811986E+03  0.7818608E-02  0.1166835E+00
         21   -1    0    0  501  502  0.00000000000E+00  0.00000000000E+00  0.85525172126E+02  0.85525172126E+02  0.00000000000E+00 0.  1.
         21   -1    0    0  502  503 -0.00000000000E+00 -0.00000000000E+00 -0.61146833972E+03  0.61146833972E+03  0.00000000000E+00 0.  1.
         -6    2    1    2    0  503 -0.53981253373E+02  0.99083397356E+01 -0.47669378308E+03  0.50997047432E+03  0.17268691594E+03 0.  0.
        -24    2    3    3    0    0 -0.10297787750E+03  0.20867439971E+02 -0.24059153997E+03  0.26854319695E+03  0.56491293302E+02 0.  0.
          6    2    1    2  501    0  0.53981253373E+02 -0.99083397356E+01 -0.49249384511E+02  0.18702303752E+03  0.17187194005E+03 0.  0.
         24    2    5    5    0    0  0.99648375909E+02  0.17071536667E+02 -0.45881733176E+02  0.13366733598E+03  0.74435119965E+02 0.  0.
          5    1    5    5  501    0 -0.45667122536E+02 -0.26979876403E+02 -0.33676513350E+01  0.53355701541E+02  0.47000000000E+01 0. -1.
        -11    1    6    6    0    0  0.71293148938E+02  0.44335184622E+02 -0.19158441436E+02  0.86112528468E+02  0.00000000000E+00 0.  1.
         12    1    6    6    0    0  0.28355226971E+02 -0.27263647955E+02 -0.26723291740E+02  0.47554807515E+02  0.00000000000E+00 0. -1.
         -5    1    3    3    0  503  0.48996624130E+02 -0.10959100235E+02 -0.23610224311E+03  0.24142727737E+03  0.47000000000E+01 0.  1.
         13    1    4    4    0    0  0.36654525732E+01  0.11489453663E+02 -0.20192968739E+02  0.23520184407E+02  0.00000000000E+00 0. -1.
        -14    1    4    4    0    0 -0.10664333008E+03  0.93779863085E+01 -0.22039857123E+03  0.24502301255E+03  0.00000000000E+00 0.  1.
</event>
<event>
12    1  0.1565987E-001  0.1973792E+03  0.7818608E-02  0.1152845E+00
         21   -1    0    0  501  502  0.00000000000E+00  0.00000000000E+00  0.19633484865E+03  0.19633484865E+03  0.00000000000E+00 0. -1.
         21   -1    0    0  502  503 -0.00000000000E+00 -0.00000000000E+00 -0.19648272737E+03  0.19648272737E+03  0.00000000000E+00 0. -1.
         -6    2    1    2    0  503 -0.10018837539E+03 -0.40242964326E+01  0.20189302199E+02  0.19439339094E+03  0.16530963974E+03 0.  0.
        -24    2    3    3    0    0 -0.10113397295E+03  0.49233265632E+02  0.42253116987E+01  0.13858836370E+03  0.80851013389E+02 0.  0.
          6    2    1    2  501    0  0.10018837539E+03  0.40242964326E+01 -0.20337180927E+02  0.19842418508E+03  0.17001367820E+03 0.  0.
         24    2    5    5    0    0  0.18128206555E+02 -0.48949637727E+02  0.89218193293E+01  0.96354169385E+02  0.80497380026E+02 0.  0.
          5    1    5    5  501    0  0.82060168831E+02  0.52973934160E+02 -0.29259000256E+02  0.10207001570E+03  0.47000000000E+01 0. -1.
        -11    1    6    6    0    0 -0.23951228563E+02 -0.10427147280E+02 -0.19517830522E+02  0.32608778854E+02  0.00000000000E+00 0.  1.
         12    1    6    6    0    0  0.42079435119E+02 -0.38522490448E+02  0.28439649851E+02  0.63745390530E+02  0.00000000000E+00 0. -1.
         -5    1    3    3    0  503  0.94559756043E+00 -0.53257562065E+02  0.15963990500E+02  0.55805027233E+02  0.47000000000E+01 0.  1.
         11    1    4    4    0    0 -0.83501874497E+02  0.28335176692E+02 -0.31468506842E+02  0.93625382272E+02  0.00000000000E+00 0. -1.
        -12    1    4    4    0    0 -0.17632098449E+02  0.20898088940E+02  0.35693818541E+02  0.44962981430E+02  0.00000000000E+00 0.  1.
</event>
<event>
12    1  0.1565987E-001  0.1925954E+03  0.7818608E-02  0.1156251E+00
         21   -1    0    0  503  502  0.00000000000E+00  0.00000000000E+00  0.18510896066E+04  0.18510896066E+04  0.00000000000E+00 0.  1.
         21   -1    0    0  501  503 -0.00000000000E+00 -0.00000000000E+00 -0.22416475082E+02  0.22416475082E+02  0.00000000000E+00 0.  1.
          6    2    1    2  501    0 -0.82260305836E+02  0.22947908723E+02  0.60700087334E+03  0.63682260472E+03  0.17262562158E+03 0.  0.
         24    2    3    3    0    0 -0.21289544579E+02  0.60861345036E+02  0.19469530409E+03  0.21828606533E+03  0.74734174598E+02 0.  0.
         -6    2    1    2    0  502  0.82260305836E+02 -0.22947908723E+02  0.12216722582E+04  0.12366834769E+04  0.17207426111E+03 0.  0.
        -24    2    5    5    0    0  0.63733032550E+02 -0.65486261964E+01  0.33904340797E+03  0.35369538330E+03  0.77750933969E+02 0.  0.
          5    1    3    3  501    0 -0.60970761257E+02 -0.37913436313E+02  0.41230556924E+03  0.41853653940E+03  0.47000000000E+01 0. -1.
        -11    1    4    4    0    0  0.28160612090E+02  0.24207784359E+02  0.75155538580E+02  0.83829540594E+02  0.00000000000E+00 0.  1.
         12    1    4    4    0    0 -0.49450156669E+02  0.36653560677E+02  0.11953976551E+03  0.13445652473E+03  0.00000000000E+00 0. -1.
         -5    1    5    5    0  502  0.18527273286E+02 -0.16399282527E+02  0.88262885019E+03  0.88298809364E+03  0.47000000000E+01 0.  1.
         13    1    6    6    0    0 -0.93953307747E+01 -0.23808185685E+02  0.88798812817E+02  0.92413911852E+02  0.00000000000E+00 0. -1.
        -14    1    6    6    0    0  0.73128363325E+02  0.17259559489E+02  0.25024459516E+03  0.26128147145E+03  0.00000000000E+00 0.  1.
</event>
<event>
12    1  0.1565987E-001  0.2258170E+03  0.7818608E-02  0.1129723E+00
         21   -1    0    0  503  502  0.00000000000E+00  0.00000000000E+00  0.37297930538E+02  0.37297930538E+02  0.00000000000E+00 0.  1.
         21   -1    0    0  501  503 -0.00000000000E+00 -0.00000000000E+00 -0.14495788472E+04  0.14495788472E+04  0.00000000000E+00 0. -1.
          6    2    1    2  501    0  0.12366247131E+03  0.77060122881E+02 -0.88792549948E+03  0.91619049203E+03  0.17251856626E+03 0.  0.
         24    2    3    3    0    0  0.10430545836E+03  0.41009056957E+02 -0.84789090507E+03  0.85875155006E+03  0.77290791408E+02 0.  0.
         -6    2    1    2    0  502 -0.12366247131E+03 -0.77060122881E+02 -0.52435541722E+03  0.57068628575E+03  0.17176601476E+03 0.  0.
        -24    2    5    5    0    0  0.24466806870E+01 -0.42010290713E+02 -0.16651063184E+03  0.18962593702E+03  0.80382552224E+02 0.  0.
          5    1    3    3  501    0  0.19357012945E+02  0.36051065924E+02 -0.40034594413E+02  0.57438941966E+02  0.47000000000E+01 0. -1.
        -11    1    4    4    0    0  0.11374479934E+03  0.24344468560E+02 -0.75485596092E+03  0.76376570640E+03  0.00000000000E+00 0.  1.
         12    1    4    4    0    0 -0.94393409742E+01  0.16664588397E+02 -0.93034944144E+02  0.94985843663E+02  0.00000000000E+00 0. -1.
         -5    1    5    5    0  502 -0.12610915200E+03 -0.35049832168E+02 -0.35784478538E+03  0.38106034873E+03  0.47000000000E+01 0.  1.
         11    1    6    6    0    0  0.14117212056E+01 -0.56990648174E+02 -0.62728673828E+02  0.84763278938E+02  0.00000000000E+00 0. -1.
        -12    1    6    6    0    0  0.10349594814E+01  0.14980357461E+02 -0.10378195802E+03  0.10486265808E+03  0.00000000000E+00 0.  1.
</event>
<event>
12    1  0.1565987E-001  0.2441289E+03  0.7818608E-02  0.1117327E+00
         21   -1    0    0  503  502  0.00000000000E+00  0.00000000000E+00  0.51910662388E+03  0.51910662388E+03  0.00000000000E+00 0. -1.
         21   -1    0    0  501  503 -0.00000000000E+00 -0.00000000000E+00 -0.21374966766E+03  0.21374966766E+03  0.00000000000E+00 0. -1.
          6    2    1    2  501    0  0.11371595071E+03  0.12771479850E+03 -0.97279225349E+02  0.26279684212E+03  0.17423129840E+03 0.  0.
         24    2    3    3    0    0  0.10270667588E+03  0.31521184287E+02 -0.98176540784E+02  0.16585711485E+03  0.79546860770E+02 0.  0.
         -6    2    1    2    0  502 -0.11371595071E+03 -0.12771479850E+03  0.40263618156E+03  0.47005944942E+03  0.17203954221E+03 0.  0.
        -24    2    5    5    0    0 -0.12529353959E+03 -0.10464787528E+03  0.40516969596E+03  0.44370357330E+03  0.77850687648E+02 0.  0.
          5    1    3    3  501    0  0.11009274835E+02  0.96193614215E+02  0.89731543446E+00  0.96939727269E+02  0.47000000000E+01 0. -1.
        -11    1    4    4    0    0  0.21133699932E+02  0.24437856912E+02  0.65046892456E+01  0.32956837006E+02  0.00000000000E+00 0.  1.
         12    1    4    4    0    0  0.81572975947E+02  0.70833273749E+01 -0.10468123003E+03  0.13290027785E+03  0.00000000000E+00 0. -1.
         -5    1    5    5    0  502  0.11577588874E+02 -0.23066923219E+02 -0.25335144004E+01  0.26355876122E+02  0.47000000000E+01 0.  1.
         13    1    6    6    0    0 -0.39479359288E+02 -0.79575743589E+02  0.23963259782E+03  0.25556740934E+03  0.00000000000E+00 0. -1.
        -14    1    6    6    0    0 -0.85814180300E+02 -0.25072131693E+02  0.16553709814E+03  0.18813616396E+03  0.00000000000E+00 0.  1.
</event>
<event>
12    1  0.1565987E-001  0.2994677E+03  0.7818608E-02  0.1085645E+00
         21   -1    0    0  501  502  0.00000000000E+00  0.00000000000E+00  0.11858299921E+03  0.11858299921E+03  0.00000000000E+00 0. -1.
         21   -1    0    0  502  503 -0.00000000000E+00 -0.00000000000E+00 -0.87793853063E+03  0.87793853063E+03  0.00000000000E+00 0.  1.
         -6    2    1    2    0  503  0.23766846442E+03 -0.63462976876E+02 -0.56786387905E+03  0.64198933448E+03  0.17078369956E+03 0.  0.
        -24    2    3    3    0    0  0.95196823671E+02 -0.29160251489E+02 -0.40018358643E+03  0.41924819342E+03  0.75560501133E+02 0.  0.
          6    2    1    2  501    0 -0.23766846442E+03  0.63462976876E+02 -0.19149165236E+03  0.35453219537E+03  0.16884956682E+03 0.  0.
         24    2    5    5    0    0 -0.17189258216E+03 -0.12803212926E+02 -0.86146768878E+02  0.20871507405E+03  0.80185623923E+02 0.  0.
          5    1    5    5  501    0 -0.65775882257E+02  0.76266189803E+02 -0.10534488349E+03  0.14581712132E+03  0.47000000000E+01 0. -1.
        -13    1    6    6    0    0 -0.10191216584E+03 -0.63422143945E+01 -0.62392246437E+01  0.10229976126E+03  0.00000000000E+00 0.  1.
         14    1    6    6    0    0 -0.69980416320E+02 -0.64609985316E+01 -0.79907544234E+02  0.10641531279E+03  0.00000000000E+00 0. -1.
         -5    1    3    3    0  503  0.14247164075E+03 -0.34302725387E+02 -0.16768029262E+03  0.22274114106E+03  0.47000000000E+01 0.  1.
         13    1    4    4    0    0  0.23571027206E+02 -0.28361550610E+02 -0.51856296688E+02  0.63632117541E+02  0.00000000000E+00 0. -1.
        -14    1    4    4    0    0  0.71625796465E+02 -0.79870087899E+00 -0.34832728975E+03  0.35561607588E+03  0.00000000000E+00 0.  1.
</event>
<event>
12    1  0.1565987E-001  0.2871671E+03  0.7818608E-02  0.1092006E+00
         21   -1    0    0  501  502  0.00000000000E+00  0.00000000000E+00  0.19861276414E+03  0.19861276414E+03  0.00000000000E+00 0.  1.
         21   -1    0    0  502  503 -0.00000000000E+00 -0.00000000000E+00 -0.43042544052E+03  0.43042544052E+03  0.00000000000E+00 0. -1.
         -6    2    1    2    0  503  0.21279662263E+03 -0.82771941386E+02 -0.17827106907E+03  0.33692236652E+03  0.17205380005E+03 0.  0.
        -24    2    3    3    0    0  0.18236184652E+03 -0.43116976892E+00 -0.81260616408E+02  0.20600484977E+03  0.50780718549E+02 0.  0.
          6    2    1    2  501    0 -0.21279662263E+03  0.82771941386E+02 -0.53541607318E+02  0.29211583813E+03  0.17415901438E+03 0.  0.
         24    2    5    5    0    0 -0.19054775966E+03  0.12190037725E+03 -0.31140094324E+02  0.24161866810E+03  0.79004586015E+02 0.  0.
          5    1    5    5  501    0 -0.22248862972E+02 -0.39128435869E+02 -0.22401512995E+02  0.50497170035E+02  0.47000000000E+01 0. -1.
        -11    1    6    6    0    0 -0.74678828988E+02  0.84486171727E+02  0.97388650430E+01  0.11317988427E+03  0.00000000000E+00 0.  1.
         12    1    6    6    0    0 -0.11586893067E+03  0.37414205528E+02 -0.40878959367E+02  0.12843878382E+03  0.00000000000E+00 0. -1.
         -5    1    3    3    0  503  0.30434776113E+02 -0.82340771617E+02 -0.97010452659E+02  0.13091751675E+03  0.47000000000E+01 0.  1.
         11    1    4    4    0    0  0.16466841136E+03 -0.18782535444E-02 -0.88428475549E+02  0.18690982048E+03  0.00000000000E+00 0. -1.
        -12    1    4    4    0    0  0.17693435162E+02 -0.42929151538E+00  0.71678591417E+01  0.19095029294E+02  0.00000000000E+00 0.  1.
</event>
<event>
12    1  0.1565987E-001  0.1827583E+03  0.7818608E-02  0.1166213E+00
         21   -1    0    0  503  502  0.00000000000E+00  0.00000000000E+00  0.76424598706E+02  0.76424598706E+02  0.00000000000E+00 0. -1.
         21   -1    0    0  501  503 -0.00000000000E+00 -0.00000000000E+00 -0.94107150387E+03  0.94107150387E+03  0.00000000000E+00 0. -1.
          6    2    1    2  501    0 -0.10357957756E+02  0.53292783510E+02 -0.81084219831E+03  0.83118330108E+03  0.17450845646E+03 0.  0.
         24    2    3    3    0    0 -0.56422379971E+02  0.81932669167E+02 -0.59323947067E+03  0.60687277721E+03  0.80405540341E+02 0.  0.
         -6    2    1    2    0  502  0.10357957756E+02 -0.53292783510E+02 -0.53804706855E+02  0.18631280149E+03  0.16991205213E+03 0.  0.
        -24    2    5    5    0    0  0.18461626325E+02  0.34592184529E+02 -0.12780440375E+02  0.88872986779E+02  0.78724946781E+02 0.  0.
          5    1    3    3  501    0  0.46064422215E+02 -0.28639885657E+02 -0.21760272764E+03  0.22431052388E+03  0.47000000000E+01 0. -1.
        -11    1    4    4    0    0 -0.24638829353E+02  0.25972077161E+02 -0.60790998262E+02  0.70549033825E+02  0.00000000000E+00 0.  1.
         12    1    4    4    0    0 -0.31783550618E+02  0.55960592006E+02 -0.53244847240E+03  0.53632374338E+03  0.00000000000E+00 0. -1.
         -5    1    5    5    0  502 -0.81036685690E+01 -0.87884968039E+02 -0.41024266480E+02  0.97439814715E+02  0.47000000000E+01 0.  1.
         13    1    6    6    0    0 -0.90855406363E+01  0.23390469564E+02  0.28515470174E+02  0.37984117133E+02  0.00000000000E+00 0. -1.
        -14    1    6    6    0    0  0.27547166961E+02  0.11201714965E+02 -0.41295910549E+02  0.50888869646E+02  0.00000000000E+00 0.  1.
</event>
<event>
12    1  0.1565987E-001  0.1876600E+03  0.7818608E-02  0.1160912E+00
         21   -1    0    0  503  502  0.00000000000E+00  0.00000000000E+00  0.39590514670E+03  0.39590514670E+03  0.00000000000E+00 0.  1.
         21   -1    0    0  501  503 -0.00000000000E+00 -0.00000000000E+00 -0.94307598834E+02  0.94307598834E+02  0.00000000000E+00 0. -1.
          6    2    1    2  501    0  0.18097871869E+02 -0.73133897621E+02  0.89398069236E+02  0.20786602945E+03  0.17187254425E+03 0.  0.
         24    2    3    3    0    0  0.40147387083E+02 -0.75462655460E+02  0.11863723753E+01  0.11678915150E+03  0.79573069370E+02 0.  0.
         -6    2    1    2    0  502 -0.18097871869E+02  0.73133897621E+02  0.21219947863E+03  0.28234671609E+03  0.17033775098E+03 0.  0.
        -24    2    5    5    0    0  0.25842656360E+02  0.10185886813E+03  0.16973787752E+03  0.21466384144E+03  0.78908465036E+02 0.  0.
          5    1    3    3  501    0 -0.22049515214E+02  0.23287578395E+01  0.88211696860E+02  0.91076877951E+02  0.47000000000E+01 0. -1.
        -11    1    4    4    0    0  0.21556975217E+02 -0.59952606611E+01  0.31592276038E+02  0.38713282425E+02  0.00000000000E+00 0.  1.
         12    1    4    4    0    0  0.18590411865E+02 -0.69467394799E+02 -0.30405903662E+02  0.78075869070E+02  0.00000000000E+00 0. -1.
         -5    1    5    5    0  502 -0.43940528229E+02 -0.28724970504E+02  0.42461601115E+02  0.67682874649E+02  0.47000000000E+01 0.  1.
         13    1    6    6    0    0  0.48956572776E+02  0.38028022847E+02  0.64759406600E+02  0.89647405333E+02  0.00000000000E+00 0. -1.
        -14    1    6    6    0    0 -0.23113916416E+02  0.63830845278E+02  0.10497847092E+03  0.12501643611E+03  0.00000000000E+00 0.  1.
</event>
<event>
12    1  0.1565987E-001  0.1994043E+03  0.7818608E-02  0.1150299E+00
         21   -1    0    0  501  502  0.00000000000E+00  0.00000000000E+00  0.61798920036E+03  0.61798920036E+03  0.00000000000E+00 0. -1.
         21   -1    0    0  502  503 -0.00000000000E+00 -0.00000000000E+00 -0.87539130165E+02  0.87539130165E+02  0.00000000000E+00 0. -1.
         -6    2    1    2    0  503  0.45725209457E+02  0.88717000373E+02  0.83163553237E+02  0.21580665979E+03  0.17232189904E+03 0.  0.
        -24    2    3    3    0    0 -0.22281017547E+02  0.38698832338E+02 -0.65350919624E+01  0.92540277533E+02  0.80789554843E+02 0.  0.
          6    2    1    2  501    0 -0.45725209457E+02 -0.88717000373E+02  0.44728651696E+03  0.48972167073E+03  0.17262846115E+03 0.  0.
         24    2    5    5    0    0 -0.90525935293E+02 -0.28695395024E+02  0.28077522342E+03  0.30708049515E+03  0.80282835999E+02 0.  0.
          5    1    5    5  501    0  0.44800725836E+02 -0.60021605348E+02  0.16651129353E+03  0.18264117558E+03  0.47000000000E+01 0. -1.
        -11    1    6    6    0    0 -0.58288304744E+02  0.17967488063E+02  0.95478947142E+02  0.11329866038E+03  0.00000000000E+00 0.  1.
         12    1    6    6    0    0 -0.32237630549E+02 -0.46662883087E+02  0.18529627628E+03  0.19378183477E+03  0.00000000000E+00 0. -1.
         -5    1    3    3    0  503  0.68006227004E+02  0.50018168035E+02  0.89698645200E+02  0.12326638226E+03  0.47000000000E+01 0.  1.
         11    1    4    4    0    0 -0.43309615221E+02  0.20970844237E+02  0.21997786553E+02  0.52909372438E+02  0.00000000000E+00 0. -1.
        -12    1    4    4    0    0  0.21028597674E+02  0.17727988100E+02 -0.28532878515E+02  0.39630905094E+02  0.00000000000E+00 0.  1.
</event>
<event>
12    1  0.1565987E-001  0.2080709E+03  0.7818608E-02  0.1143637E+00
         21   -1    0    0  501  502  0.00000000000E+00  0.00000000000E+00  0.17737925621E+03  0.17737925621E+03  0.00000000000E+00 0.  1.
         21   -1    0    0  502  503 -0.00000000000E+00 -0.00000000000E+00 -0.28514703684E+03  0.28514703684E+03  0.00000000000E+00 0.  1.
         -6    2    1    2    0  503 -0.82367767708E+02 -0.79616404739E+02  0.37424579721E+02  0.20880535521E+03  0.17051643949E+03 0.  0.
        -24    2    3    3    0    0 -0.67985304768E+02  0.16570183420E+02  0.51963899669E+01  0.10624093059E+03  0.79771926275E+02 0.  0.
          6    2    1    2  501    0  0.82367767708E+02  0.79616404739E+02 -0.14519236034E+03  0.25372093784E+03  0.17369591744E+03 0.  0.
         24    2    5    5    0    0 -0.12801263795E+02  0.33517590216E+01 -0.27791541686E+02  0.84373711807E+02  0.78558556578E+02 0.  0.
          5    1    5    5  501    0  0.95169031503E+02  0.76264645717E+02 -0.11740081866E+03  0.16934722603E+03  0.47000000000E+01 0. -1.
        -13    1    6    6    0    0  0.30055031632E+02 -0.75653103263E+01 -0.25422390406E+02  0.40085368661E+02  0.00000000000E+00 0.  1.
         14    1    6    6    0    0 -0.42856295427E+02  0.10917069348E+02 -0.23691512793E+01  0.44288343146E+02  0.00000000000E+00 0. -1.
         -5    1    3    3    0  503 -0.14382462940E+02 -0.96186588159E+02  0.32228189754E+02  0.10256442462E+03  0.47000000000E+01 0.  1.
         13    1    4    4    0    0 -0.28541649962E+02 -0.15939750731E+02 -0.29847407340E+02  0.44267021142E+02  0.00000000000E+00 0. -1.
        -14    1    4    4    0    0 -0.39443654806E+02  0.32509934151E+02  0.35043797307E+02  0.61973909451E+02  0.00000000000E+00 0.  1.
</event>
<event>
12    1  0.1565987E-001  0.2707129E+03  0.7818608E-02  0.1101198E+00
         21   -1    0    0  503  502  0.00000000000E+00  0.00000000000E+00  0.79289414822E+02  0.79289414822E+02  0.00000000000E+00 0. -1.
         21   -1    0    0  501  503 -0.00000000000E+00 -0.00000000000E+00 -0.96959176678E+03  0.96959176678E+03  0.00000000000E+00 0.  1.
          6    2    1    2  501    0 -0.21792154597E+02  0.20783947020E+03 -0.32424490800E+03  0.42239820588E+03  0.17208527128E+03 0.  0.
         24    2    3    3    0    0  0.45269461647E+02  0.90876359356E+02 -0.20050553305E+03  0.23933768970E+03  0.82293523920E+02 0.  0.
         -6    2    1    2    0  502  0.21792154597E+02 -0.20783947020E+03 -0.56605744396E+03  0.62648297573E+03  0.16848663341E+03 0.  0.
        -24    2    5    5    0    0  0.71866403895E+01 -0.21270848590E+03 -0.56720140116E+03  0.61034522504E+03  0.74211296212E+02 0.  0.
          5    1    3    3  501    0 -0.67061616244E+02  0.11696311084E+03 -0.12373937495E+03  0.18306051618E+03  0.47000000000E+01 0. -1.
        -11    1    4    4    0    0  0.20600060947E+01  0.24202774952E+01  0.80827222902E+01  0.86851463939E+01  0.00000000000E+00 0.  1.
         12    1    4    4    0    0  0.43209455552E+02  0.88456081860E+02 -0.20858825534E+03  0.23065254330E+03  0.00000000000E+00 0. -1.
         -5    1    5    5    0  502  0.14605514207E+02  0.48690157022E+01  0.11439571913E+01  0.16137750687E+02  0.47000000000E+01 0.  1.
         11    1    6    6    0    0  0.29955902894E+01 -0.10300837463E+03 -0.17518322155E+03  0.20324581156E+03  0.00000000000E+00 0. -1.
        -12    1    6    6    0    0  0.41910501001E+01 -0.10970011127E+03 -0.39201817961E+03  0.40709941348E+03  0.00000000000E+00 0.  1.
</event>
<event>
12    1  0.1565987E-001  0.2125809E+03  0.7818608E-02  0.1139917E+00
         21   -1    0    0  503  502  0.00000000000E+00  0.00000000000E+00  0.50180331300E+02  0.50180331300E+02  0.00000000000E+00 0. -1.
         21   -1    0    0  501  503 -0.00000000000E+00 -0.00000000000E+00 -0.10820648062E+04  0.10820648062E+04  0.00000000000E+00 0.  1.
          6    2    1    2  501    0  0.12081535744E+03  0.19191287175E+02 -0.75101576490E+03  0.77999825310E+03  0.17148743283E+03 0.  0.
         24    2    3    3    0    0  0.14271657166E+03  0.93382221015E+01 -0.73000253401E+03  0.74774314578E+03  0.75900528171E+02 0.  0.
         -6    2    1    2    0  502 -0.12081535744E+03 -0.19191287175E+02 -0.28086871000E+03  0.35224688439E+03  0.17385620269E+03 0.  0.
        -24    2    5    5    0    0 -0.69998947698E+02  0.33524143562E+02 -0.70597859075E+02  0.12954271990E+03  0.75983798881E+02 0.  0.
          5    1    3    3  501    0 -0.21901214227E+02  0.98530650740E+01 -0.21013230883E+02  0.32255107318E+02  0.47000000000E+01 0. -1.
        -11    1    4    4    0    0  0.13741207372E+03 -0.13246075640E+02 -0.64671994386E+03  0.66128981719E+03  0.00000000000E+00 0.  1.
         12    1    4    4    0    0  0.53044979427E+01  0.22584297741E+02 -0.83282590150E+02  0.86453328594E+02  0.00000000000E+00 0. -1.
         -5    1    5    5    0  502 -0.50816409739E+02 -0.52715430737E+02 -0.21027085092E+03  0.22270416450E+03  0.47000000000E+01 0.  1.
         11    1    6    6    0    0 -0.64007057058E+02  0.52790532435E+02 -0.71238831662E+02  0.10935590887E+03  0.00000000000E+00 0. -1.
        -12    1    6    6    0    0 -0.59918906400E+01 -0.19266388874E+02  0.64097258773E+00  0.20186811029E+02  0.00000000000E+00 0.  1.
</event>
<event>
12    1  0.1565987E-001  0.2719974E+03  0.7818608E-02  0.1100251E+00
         21   -1    0    0  503  502  0.00000000000E+00  0.00000000000E+00  0.10197465089E+03  0.10197465089E+03  0.00000000000E+00 0.  1.
         21   -1    0    0  501  503 -0.00000000000E+00 -0.00000000000E+00 -0.78965232125E+03  0.78965232125E+03  0.00000000000E+00 0. -1.
          6    2    1    2  501    0  0.20750365752E+03 -0.38614804805E+02 -0.47246984014E+03  0.54478843489E+03  0.17034617083E+03 0.  0.
         24    2    3    3    0    0  0.41758972020E+02 -0.17478749445E+02 -0.25224816137E+03  0.26831472654E+03  0.79462816074E+02 0.  0.
         -6    2    1    2    0  502 -0.20750365752E+03  0.38614804805E+02 -0.21520783022E+03  0.34683853725E+03  0.17156249501E+03 0.  0.
        -24    2    5    5    0    0 -0.15157031067E+03  0.80529366289E+02 -0.10787730993E+03  0.21866950690E+03  0.81977444082E+02 0.  0.
          5    1    3    3  501    0  0.16574468550E+03 -0.21136055360E+02 -0.22022167877E+03  0.27647370835E+03  0.47000000000E+01 0. -1.
        -13    1    4    4    0    0  0.49642769978E+02  0.11724562608E+02 -0.91611199823E+02  0.10485457507E+03  0.00000000000E+00 0.  1.
         14    1    4    4    0    0 -0.78837979580E+01 -0.29203312053E+02 -0.16063696155E+03  0.16346015148E+03  0.00000000000E+00 0. -1.
         -5    1    5    5    0  502 -0.55933346856E+02 -0.41914561484E+02 -0.10733052029E+03  0.12816903035E+03  0.47000000000E+01 0.  1.
         11    1    6    6    0    0  0.50413272614E+01  0.12628041037E+02  0.44752488418E+01  0.14314686625E+02  0.00000000000E+00 0. -1.
        -12    1    6    6    0    0 -0.15661163793E+03  0.67901325252E+02 -0.11235255877E+03  0.20435482027E+03  0.00000000000E+00 0.  1.
</event>
<event>
12    1  0.1565987E-001  0.1751642E+03  0.7818608E-02  0.1172637E+00
         21   -1    0    0  503  502  0.00000000000E+00  0.00000000000E+00  0.11501424079E+03  0.11501424079E+03  0.00000000000E+00 0. -1.
         21   -1    0    0  501  503 -0.00000000000E+00 -0.00000000000E+00 -0.40509626300E+03  0.40509626300E+03  0.00000000000E+00 0. -1.
          6    2    1    2  501    0  0.26816407358E+02  0.20902528538E+02 -0.29731172543E+03  0.34507502251E+03  0.17183269095E+03 0.  0.
         24    2    3    3    0    0  0.13055550088E+02 -0.40268094098E+02 -0.87633564745E+02  0.12617269878E+03  0.80299075068E+02 0.  0.
         -6    2    1    2    0  502 -0.26816407358E+02 -0.20902528538E+02  0.72297032206E+01  0.17503548128E+03  0.17154916408E+03 0.  0.
        -24    2    5    5    0    0 -0.16876243099E+02 -0.60865854959E+02  0.49779980967E+02  0.11563438314E+03  0.83089133934E+02 0.  0.
          5    1    3    3  501    0  0.13760857270E+02  0.61170622636E+02 -0.20967816068E+03  0.21890232373E+03  0.47000000000E+01 0. -1.
        -13    1    4    4    0    0  0.22638228069E+02  0.17547615018E+02 -0.13478189330E+02  0.31655485316E+02  0.00000000000E+00 0.  1.
         14    1    4    4    0    0 -0.95826779812E+01 -0.57815709116E+02 -0.74155375415E+02  0.94517213463E+02  0.00000000000E+00 0. -1.
         -5    1    5    5    0  502 -0.99401642587E+01  0.39963326421E+02 -0.42550277746E+02  0.59401098141E+02  0.47000000000E+01 0.  1.
         11    1    6    6    0    0 -0.32668460112E+02 -0.14149784391E+02  0.55555932180E+02  0.65984136615E+02  0.00000000000E+00 0. -1.
        -12    1    6    6    0    0  0.15792217013E+02 -0.46716070568E+02 -0.57759512139E+01  0.49650246524E+02  0.00000000000E+00 0.  1.
</event>
<event>
12    1  0.1565987E-001  0.2458228E+03  0.7818608E-02  0.1116166E+00
         21   -1    0    0  501  502  0.00000000000E+00  0.00000000000E+00  0.25031093515E+04  0.25031093515E+04  0.00000000000E+00 0.  1.
         21   -1    0    0  502  503 -0.00000000000E+00 -0.00000000000E+00 -0.24423559781E+02  0.24423559781E+02  0.00000000000E+00 0. -1.
         -6    2    1    2    0  503 -0.60859260631E+02 -0.16322400213E+03  0.10748926856E+04  0.11023789111E+04  0.17175288528E+03 0.  0.
        -24    2    3    3    0    0 -0.49287231937E+01 -0.11445707950E+03  0.35794648495E+03  0.38158741393E+03  0.66019338251E+02 0.  0.
          6    2    1    2  501    0  0.60859260631E+02  0.16322400213E+03  0.14037931061E+04  0.14251540002E+04  0.17344427050E+03 0.  0.
         24    2    5    5    0    0 -0.13427628650E+01  0.15939384753E+03  0.88624101726E+03  0.90384217748E+03  0.78098268009E+02 0.  0.
          5    1    5    5  501    0  0.62202023496E+02  0.38301545988E+01  0.51755208885E+03  0.52131182270E+03  0.47000000000E+01 0. -1.
        -11    1    6    6    0    0 -0.25152596332E+02  0.49488096805E+02  0.17020422282E+03  0.17902849576E+03  0.00000000000E+00 0.  1.
         12    1    6    6    0    0  0.23809833467E+02  0.10990575073E+03  0.71603679444E+03  0.72481368172E+03  0.00000000000E+00 0. -1.
         -5    1    3    3    0  503 -0.55930537437E+02 -0.48766922627E+02  0.71694620063E+03  0.72079149714E+03  0.47000000000E+01 0.  1.
         13    1    4    4    0    0 -0.29273076967E+02 -0.32802386824E+02  0.85709894961E+02  0.96328062945E+02  0.00000000000E+00 0. -1.
        -14    1    4    4    0    0  0.24344353774E+02 -0.81654692680E+02  0.27223658999E+03  0.28525935099E+03  0.00000000000E+00 0.  1.
</event>
<event>
12    1  0.1565987E-001  0.2543461E+03  0.7818608E-02  0.1110752E+00
         21   -1    0    0  503  502  0.00000000000E+00  0.00000000000E+00  0.93137480952E+02  0.93137480952E+02  0.00000000000E+00 0. -1.
         21   -1    0    0  501  503 -0.00000000000E+00 -0.00000000000E+00 -0.73339805273E+03  0.73339805273E+03  0.00000000000E+00 0.  1.
          6    2    1    2  501    0 -0.17893911497E+02  0.18686446935E+03 -0.22222929296E+03  0.33775407643E+03  0.17162003239E+03 0.  0.
         24    2    3    3    0    0  0.42335558660E+01  0.12331394826E+03 -0.22678132209E+03  0.27014413254E+03  0.79522521766E+02 0.  0.
         -6    2    1    2    0  502  0.17893911497E+02 -0.18686446935E+03 -0.41803127881E+03  0.48878145726E+03  0.17005481738E+03 0.  0.
        -24    2    5    5    0    0  0.46220207147E+02 -0.81609227497E+02 -0.31711424347E+03  0.34016321145E+03  0.79706922240E+02 0.  0.
          5    1    3    3  501    0 -0.22127467363E+02  0.63550521096E+02  0.45520291218E+01  0.67609943888E+02  0.47000000000E+01 0. -1.
        -11    1    4    4    0    0  0.39751975413E+02  0.54832186989E+02 -0.12795195090E+03  0.14477047357E+03  0.00000000000E+00 0.  1.
         12    1    4    4    0    0 -0.35518419547E+02  0.68481761267E+02 -0.98829371184E+02  0.12537365896E+03  0.00000000000E+00 0. -1.
         -5    1    5    5    0  502 -0.28326295649E+02 -0.10525524185E+03 -0.10091703535E+03  0.14861824581E+03  0.47000000000E+01 0.  1.
         13    1    6    6    0    0  0.39267850447E+02 -0.37596775530E+01 -0.63282592651E+02  0.74570676453E+02  0.00000000000E+00 0. -1.
        -14    1    6    6    0    0  0.69523566996E+01 -0.77849549944E+02 -0.25383165082E+03  0.26559253500E+03  0.00000000000E+00 0.  1.
</event>
<event>
12    1  0.1565987E-001  0.3036141E+03  0.7818608E-02  0.1083508E+00
         21   -1    0    0  501  502  0.00000000000E+00  0.00000000000E+00  0.89953155069E+03  0.89953155069E+03  0.00000000000E+00 0. -1.
         21   -1    0    0  502  503 -0.00000000000E+00 -0.00000000000E+00 -0.12926625873E+03  0.12926625873E+03  0.00000000000E+00 0.  1.
         -6    2    1    2    0  503 -0.17204504182E+03 -0.18131766859E+03  0.15048467846E+03  0.33886154887E+03  0.17235404692E+03 0.  0.
        -24    2    3    3    0    0 -0.45017346119E+02 -0.31346946853E+02  0.90068228508E+02  0.13319315003E+03  0.81356849129E+02 0.  0.
          6    2    1    2  501    0  0.17204504182E+03  0.18131766859E+03  0.61978061349E+03  0.68993626055E+03  0.17148889588E+03 0.  0.
         24    2    5    5    0    0  0.65978847149E+02  0.26666604253E+02  0.17102868890E+03  0.20355434357E+03  0.84375602534E+02 0.  0.
          5    1    5    5  501    0  0.10606619467E+03  0.15465106434E+03  0.44875192458E+03  0.48638191699E+03  0.47000000000E+01 0. -1.
        -13    1    6    6    0    0  0.45185403172E+02 -0.21235513207E+02  0.12242907797E+03  0.13221780067E+03  0.00000000000E+00 0.  1.
         14    1    6    6    0    0  0.20793443977E+02  0.47902117460E+02  0.48599610930E+02  0.71336542895E+02  0.00000000000E+00 0. -1.
         -5    1    3    3    0  503 -0.12702769570E+03 -0.14997072174E+03  0.60416449956E+02  0.20566839883E+03  0.47000000000E+01 0.  1.
         13    1    4    4    0    0 -0.14460203488E+02  0.26768780856E+01 -0.13509369119E+02  0.19969131558E+02  0.00000000000E+00 0. -1.
        -14    1    4    4    0    0 -0.30557142631E+02 -0.34023824939E+02  0.10357759763E+03  0.11322401847E+03  0.00000000000E+00 0.  1.
</event>
<event>
12    1  0.1565987E-001  0.1742122E+03  0.7818608E-02  0.1174044E+00
         21   -1    0    0  503  502  0.00000000000E+00  0.00000000000E+00  0.28200784481E+02  0.28200784481E+02  0.00000000000E+00 0.  1.
         21   -1    0    0  501  503 -0.00000000000E+00 -0.00000000000E+00 -0.20203159074E+04  0.20203159074E+04  0.00000000000E+00 0.  1.
          6    2    1    2  501    0  0.13933543731E+02  0.68228686427E+01 -0.16977898909E+04  0.17064973472E+04  0.17147007712E+03 0.  0.
         24    2    3    3    0    0  0.40459816261E+02  0.72441949019E+01 -0.47431106254E+03  0.48272189640E+03  0.79749420854E+02 0.  0.
         -6    2    1    2    0  502 -0.13933543731E+02 -0.68228686427E+01 -0.29432523210E+03  0.34201934471E+03  0.17352001248E+03 0.  0.
        -24    2    5    5    0    0  0.50161755755E+02  0.32706190424E+01 -0.23728517719E+03  0.25549915184E+03  0.80303565240E+02 0.  0.
          5    1    3    3  501    0 -0.26526272530E+02 -0.42132625916E+00 -0.12234788283E+04  0.12237754508E+04  0.47000000000E+01 0. -1.
        -11    1    4    4    0    0  0.31395359428E+02 -0.18507864609E+02 -0.42328837330E+03  0.42485439460E+03  0.00000000000E+00 0.  1.
         12    1    4    4    0    0  0.90644568330E+01  0.25752059511E+02 -0.51022689241E+02  0.57867501796E+02  0.00000000000E+00 0. -1.
         -5    1    5    5    0  502 -0.64095299486E+02 -0.10093487685E+02 -0.57040054911E+02  0.86520192869E+02  0.47000000000E+01 0.  1.
         11    1    6    6    0    0  0.41958296565E+02  0.12171234503E+02 -0.23927636327E+03  0.24323202014E+03  0.00000000000E+00 0. -1.
        -12    1    6    6    0    0  0.82034591898E+01 -0.89006154607E+01  0.19911860837E+01  0.12267131705E+02  0.00000000000E+00 0.  1.
</event>
<event>
12    1  0.1565987E-001  0.1720021E+03  0.7818608E-02  0.1175921E+00
         21   -1    0    0  501  502  0.00000000000E+00  0.00000000000E+00  0.38653385218E+02  0.38653385218E+02  0.00000000000E+00 0. -1.
         21   -1    0    0  502  503 -0.00000000000E+00 -0.00000000000E+00 -0.97640937201E+03  0.97640937201E+03  0.00000000000E+00 0. -1.
         -6    2    1    2    0  503  0.14341483333E+02 -0.14549049180E+01 -0.70681687563E+03  0.72744403135E+03  0.17139699001E+03 0.  0.
        -24    2    3    3    0    0 -0.51983506901E+01 -0.65829750435E+02 -0.37916820341E+03  0.39292696414E+03  0.79135919660E+02 0.  0.
          6    2    1    2  501    0 -0.14341483333E+02  0.14549049180E+01 -0.23093911116E+03  0.28761872587E+03  0.17083285257E+03 0.  0.
         24    2    5    5    0    0 -0.20784252393E+02 -0.45411181618E+02 -0.21948101782E+03  0.23871762932E+03  0.79498608814E+02 0.  0.
          5    1    5    5  501    0  0.64427690597E+01  0.46866086536E+02 -0.11458093336E+02  0.48901096544E+02  0.47000000000E+01 0. -1.
        -11    1    6    6    0    0 -0.36337396608E+02  0.85438283944E+01 -0.98663702726E+02  0.10548900242E+03  0.00000000000E+00 0.  1.
         12    1    6    6    0    0  0.15553144215E+02 -0.53955010012E+02 -0.12081731510E+03  0.13322862691E+03  0.00000000000E+00 0. -1.
         -5    1    3    3    0  503  0.19539834023E+02  0.64374845517E+02 -0.32764867222E+03  0.33451706721E+03  0.47000000000E+01 0.  1.
         11    1    4    4    0    0 -0.79735343691E+01 -0.52749875017E+02 -0.37520804523E+03  0.37898179874E+03  0.00000000000E+00 0. -1.
        -12    1    4    4    0    0  0.27751836790E+01 -0.13079875418E+02 -0.39601581747E+01  0.13945165405E+02  0.00000000000E+00 0.  1.
</event>
<event>
12    1  0.1565987E-001  0.1942316E+03  0.7818608E-02  0.1154831E+00
         21   -1    0    0  503  502  0.00000000000E+00  0.00000000000E+00  0.10251255779E+03  0.10251255779E+03  0.00000000000E+00 0.  1.
         21   -1    0    0  501  503 -0.00000000000E+00 -0.00000000000E+00 -0.72690907806E+03  0.72690907806E+03  0.00000000000E+00 0.  1.
          6    2    1    2  501    0  0.87345087694E+02  0.22361389364E+02 -0.60381572951E+03  0.63410267533E+03  0.17135802164E+03 0.  0.
         24    2    3    3    0    0  0.60361421424E+02 -0.14685183301E+02 -0.17416013381E+03  0.20198395587E+03  0.81281058164E+02 0.  0.
         -6    2    1    2    0  502 -0.87345087694E+02 -0.22361389364E+02 -0.20580790763E+02  0.19531896051E+03  0.17203700564E+03 0.  0.
        -24    2    5    5    0    0 -0.12698742892E+03 -0.11232077635E+02 -0.29965901754E+02  0.15282723066E+03  0.78779695928E+02 0.  0.
          5    1    3    3  501    0  0.26983666270E+02  0.37046572665E+02 -0.42965559570E+03  0.43211871946E+03  0.47000000000E+01 0. -1.
        -11    1    4    4    0    0  0.42145657367E+02 -0.24169905450E+02 -0.17481066689E+03  0.18143651789E+03  0.00000000000E+00 0.  1.
         12    1    4    4    0    0  0.18215764056E+02  0.94847221489E+01  0.65053308226E+00  0.20547437984E+02  0.00000000000E+00 0. -1.
         -5    1    5    5    0  502  0.39642341228E+02 -0.11129311729E+02  0.93851109908E+01  0.42491729853E+02  0.47000000000E+01 0.  1.
         13    1    6    6    0    0 -0.40217563396E+00 -0.89598244328E+01 -0.24515190628E+02  0.26104305595E+02  0.00000000000E+00 0. -1.
        -14    1    6    6    0    0 -0.12658525329E+03 -0.22722532020E+01 -0.54507111259E+01  0.12672292506E+03  0.00000000000E+00 0.  1.
</event>
<event>
12    1  0.1565987E-001  0.1787914E+03  0.7818608E-02  0.1169141E+00
         21   -1    0    0  503  502  0.00000000000E+00  0.00000000000E+00  0.72792156550E+02  0.72792156550E+02  0.00000000000E+00 0.  1.
         21   -1    0    0  501  503 -0.00000000000E+00 -0.00000000000E+00 -0.68127726726E+03  0.68127726726E+03  0.00000000000E+00 0.  1.
          6    2    1    2  501    0 -0.58049537768E+01 -0.50401469860E+02 -0.52941017061E+03  0.55857211709E+03  0.17074447457E+03 0.  0.
         24    2    3    3    0    0  0.36633042990E+02 -0.58696865395E+02 -0.19955262685E+03  0.22585919829E+03  0.80023900974E+02 0.  0.
         -6    2    1    2    0  502  0.58049537768E+01  0.50401469860E+02 -0.79074940095E+02  0.19549730671E+03  0.17144195848E+03 0.  0.
        -24    2    5    5    0    0  0.46960349157E+02 -0.10623284640E+02 -0.86798312243E+01  0.93539724436E+02  0.79725855330E+02 0.  0.
          5    1    3    3  501    0 -0.42437996767E+02  0.82953955351E+01 -0.32985754376E+03  0.33271291880E+03  0.47000000000E+01 0. -1.
        -11    1    4    4    0    0  0.20570281780E+02 -0.63209721210E+02 -0.19828040406E+03  0.20912609589E+03  0.00000000000E+00 0.  1.
         12    1    4    4    0    0  0.16062761210E+02  0.45128558146E+01 -0.12722227864E+01  0.16733102405E+02  0.00000000000E+00 0. -1.
         -5    1    5    5    0  502 -0.41155395381E+02  0.61024754500E+02 -0.70395108871E+02  0.10195758228E+03  0.47000000000E+01 0.  1.
         13    1    6    6    0    0  0.31656688404E+02 -0.20042371459E+02 -0.41629944143E+02  0.56007988927E+02  0.00000000000E+00 0. -1.
        -14    1    6    6    0    0  0.15303660754E+02  0.94190868193E+01  0.32950112918E+02  0.37531735509E+02  0.00000000000E+00 0.  1.
</event>
<event>
12    1  0.1565987E-001  0.2940331E+03  0.7818608E-02  0.1088272E+00
         21   -1    0    0  501  502  0.00000000000E+00  0.00000000000E+00  0.13420688972E+04  0.13420688972E+04  0.00000000000E+00 0.  1.
         21   -1    0    0  502  503 -0.00000000000E+00 -0.00000000000E+00 -0.71132090055E+02  0.71132090055E+02  0.00000000000E+00 0. -1.
         -6    2    1    2    0  503 -0.18730790670E+03 -0.14751567125E+03  0.41821013935E+03  0.51122908729E+03  0.17207653491E+03 0.  0.
        -24    2    3    3    0    0 -0.12254762707E+03 -0.13149871156E+03  0.23194772960E+03  0.31332453428E+03  0.10983024392E+03 0.  0.
          6    2    1    2  501    0  0.18730790670E+03  0.14751567125E+03  0.85272666778E+03  0.90197189995E+03  0.17194596003E+03 0.  0.
         24    2    5    5    0    0  0.13073604343E+03  0.11874323949E+03  0.78665256955E+03  0.81023256814E+03  0.80390791271E+02 0.  0.
          5    1    5    5  501    0  0.56571863269E+02  0.28772431758E+02  0.66074098236E+02  0.91739331808E+02  0.47000000000E+01 0. -1.
        -13    1    6    6    0    0  0.88412420597E+02  0.29473206556E+02  0.44090745967E+03  0.45064932488E+03  0.00000000000E+00 0.  1.
         14    1    6    6    0    0  0.42323622830E+02  0.89270032933E+02  0.34574510988E+03  0.35958324326E+03  0.00000000000E+00 0. -1.
         -5    1    3    3    0  503 -0.64760279629E+02 -0.16016959689E+02  0.18626240975E+03  0.19790455301E+03  0.47000000000E+01 0.  1.
         13    1    4    4    0    0 -0.30027153852E+02  0.16848465084E+02  0.25821686412E+02  0.43037892993E+02  0.00000000000E+00 0. -1.
        -14    1    4    4    0    0 -0.92520473215E+02 -0.14834717664E+03  0.20612604318E+03  0.27028664129E+03  0.00000000000E+00 0.  1.
</event>
<event>
12    1  0.1565987E-001  0.1832706E+03  0.7818608E-02  0.1164851E+00
         21   -1    0    0  503  502  0.00000000000E+00  0.00000000000E+00  0.37763293154E+03  0.37763293154E+03  0.00000000000E+00 0. -1.
         21   -1    0    0  501  503 -0.00000000000E+00 -0.00000000000E+00 -0.94128676388E+02  0.94128676388E+02  0.00000000000E+00 0.  1.
          6    2    1    2  501    0 -0.46422072662E+02 -0.43308688893E+02  0.84231129516E+02  0.20102577246E+03  0.17113102187E+03 0.  0.
         24    2    3    3    0    0 -0.39382913734E+02 -0.53619271395E+02 -0.11832211614E+02  0.10404065309E+03  0.79110151712E+02 0.  0.
         -6    2    1    2    0  502  0.46422072662E+02  0.43308688893E+02  0.19927312564E+03  0.27073583547E+03  0.17192283922E+03 0.  0.
        -24    2    5    5    0    0  0.67667059719E+02  0.16056643024E+02  0.20821408595E+03  0.23473508200E+03  0.83131259940E+02 0.  0.
          5    1    3    3  501    0 -0.70391589279E+01  0.10310582501E+02  0.96063341130E+02  0.96985119369E+02  0.47000000000E+01 0. -1.
        -11    1    4    4    0    0 -0.41021331677E+02  0.77021494638E+01 -0.10122102721E+01  0.41750417106E+02  0.00000000000E+00 0.  1.
         12    1    4    4    0    0  0.16384179422E+01 -0.61321420859E+02 -0.10820001341E+02  0.62290235980E+02  0.00000000000E+00 0. -1.
         -5    1    5    5    0  502 -0.21244987057E+02  0.27252045869E+02 -0.89409603128E+01  0.36000753470E+02  0.47000000000E+01 0.  1.
         13    1    6    6    0    0 -0.16926002588E+02  0.75704988472E+01  0.70452600933E+02  0.72851705503E+02  0.00000000000E+00 0. -1.
        -14    1    6    6    0    0  0.84593062307E+02  0.84861441771E+01  0.13776148502E+03  0.16188337650E+03  0.00000000000E+00 0.  1.
</event>
<event>
12    1  0.1565987E-001  0.4238849E+03  0.7818608E-02  0.1036601E+00
         21   -1    0    0  503  502  0.00000000000E+00  0.00000000000E+00  0.10293704687E+04  0.10293704687E+04  0.00000000000E+00 0. -1.
         21   -1    0    0  501  503 -0.00000000000E+00 -0.00000000000E+00 -0.60801327155E+03  0.60801327155E+03  0.00000000000E+00 0.  1.
          6    2    1    2  501    0 -0.49454648404E+01  0.37683116345E+03 -0.48441995063E+03  0.63732843387E+03  0.17175174141E+03 0.  0.
         24    2    3    3    0    0 -0.52601374423E+02  0.19575660320E+03 -0.32236707909E+03  0.38965464587E+03  0.82599376975E+02 0.  0.
         -6    2    1    2    0  502  0.49454648404E+01 -0.37683116345E+03  0.90577714780E+03  0.10000553064E+04  0.19404172489E+03 0.  0.
        -24    2    5    5    0    0 -0.47598781559E+02 -0.35178763767E+03  0.75431656161E+03  0.83772701193E+03  0.82297541767E+02 0.  0.
          5    1    3    3  501    0  0.47655909582E+02  0.18107456026E+03 -0.16205287154E+03  0.24767378800E+03  0.47000000000E+01 0. -1.
        -11    1    4    4    0    0 -0.40686035965E+02  0.12176568377E+03 -0.12778428468E+03  0.18113823086E+03  0.00000000000E+00 0.  1.
         12    1    4    4    0    0 -0.11915338457E+02  0.73990919430E+02 -0.19458279441E+03  0.20851641501E+03  0.00000000000E+00 0. -1.
         -5    1    5    5    0  502  0.52544246400E+02 -0.25043525785E+02  0.15146058619E+03  0.16232829446E+03  0.47000000000E+01 0.  1.
         11    1    6    6    0    0  0.13068994623E+02 -0.17085012233E+03  0.40322042910E+03  0.43811788067E+03  0.00000000000E+00 0. -1.
        -12    1    6    6    0    0 -0.60667776183E+02 -0.18093751534E+03  0.35109613251E+03  0.39960913126E+03  0.00000000000E+00 0.  1.
</event>
<event>
12    1  0.1565987E-001  0.2568599E+03  0.7818608E-02  0.1109173E+00
         21   -1    0    0  501  502  0.00000000000E+00  0.00000000000E+00  0.31540120152E+03  0.31540120152E+03  0.00000000000E+00 0.  1.
         21   -1    0    0  502  503 -0.00000000000E+00 -0.00000000000E+00 -0.21497644705E+03  0.21497644705E+03  0.00000000000E+00 0. -1.
         -6    2    1    2    0  503  0.18834471317E+03 -0.29248016413E+02  0.96307273637E+02  0.27432118675E+03  0.17218549619E+03 0.  0.
        -24    2    3    3    0    0  0.71673217058E+02 -0.34858434031E+02 -0.14556864414E+02  0.11321047358E+03  0.79073058370E+02 0.  0.
          6    2    1    2  501    0 -0.18834471317E+03  0.29248016413E+02  0.41174808318E+01  0.25605646183E+03  0.17093501851E+03 0.  0.
         24    2    5    5    0    0 -0.70003294376E+02 -0.39056253594E+02  0.33883778199E+02  0.11613402916E+03  0.76897009933E+02 0.  0.
          5    1    5    5  501    0 -0.11834141880E+03  0.68304270007E+02 -0.29766297367E+02  0.13992243266E+03  0.47000000000E+01 0. -1.
        -11    1    6    6    0    0  0.44649908296E+01  0.16662464294E+02  0.30786694480E+00  0.17253076291E+02  0.00000000000E+00 0.  1.
         12    1    6    6    0    0 -0.74468285206E+02 -0.55718717888E+02  0.33575911254E+02  0.98880952873E+02  0.00000000000E+00 0. -1.
         -5    1    3    3    0  503  0.11667149611E+03  0.56104176174E+01  0.11086413805E+03  0.16111071317E+03  0.47000000000E+01 0.  1.
         11    1    4    4    0    0  0.88207904453E+02 -0.20966882872E+02 -0.11175154888E+02  0.91351675804E+02  0.00000000000E+00 0. -1.
        -12    1    4    4    0    0 -0.16534687395E+02 -0.13891551159E+02 -0.33817095253E+01  0.21858797775E+02  0.00000000000E+00 0.  1.
</event>
<event>
12    1  0.1565987E-001  0.2214511E+03  0.7818608E-02  0.1132807E+00
         21   -1    0    0  501  502  0.00000000000E+00  0.00000000000E+00  0.31408136808E+03  0.31408136808E+03  0.00000000000E+00 0. -1.
         21   -1    0    0  502  503 -0.00000000000E+00 -0.00000000000E+00 -0.47314752133E+03  0.47314752133E+03  0.00000000000E+00 0. -1.
         -6    2    1    2    0  503 -0.13716739661E+03  0.19673758027E+02 -0.40172212814E+03  0.45871697257E+03  0.17273865010E+03 0.  0.
        -24    2    3    3    0    0 -0.14128004299E+03 -0.25703530196E+00 -0.40621536190E+03  0.43735276108E+03  0.79412850115E+02 0.  0.
          6    2    1    2  501    0  0.13716739661E+03 -0.19673758027E+02  0.24265597489E+03  0.32851191684E+03  0.17273160078E+03 0.  0.
         24    2    5    5    0    0  0.73614316151E+02  0.12760239438E+02  0.44010041700E+02  0.11738812614E+03  0.79127726711E+02 0.  0.
          5    1    5    5  501    0  0.63553080459E+02 -0.32433997466E+02  0.19864593319E+03  0.21112379070E+03  0.47000000000E+01 0. -1.
        -11    1    6    6    0    0 -0.12485820887E+02 -0.88547530677E-01  0.25493598967E+02  0.28387094817E+02  0.00000000000E+00 0.  1.
         12    1    6    6    0    0  0.86100137037E+02  0.12848786969E+02  0.18516442734E+02  0.89001031319E+02  0.00000000000E+00 0. -1.
         -5    1    3    3    0  503  0.41126463803E+01  0.19930793329E+02  0.44932337623E+01  0.21364211491E+02  0.47000000000E+01 0.  1.
         11    1    4    4    0    0 -0.89196751688E+02 -0.26486041964E+02 -0.32011050142E+03  0.33335912175E+03  0.00000000000E+00 0. -1.
        -12    1    4    4    0    0 -0.52083291302E+02  0.26229006662E+02 -0.86104860480E+02  0.10399363933E+03  0.00000000000E+00 0.  1.
</event>
<event>
12    1  0.1565987E-001  0.1902394E+03  0.7818608E-02  0.1159433E+00
         21   -1    0    0  503  502  0.00000000000E+00  0.00000000000E+00  0.45086970806E+03  0.45086970806E+03  0.00000000000E+00 0.  1.
         21   -1    0    0  501  503 -0.00000000000E+00 -0.00000000000E+00 -0.84661871534E+02  0.84661871534E+02  0.00000000000E+00 0.  1.
          6    2    1    2  501    0  0.76256367173E+02  0.18180263321E+02  0.11085178525E+03  0.22017981770E+03  0.17333631564E+03 0.  0.
         24    2    3    3    0    0 -0.24839443215E+02 -0.19596853196E+02  0.45014811989E+02  0.93672622415E+02  0.75810238737E+02 0.  0.
         -6    2    1    2    0  502 -0.76256367173E+02 -0.18180263321E+02  0.25535605127E+03  0.31535176189E+03  0.16761403670E+03 0.  0.
        -24    2    5    5    0    0 -0.34430629397E+02 -0.63725331012E+02  0.21157045162E+03  0.23943724241E+03  0.85567230876E+02 0.  0.
          5    1    3    3  501    0  0.10109581039E+03  0.37777116517E+02  0.65836973266E+02  0.12650719529E+03  0.47000000000E+01 0. -1.
        -13    1    4    4    0    0  0.18048812995E+02  0.10874239560E+02  0.33877376047E+02  0.39895931426E+02  0.00000000000E+00 0.  1.
         14    1    4    4    0    0 -0.42888256209E+02 -0.30471092756E+02  0.11137435942E+02  0.53776690989E+02  0.00000000000E+00 0. -1.
         -5    1    5    5    0  502 -0.41825737775E+02  0.45545067691E+02  0.43785599648E+02  0.75914519481E+02  0.47000000000E+01 0.  1.
         13    1    6    6    0    0 -0.37644865755E+01 -0.73460493051E+00 -0.80478719942E+01  0.89151134158E+01  0.00000000000E+00 0. -1.
        -14    1    6    6    0    0 -0.30666142822E+02 -0.62990726082E+02  0.21961832361E+03  0.23052212899E+03  0.00000000000E+00 0.  1.
</event>
<event>
12    1  0.1565987E-001  0.2010498E+03  0.7818608E-02  0.1148941E+00
         21   -1    0    0  501  502  0.00000000000E+00  0.00000000000E+00  0.91860243441E+03  0.91860243441E+03  0.00000000000E+00 0. -1.
         21   -1    0    0  502  503 -0.00000000000E+00 -0.00000000000E+00 -0.19014578735E+03  0.19014578735E+03  0.00000000000E+00 0. -1.
         -6    2    1    2    0  503 -0.88181036907E+02  0.55743295539E+02 -0.12201652127E+03  0.23483425537E+03  0.17139394903E+03 0.  0.
        -24    2    3    3    0    0 -0.65397844796E+02 -0.21083077710E+02 -0.17000160434E+02  0.10265297261E+03  0.74345497917E+02 0.  0.
          6    2    1    2  501    0  0.88181036907E+02 -0.55743295539E+02  0.85047316833E+03  0.87391396639E+03  0.17186564618E+03 0.  0.
         24    2    5    5    0    0 -0.48915994433E+01 -0.59731973954E+01  0.54111476697E+03  0.54701292816E+03  0.79739235668E+02 0.  0.
          5    1    5    5  501    0  0.93072636351E+02 -0.49770098144E+02  0.30935840135E+03  0.32690103823E+03  0.47000000000E+01 0. -1.
        -11    1    6    6    0    0 -0.96434360913E+01  0.18264375268E+02  0.37653023214E+02  0.42945703169E+02  0.00000000000E+00 0.  1.
         12    1    6    6    0    0  0.47518366480E+01 -0.24237572663E+02  0.50346174376E+03  0.50406722499E+03  0.00000000000E+00 0. -1.
         -5    1    3    3    0  503 -0.22783192111E+02  0.76826373250E+02 -0.10501636084E+03  0.13218128277E+03  0.47000000000E+01 0.  1.
         13    1    4    4    0    0 -0.57127255522E+02  0.18594509640E+02 -0.15731082148E+02  0.62102705720E+02  0.00000000000E+00 0. -1.
        -14    1    4    4    0    0 -0.82705892737E+01 -0.39677587350E+02 -0.12690782858E+01  0.40550266886E+02  0.00000000000E+00 0.  1.
</event>
<event>
12    1  0.1565987E-001  0.1732280E+03  0.7818608E-02  0.1174557E+00
         21   -1    0    0  503  502  0.00000000000E+00  0.00000000000E+00  0.86727579320E+02  0.86727579320E+02  0.00000000000E+00 0. -1.
         21   -1    0    0  501  503 -0.00000000000E+00 -0.00000000000E+00 -0.44591743648E+03  0.44591743648E+03  0.00000000000E+00 0. -1.
          6    2    1    2  501    0 -0.36384817203E+01  0.22928950254E+02 -0.30588390162E+03  0.35152935740E+03  0.17166523391E+03 0.  0.
         24    2    3    3    0    0 -0.22625819658E+01 -0.28873409708E+02 -0.28029551362E+03  0.29354459045E+03  0.82243896810E+02 0.  0.
         -6    2    1    2    0  502  0.36384817203E+01 -0.22928950254E+02 -0.53305955541E+02  0.18111565840E+03  0.17152953540E+03 0.  0.
        -24    2    5    5    0    0 -0.64695838826E+02  0.54549466041E+01 -0.35472437827E+02  0.10485722071E+03  0.74306358312E+02 0.  0.
          5    1    3    3  501    0 -0.13758997545E+01  0.51802359962E+02 -0.25588388002E+02  0.57984766950E+02  0.47000000000E+01 0. -1.
        -13    1    4    4    0    0 -0.36969033373E+02  0.30671170153E+01 -0.87021226013E+02  0.94598152266E+02  0.00000000000E+00 0.  1.
         14    1    4    4    0    0  0.34706451407E+02 -0.31940526723E+02 -0.19327428761E+03  0.19894643818E+03  0.00000000000E+00 0. -1.
         -5    1    5    5    0  502  0.68334320546E+02 -0.28383896858E+02 -0.17833517714E+02  0.76258437693E+02  0.47000000000E+01 0.  1.
         13    1    6    6    0    0 -0.71151476844E+02 -0.18560296454E+02 -0.29860016931E+02  0.79363958272E+02  0.00000000000E+00 0. -1.
        -14    1    6    6    0    0  0.64556380177E+01  0.24015243058E+02 -0.56124208958E+01  0.25493262437E+02  0.00000000000E+00 0.  1.
</event>
<event>
12    1  0.1565987E-001  0.1901155E+03  0.7818608E-02  0.1158533E+00
         21   -1    0    0  503  502  0.00000000000E+00  0.00000000000E+00  0.53323990143E+03  0.53323990143E+03  0.00000000000E+00 0.  1.
         21   -1    0    0  501  503 -0.00000000000E+00 -0.00000000000E+00 -0.70475426053E+02  0.70475426053E+02  0.00000000000E+00 0. -1.
          6    2    1    2  501    0 -0.48240867868E+02 -0.64111476042E+02  0.16985421324E+03  0.25493989225E+03  0.17235554013E+03 0.  0.
         24    2    3    3    0    0 -0.25140206990E+01 -0.67526481854E+01  0.11111458630E+02  0.80004670449E+02  0.78900977327E+02 0.  0.
         -6    2    1    2    0  502  0.48240867868E+02  0.64111476042E+02  0.29291026213E+03  0.34877543523E+03  0.17149466424E+03 0.  0.
        -24    2    5    5    0    0  0.59138868130E+01  0.68691319281E+01  0.25640692287E+03  0.26863279326E+03  0.79604701413E+02 0.  0.
          5    1    3    3  501    0 -0.45726847169E+02 -0.57358827857E+02  0.15874275461E+03  0.17493522180E+03  0.47000000000E+01 0. -1.
        -11    1    4    4    0    0 -0.13462431484E+02 -0.83160894178E+01  0.43230166181E+02  0.46035222088E+02  0.00000000000E+00 0.  1.
         12    1    4    4    0    0  0.10948410785E+02  0.15634412324E+01 -0.32118707551E+02  0.33969448361E+02  0.00000000000E+00 0. -1.
         -5    1    5    5    0  502  0.42326981055E+02  0.57242344114E+02  0.36503339262E+02  0.80142641972E+02  0.47000000000E+01 0.  1.
         11    1    6    6    0    0  0.39972025056E+02 -0.99492866888E+01  0.15380603424E+03  0.15922640253E+03  0.00000000000E+00 0. -1.
        -12    1    6    6    0    0 -0.34058138242E+02  0.16818418617E+02  0.10260088863E+03  0.10940639073E+03  0.00000000000E+00 0.  1.
</event>
<event>
12    1  0.1565987E-001  0.2064932E+03  0.7818608E-02  0.1144565E+00
         21   -1    0    0  501  502  0.00000000000E+00  0.00000000000E+00  0.58675105196E+03  0.58675105196E+03  0.00000000000E+00 0. -1.
         21   -1    0    0  502  503 -0.00000000000E+00 -0.00000000000E+00 -0.18728028106E+03  0.18728028106E+03  0.00000000000E+00 0. -1.
         -6    2    1    2    0  503 -0.10273389267E+03  0.51574012566E+02 -0.10328212923E+03  0.23088231360E+03  0.17153808043E+03 0.  0.
        -24    2    3    3    0    0 -0.75336466227E+02 -0.26820096657E+01 -0.12545662918E+03  0.16601218663E+03  0.78344776367E+02 0.  0.
          6    2    1    2  501    0  0.10273389267E+03 -0.51574012566E+02  0.50275290012E+03  0.54314901943E+03  0.17040025601E+03 0.  0.
         24    2    5    5    0    0  0.11860789902E+03 -0.57679215643E+02  0.29037399463E+03  0.33003837427E+03  0.84932597422E+02 0.  0.
          5    1    5    5  501    0 -0.15874006355E+02  0.61052030767E+01  0.21237890549E+03  0.21311064516E+03  0.47000000000E+01 0. -1.
        -11    1    6    6    0    0 -0.13255270957E+02 -0.64922258202E+01  0.37349374290E+02  0.40160016984E+02  0.00000000000E+00 0.  1.
         12    1    6    6    0    0  0.13186316998E+03 -0.51186989823E+02  0.25302462034E+03  0.28987835729E+03  0.00000000000E+00 0. -1.
         -5    1    3    3    0  503 -0.27397426441E+02  0.54256022232E+02  0.22174499959E+02  0.64870126965E+02  0.47000000000E+01 0.  1.
         11    1    4    4    0    0 -0.65626499989E+01  0.20454213140E+02 -0.74007478832E+02  0.77061988900E+02  0.00000000000E+00 0. -1.
        -12    1    4    4    0    0 -0.68773816228E+02 -0.23136222805E+02 -0.51449150352E+02  0.88950197730E+02  0.00000000000E+00 0.  1.
</event>
<event>
12    1  0.1565987E-001  0.2123449E+03  0.7818608E-02  0.1139884E+00
         21   -1    0    0  501  502  0.00000000000E+00  0.00000000000E+00  0.30320269214E+02  0.30320269214E+02  0.00000000000E+00 0.  1.
         21   -1    0    0  502  503 -0.00000000000E+00 -0.00000000000E+00 -0.14915857996E+04  0.14915857996E+04  0.00000000000E+00 0.  1.
         -6    2    1    2    0  503  0.11153791366E+03  0.54988969007E+02 -0.79501651720E+03  0.82288614138E+03  0.17212160281E+03 0.  0.
        -24    2    3    3    0    0  0.73983035730E+02 -0.27424671377E+02 -0.31794056692E+03  0.33726702178E+03  0.80232398155E+02 0.  0.
          6    2    1    2  501    0 -0.11153791366E+03 -0.54988969007E+02 -0.66624901316E+03  0.69901992742E+03  0.17110411593E+03 0.  0.
         24    2    5    5    0    0 -0.13576663360E+03 -0.57606580781E+02 -0.63965037031E+03  0.66264052991E+03  0.90491870858E+02 0.  0.
          5    1    5    5  501    0  0.24228719940E+02  0.26176117738E+01 -0.26598642852E+02  0.36379397506E+02  0.47000000000E+01 0. -1.
        -13    1    6    6    0    0 -0.13113368457E+03 -0.27308542966E+02 -0.58342281433E+03  0.59860168729E+03  0.00000000000E+00 0.  1.
         14    1    6    6    0    0 -0.46329490279E+01 -0.30298037815E+02 -0.56227555978E+02  0.64038842615E+02  0.00000000000E+00 0. -1.
         -5    1    3    3    0  503  0.37554877925E+02  0.82413640384E+02 -0.47707595029E+03  0.48561911960E+03  0.47000000000E+01 0.  1.
         11    1    4    4    0    0  0.69768828707E+02  0.68357354350E+01 -0.26462020583E+03  0.27374855264E+03  0.00000000000E+00 0. -1.
        -12    1    4    4    0    0  0.42142070231E+01 -0.34260406812E+02 -0.53320361084E+02  0.63518469140E+02  0.00000000000E+00 0.  1.
</event>
<event>
12    1  0.1565987E-001  0.1885722E+03  0.7818608E-02  0.1161340E+00
         21   -1    0    0  501  502  0.00000000000E+00  0.00000000000E+00  0.13180112198E+04  0.13180112198E+04  0.00000000000E+00 0.  1.
         21   -1    0    0  502  503 -0.00000000000E+00 -0.00000000000E+00 -0.60647144488E+03  0.60647144488E+03  0.00000000000E+00 0.  1.
         -6    2    1    2    0  503 -0.56698230791E+02  0.41964046842E+02 -0.58532130229E+03  0.61494754497E+03  0.17488220479E+03 0.  0.
        -24    2    3    3    0    0 -0.93023835980E+01  0.54223256810E+02 -0.53825490392E+03  0.54687412567E+03  0.79537864019E+02 0.  0.
          6    2    1    2  501    0  0.56698230791E+02 -0.41964046842E+02  0.12968610772E+04  0.13095351197E+04  0.16750494187E+03 0.  0.
         24    2    5    5    0    0  0.41017269775E+02  0.25677013084E+02  0.92431329619E+03  0.93054284449E+03  0.95985366077E+02 0.  0.
          5    1    5    5  501    0  0.15680961016E+02 -0.67641059926E+02  0.37254778103E+03  0.37899227522E+03  0.47000000000E+01 0. -1.
        -13    1    6    6    0    0  0.67437954955E+02 -0.42235241496E+01  0.59032050342E+03  0.59417506905E+03  0.00000000000E+00 0.  1.
         14    1    6    6    0    0 -0.26420685180E+02  0.29900537234E+02  0.33399279277E+03  0.33636777544E+03  0.00000000000E+00 0. -1.
         -5    1    3    3    0  503 -0.47395847193E+02 -0.12259209969E+02 -0.47066398370E+02  0.68073419304E+02  0.47000000000E+01 0.  1.
         13    1    4    4    0    0  0.23107223042E+02  0.53653083563E+01 -0.32010783355E+03  0.32098559998E+03  0.00000000000E+00 0. -1.
        -14    1    4    4    0    0 -0.32409606640E+02  0.48857948454E+02 -0.21814707037E+03  0.22588852569E+03  0.00000000000E+00 0.  1.
</event>
<event>
12    1  0.1565987E-001  0.2018299E+03  0.7818608E-02  0.1148724E+00
         21   -1    0    0  501  502  0.00000000000E+00  0.00000000000E+00  0.58046892966E+02  0.58046892966E+02  0.00000000000E+00 0.  1.
         21   -1    0    0  502  503 -0.00000000000E+00 -0.00000000000E+00 -0.99326152752E+03  0.99326152752E+03  0.00000000000E+00 0.  1.
         -6    2    1    2    0  503  0.85432083395E+02 -0.60609966536E+02 -0.75854049711E+03  0.78493247935E+03  0.17251986106E+03 0.  0.
        -24    2    3    3    0    0  0.15360601103E+02 -0.68498598896E+01 -0.14686280705E+03  0.16689376841E+03  0.77472428600E+02 0.  0.
          6    2    1    2  501    0 -0.85432083395E+02  0.60609966536E+02 -0.17667413744E+03  0.26637594114E+03  0.16961775338E+03 0.  0.
         24    2    5    5    0    0 -0.87532137480E+02  0.62222526498E+02 -0.54381989735E+02  0.14396487151E+03  0.78961797888E+02 0.  0.
          5    1    5    5  501    0  0.21000540851E+01 -0.16125599615E+01 -0.12229214771E+03  0.12241106963E+03  0.47000000000E+01 0. -1.
        -11    1    6    6    0    0 -0.68507437455E+02  0.44107736842E+01 -0.45742664623E+02  0.82493122610E+02  0.00000000000E+00 0.  1.
         12    1    6    6    0    0 -0.19024700025E+02  0.57811752814E+02 -0.86393251115E+01  0.61471748900E+02  0.00000000000E+00 0. -1.
         -5    1    3    3    0  503  0.70071482291E+02 -0.53760106647E+02 -0.61167769006E+03  0.61803871093E+03  0.47000000000E+01 0.  1.
         11    1    4    4    0    0  0.12498730068E+02 -0.35898693928E+02 -0.12435274623E+03  0.13003284191E+03  0.00000000000E+00 0. -1.
        -12    1    4    4    0    0  0.28618710357E+01  0.29048834038E+02 -0.22510060822E+02  0.36860926508E+02  0.00000000000E+00 0.  1.
</event>
<event>
12    1  0.1565987E-001  0.3044279E+03  0.7818608E-02  0.1083050E+00
         21   -1    0    0  503  502  0.00000000000E+00  0.00000000000E+00  0.78735603998E+03  0.78735603998E+03  0.00000000000E+00 0. -1.
         21   -1    0    0  501  503 -0.00000000000E+00 -0.00000000000E+00 -0.19122985247E+03  0.19122985247E+03  0.00000000000E+00 0.  1.
          6    2    1    2  501    0 -0.60440293381E+02 -0.24396854987E+03 -0.53504708061E+01  0.30445645433E+03  0.17173066895E+03 0.  0.
         24    2    3    3    0    0 -0.58048754836E+00 -0.11036411537E+03  0.55117264694E+02  0.14598949151E+03  0.78066918950E+02 0.  0.
         -6    2    1    2    0  502  0.60440293381E+02  0.24396854987E+03  0.60147665831E+03  0.67412943812E+03  0.17176334431E+03 0.  0.
        -24    2    5    5    0    0  0.10659568152E+03  0.18792065052E+03  0.43052628302E+03  0.48833975141E+03  0.80287123617E+02 0.  0.
          5    1    3    3  501    0 -0.59859805832E+02 -0.13360443449E+03 -0.60467735500E+02  0.15846696283E+03  0.47000000000E+01 0. -1.
        -11    1    4    4    0    0  0.25307645505E+02 -0.39748865065E+01  0.12357413382E+02  0.28442614318E+02  0.00000000000E+00 0.  1.
         12    1    4    4    0    0 -0.25888133054E+02 -0.10638922887E+03  0.42759851312E+02  0.11754687719E+03  0.00000000000E+00 0. -1.
         -5    1    5    5    0  502 -0.46155388137E+02  0.56047899344E+02  0.17095037529E+03  0.18578968671E+03  0.47000000000E+01 0.  1.
         13    1    6    6    0    0  0.75431203683E+02  0.12456392541E+03  0.36092515097E+03  0.38919532706E+03  0.00000000000E+00 0. -1.
        -14    1    6    6    0    0  0.31164477835E+02  0.63356725114E+02  0.69601132051E+02  0.99144424345E+02  0.00000000000E+00 0.  1.
</event>
<event>
12    1  0.1565987E-001  0.2008454E+03  0.7818608E-02  0.1149325E+00
         21   -1    0    0  501  502  0.00000000000E+00  0.00000000000E+00  0.24794736786E+03  0.24794736786E+03  0.00000000000E+00 0. -1.
         21   -1    0    0  502  503 -0.00000000000E+00 -0.00000000000E+00 -0.16171843928E+03  0.16171843928E+03  0.00000000000E+00 0. -1.
         -6    2    1    2    0  503 -0.10041424530E+03 -0.23183501544E+02  0.36366664914E+02  0.20272354056E+03  0.17074485111E+03 0.  0.
        -24    2    3    3    0    0 -0.12725370985E+03  0.19718370238E+02  0.21350758264E+02  0.14972830576E+03  0.73351140904E+02 0.  0.
          6    2    1    2  501    0  0.10041424530E+03  0.23183501544E+02  0.49862263668E+02  0.20694226658E+03  0.17239014171E+03 0.  0.
         24    2    5    5    0    0 -0.78435684967E+01 -0.19521955938E+01  0.46781344916E+02  0.95662710605E+02  0.83051353594E+02 0.  0.
          5    1    5    5  501    0  0.10825781379E+03  0.25135697137E+02  0.30809187520E+01  0.11127955598E+03  0.47000000000E+01 0. -1.
        -13    1    6    6    0    0 -0.14643204391E+02  0.16590243546E+02 -0.17629251481E+02  0.28292227263E+02  0.00000000000E+00 0.  1.
         14    1    6    6    0    0  0.67996358945E+01 -0.18542439140E+02  0.64410596396E+02  0.67370483342E+02  0.00000000000E+00 0. -1.
         -5    1    3    3    0  503  0.26839464548E+02 -0.42901871782E+02  0.15015906650E+02  0.52995234806E+02  0.47000000000E+01 0.  1.
         13    1    4    4    0    0 -0.91077187054E+02  0.43336298639E+02 -0.14606700592E+01  0.10087230709E+03  0.00000000000E+00 0. -1.
        -14    1    4    4    0    0 -0.36176522791E+02 -0.23617928400E+02  0.22811428323E+02  0.48855998663E+02  0.00000000000E+00 0.  1.
</event>
<event>
12    1  0.1565987E-001  0.1922719E+03  0.7818608E-02  0.1156765E+00
         21   -1    0    0  501  502  0.00000000000E+00  0.00000000000E+00  0.55273983993E+03  0.55273983993E+03  0.00000000000E+00 0. -1.
         21   -1    0    0  502  503 -0.00000000000E+00 -0.00000000000E+00 -0.84845918516E+02  0.84845918516E+02  0.00000000000E+00 0. -1.
         -6    2    1    2    0  503  0.43204206401E+02  0.76527396481E+02  0.85856002212E+02  0.21057004114E+03  0.17101299146E+03 0.  0.
        -24    2    3    3    0    0 -0.38145492978E+02  0.50239765370E+02  0.71281177502E+02  0.12371770293E+03  0.79031329817E+02 0.  0.
          6    2    1    2  501    0 -0.43204206401E+02 -0.76527396481E+02  0.38203791920E+03  0.42701571730E+03  0.16931156266E+03 0.  0.
         24    2    5    5    0    0  0.17044491072E+02  0.11586493999E+02  0.18139525576E+03  0.19969758860E+03  0.80932852176E+02 0.  0.
          5    1    5    5  501    0 -0.60248697473E+02 -0.88113890481E+02  0.20064266344E+03  0.22731812870E+03  0.47000000000E+01 0. -1.
        -13    1    6    6    0    0  0.16155916736E+01  0.22122368701E+02  0.17955975571E+03  0.18092461194E+03  0.00000000000E+00 0.  1.
         14    1    6    6    0    0  0.15428899398E+02 -0.10535874702E+02  0.18355000485E+01  0.18772976663E+02  0.00000000000E+00 0. -1.
         -5    1    3    3    0  503  0.81349699378E+02  0.26287631112E+02  0.14574824710E+02  0.86852338217E+02  0.47000000000E+01 0.  1.
         13    1    4    4    0    0  0.15067163231E+02  0.33409052142E+02  0.54056596617E+02  0.65309262825E+02  0.00000000000E+00 0. -1.
        -14    1    4    4    0    0 -0.53212656209E+02  0.16830713227E+02  0.17224580885E+02  0.58408440102E+02  0.00000000000E+00 0.  1.
</event>
<event>
12    1  0.1565987E-001  0.2373282E+03  0.7818608E-02  0.1123722E+00
         21   -1    0    0  503  502  0.00000000000E+00  0.00000000000E+00  0.27096455451E+03  0.27096455451E+03  0.00000000000E+00 0.  1.
         21   -1    0    0  501  503 -0.00000000000E+00 -0.00000000000E+00 -0.20906206483E+03  0.20906206483E+03  0.00000000000E+00 0.  1.
          6    2    1    2  501    0 -0.41010926059E+02  0.14397397203E+03 -0.26875291654E+02  0.22663727814E+03  0.16802313490E+03 0.  0.
         24    2    3    3    0    0  0.54513554692E+01  0.14681801745E+03  0.93768290056E+01  0.16744996149E+03  0.79789204512E+02 0.  0.
         -6    2    1    2    0  502  0.41010926059E+02 -0.14397397203E+03  0.88777781339E+02  0.25338934120E+03  0.18415825557E+03 0.  0.
        -24    2    5    5    0    0 -0.46642791739E+02 -0.47689907796E+02  0.65830441255E+02  0.12109245656E+03  0.76680236779E+02 0.  0.
          5    1    3    3  501    0 -0.46462281528E+02 -0.28440454249E+01 -0.36252120660E+02  0.59187316644E+02  0.47000000000E+01 0. -1.
        -13    1    4    4    0    0 -0.36793639691E+02  0.62842531326E+02  0.95658498379E+01  0.73446995502E+02  0.00000000000E+00 0.  1.
         14    1    4    4    0    0  0.42244995160E+02  0.83975486127E+02 -0.18902083230E+00  0.94002965991E+02  0.00000000000E+00 0. -1.
         -5    1    5    5    0  502  0.87653717797E+02 -0.96284064232E+02  0.22947340083E+02  0.13229688464E+03  0.47000000000E+01 0.  1.
         13    1    6    6    0    0 -0.13360527847E+02  0.13729582275E+02 -0.67912751829E+01  0.20325514812E+02  0.00000000000E+00 0. -1.
        -14    1    6    6    0    0 -0.33282263892E+02 -0.61419490070E+02  0.72621716438E+02  0.10076694175E+03  0.00000000000E+00 0.  1.
</event>
<event>
12    1  0.1565987E-001  0.2032159E+03  0.7818608E-02  0.1147061E+00
         21   -1    0    0  503  502  0.00000000000E+00  0.00000000000E+00  0.88461877777E+03  0.88461877777E+03  0.00000000000E+00 0. -1.
         21   -1    0    0  501  503 -0.00000000000E+00 -0.00000000000E+00 -0.46760467773E+02  0.46760467773E+02  0.00000000000E+00 0.  1.
          6    2    1    2  501    0 -0.89582266456E+01  0.11006787410E+03  0.43890526866E+03  0.48366777865E+03  0.17059161327E+03 0.  0.
         24    2    3    3    0    0 -0.93402899617E+01  0.88248420742E+02  0.44512480327E+03  0.46049436440E+03  0.77742809191E+02 0.  0.
         -6    2    1    2    0  502  0.89582266456E+01 -0.11006787410E+03  0.39895304134E+03  0.44771146688E+03  0.17054864894E+03 0.  0.
        -24    2    5    5    0    0  0.69312897211E+02 -0.91871110378E+02  0.30095998332E+03  0.33109869791E+03  0.76189615794E+02 0.  0.
          5    1    3    3  501    0  0.38206331604E+00  0.21819453358E+02 -0.62195346131E+01  0.23173414250E+02  0.47000000000E+01 0. -1.
        -13    1    4    4    0    0 -0.33521208881E+02  0.54371189875E+02  0.15887251590E+03  0.17123193056E+03  0.00000000000E+00 0.  1.
         14    1    4    4    0    0  0.24180918920E+02  0.33877230867E+02  0.28625228737E+03  0.28926243385E+03  0.00000000000E+00 0. -1.
         -5    1    5    5    0  502 -0.60354670565E+02 -0.18196763722E+02  0.97993058015E+02  0.11661276898E+03  0.47000000000E+01 0.  1.
         13    1    6    6    0    0  0.97909935989E+01  0.13678374847E+02  0.34765549821E+02  0.38621301745E+02  0.00000000000E+00 0. -1.
        -14    1    6    6    0    0  0.59521903612E+02 -0.10554948522E+03  0.26619443350E+03  0.29247739616E+03  0.00000000000E+00 0.  1.
</event>
<event>
12    1  0.1565987E-001  0.2203020E+03  0.7818608E-02  0.1134052E+00
         21   -1    0    0  503  502  0.00000000000E+00  0.00000000000E+00  0.18294235378E+04  0.18294235378E+04  0.00000000000E+00 0. -1.
         21   -1    0    0  501  503 -0.00000000000E+00 -0.00000000000E+00 -0.31040818848E+02  0.31040818848E+02  0.00000000000E+00 0. -1.
          6    2    1    2  501    0 -0.11431091760E+03  0.70439842012E+02  0.53840078080E+03  0.58172879186E+03  0.17465459994E+03 0.  0.
         24    2    3    3    0    0 -0.14039394282E+03  0.28262574245E+02  0.39415981254E+03  0.42912868358E+03  0.90995807413E+02 0.  0.
         -6    2    1    2    0  502  0.11431091760E+03 -0.70439842012E+02  0.12599819381E+04  0.12787355648E+04  0.17199245034E+03 0.  0.
        -24    2    5    5    0    0  0.44321293553E+02 -0.87383249197E+02  0.10234453347E+04  0.10314355824E+04  0.82576014736E+02 0.  0.
          5    1    3    3  501    0  0.26083025216E+02  0.42177267766E+02  0.14424096826E+03  0.15260010828E+03  0.47000000000E+01 0. -1.
        -13    1    4    4    0    0 -0.22472601485E+01  0.54542790796E+01  0.13018571205E+03  0.13031929619E+03  0.00000000000E+00 0.  1.
         14    1    4    4    0    0 -0.13814668267E+03  0.22808295166E+02  0.26397410049E+03  0.29880938739E+03  0.00000000000E+00 0. -1.
         -5    1    5    5    0  502  0.69989624048E+02  0.16943407186E+02  0.23653660342E+03  0.24729998237E+03  0.47000000000E+01 0.  1.
         13    1    6    6    0    0  0.52814900741E+02 -0.15661594054E+02  0.50166356050E+03  0.50467913292E+03  0.00000000000E+00 0. -1.
        -14    1    6    6    0    0 -0.84936071882E+01 -0.71721655143E+02  0.52178177423E+03  0.52675644950E+03  0.00000000000E+00 0.  1.
</event>
<event>
12    1  0.1565987E-001  0.2563272E+03  0.7818608E-02  0.1109397E+00
         21   -1    0    0  501  502  0.00000000000E+00  0.00000000000E+00  0.41811768239E+03  0.41811768239E+03  0.00000000000E+00 0.  1.
         21   -1    0    0  502  503 -0.00000000000E+00 -0.00000000000E+00 -0.18123646857E+03  0.18123646857E+03  0.00000000000E+00 0.  1.
         -6    2    1    2    0  503  0.80317968028E+02 -0.17229795738E+03  0.89618594664E+01  0.25648380703E+03  0.17194785907E+03 0.  0.
        -24    2    3    3    0    0  0.59543209207E+01 -0.11555886773E+03 -0.45834885993E+02  0.14797551417E+03  0.80041302917E+02 0.  0.
          6    2    1    2  501    0 -0.80317968028E+02  0.17229795738E+03  0.22791935436E+03  0.34287034394E+03  0.17168365839E+03 0.  0.
         24    2    5    5    0    0 -0.52506204574E+02  0.27527999044E+02  0.53007988729E+02  0.11407368564E+03  0.81781823392E+02 0.  0.
          5    1    5    5  501    0 -0.27811763454E+02  0.14476995833E+03  0.17491136563E+03  0.22879665830E+03  0.47000000000E+01 0. -1.
        -13    1    6    6    0    0 -0.58563110107E+02  0.42607954627E+02  0.62144375074E+02  0.95430597904E+02  0.00000000000E+00 0.  1.
         14    1    6    6    0    0  0.60569055335E+01 -0.15079955583E+02 -0.91363863457E+01  0.18643087740E+02  0.00000000000E+00 0. -1.
         -5    1    3    3    0  503  0.74363647107E+02 -0.56739089651E+02  0.54796745460E+02  0.10850829286E+03  0.47000000000E+01 0.  1.
         13    1    4    4    0    0 -0.33183957512E+02 -0.68358853443E+02 -0.91836012096E+01  0.76540488706E+02  0.00000000000E+00 0. -1.
        -14    1    4    4    0    0  0.39138278433E+02 -0.47200014282E+02 -0.36651284784E+02  0.71435025465E+02  0.00000000000E+00 0.  1.
</event>
<event>
12    1  0.1565987E-001  0.2471986E+03  0.7818608E-02  0.1116309E+00
         21   -1    0    0  503  502  0.00000000000E+00  0.00000000000E+00  0.95930411689E+02  0.95930411689E+02  0.00000000000E+00 0. -1.
         21   -1    0    0  501  503 -0.00000000000E+00 -0.00000000000E+00 -0.11759931731E+04  0.11759931731E+04  0.00000000000E+00 0. -1.
          6    2    1    2  501    0 -0.41224294271E+02 -0.17272627589E+03 -0.97377218263E+03  0.10028420778E+04  0.16101602548E+03 0.  0.
         24    2    3    3    0    0  0.14861768094E+02 -0.31823875654E+02 -0.36725091868E+03  0.37763070039E+03  0.80610653095E+02 0.  0.
         -6    2    1    2    0  502  0.41224294271E+02  0.17272627589E+03 -0.10629057882E+03  0.26908150706E+03  0.17196907128E+03 0.  0.
        -24    2    5    5    0    0 -0.11050145041E+02  0.14079919053E+03 -0.18531496364E+02  0.16195680245E+03  0.77071860888E+02 0.  0.
          5    1    3    3  501    0 -0.56086062365E+02 -0.14090240023E+03 -0.60652126395E+03  0.62521137738E+03  0.47000000000E+01 0. -1.
        -13    1    4    4    0    0  0.58114351875E+01  0.11726104649E+02 -0.73866205903E+01  0.15027856564E+02  0.00000000000E+00 0.  1.
         14    1    4    4    0    0  0.90503329069E+01 -0.43549980302E+02 -0.35986429809E+03  0.36260284382E+03  0.00000000000E+00 0. -1.
         -5    1    5    5    0  502  0.52274439311E+02  0.31927085351E+02 -0.87759082459E+02  0.10712470461E+03  0.47000000000E+01 0.  1.
         11    1    6    6    0    0  0.16179083527E+02  0.11606714751E+03 -0.34045383121E+02  0.12203455899E+03  0.00000000000E+00 0. -1.
        -12    1    6    6    0    0 -0.27229228568E+02  0.24732043021E+02  0.15513886758E+02  0.39922243458E+02  0.00000000000E+00 0.  1.
</event>
<event>
12    1  0.1565987E-001  0.1728459E+03  0.7818608E-02  0.1175132E+00
         21   -1    0    0  501  502  0.00000000000E+00  0.00000000000E+00  0.30245882219E+03  0.30245882219E+03  0.00000000000E+00 0. -1.
         21   -1    0    0  502  503 -0.00000000000E+00 -0.00000000000E+00 -0.23983064041E+03  0.23983064041E+03  0.00000000000E+00 0. -1.
         -6    2    1    2    0  503  0.18412466215E+02 -0.15490822912E+02 -0.17695732133E+03  0.24736530997E+03  0.17116284205E+03 0.  0.
        -24    2    3    3    0    0 -0.24422666183E+02 -0.22077402381E+02 -0.18503371000E+03  0.20303079012E+03  0.76812431148E+02 0.  0.
          6    2    1    2  501    0 -0.18412466215E+02  0.15490822912E+02  0.23958550311E+03  0.29492415263E+03  0.17029403396E+03 0.  0.
         24    2    5    5    0    0  0.18449280962E+02  0.67955116668E+02  0.17740757007E+03  0.20548436350E+03  0.76105872797E+02 0.  0.
          5    1    5    5  501    0 -0.36861747177E+02 -0.52464293756E+02  0.62177933034E+02  0.89439789136E+02  0.47000000000E+01 0. -1.
        -11    1    6    6    0    0  0.20335615466E+02  0.25814031342E+02  0.12324372672E+02  0.35096889210E+02  0.00000000000E+00 0.  1.
         12    1    6    6    0    0 -0.18863345043E+01  0.42141085326E+02  0.16508319740E+03  0.17038747429E+03  0.00000000000E+00 0. -1.
         -5    1    3    3    0  503  0.42835132398E+02  0.65865794696E+01  0.80763886731E+01  0.44334519854E+02  0.47000000000E+01 0.  1.
         13    1    4    4    0    0 -0.28229616961E+02 -0.34318322450E+02 -0.48048448903E+02  0.65447016522E+02  0.00000000000E+00 0. -1.
        -14    1    4    4    0    0  0.38069507782E+01  0.12240920069E+02 -0.13698526110E+03  0.13758377359E+03  0.00000000000E+00 0.  1.
</event>
<event>
12    1  0.1565987E-001  0.1812463E+03  0.7818608E-02  0.1166656E+00
         21   -1    0    0  503  502  0.00000000000E+00  0.00000000000E+00  0.80587943184E+03  0.80587943184E+03  0.00000000000E+00 0. -1.
         21   -1    0    0  501  503 -0.00000000000E+00 -0.00000000000E+00 -0.40886727782E+02  0.40886727782E+02  0.00000000000E+00 0. -1.
          6    2    1    2  501    0 -0.30001514348E+02  0.47778824101E+02  0.35468242163E+03  0.39820761630E+03  0.17200807705E+03 0.  0.
         24    2    3    3    0    0  0.47600357151E+02  0.40370324720E+02  0.16823108054E+03  0.19606131058E+03  0.79011289873E+02 0.  0.
         -6    2    1    2    0  502  0.30001514348E+02 -0.47778824101E+02  0.41031028244E+03  0.44855854333E+03  0.17224207391E+03 0.  0.
        -24    2    5    5    0    0 -0.19946916469E+02 -0.85291899690E+02  0.26190980987E+03  0.28747823156E+03  0.79839823935E+02 0.  0.
          5    1    3    3  501    0 -0.77601871499E+02  0.74084993814E+01  0.18645134109E+03  0.20214630572E+03  0.47000000000E+01 0. -1.
        -11    1    4    4    0    0 -0.74882027684E+01 -0.26491707117E+01  0.93125675447E+02  0.93463804296E+02  0.00000000000E+00 0.  1.
         12    1    4    4    0    0  0.55088559919E+02  0.43019495432E+02  0.75105405093E+02  0.10259750628E+03  0.00000000000E+00 0. -1.
         -5    1    5    5    0  502  0.49948430817E+02  0.37513075589E+02  0.14840047257E+03  0.16108031177E+03  0.47000000000E+01 0.  1.
         11    1    6    6    0    0 -0.48474476511E+02 -0.63396892697E+02  0.14965808262E+03  0.16960684706E+03  0.00000000000E+00 0. -1.
        -12    1    6    6    0    0  0.28527560042E+02 -0.21895006993E+02  0.11225172725E+03  0.11787138450E+03  0.00000000000E+00 0.  1.
</event>
<event>
12    1  0.1565987E-001  0.1798660E+03  0.7818608E-02  0.1168022E+00
         21   -1    0    0  501  502  0.00000000000E+00  0.00000000000E+00  0.26395821052E+03  0.26395821052E+03  0.00000000000E+00 0.  1.
         21   -1    0    0  502  503 -0.00000000000E+00 -0.00000000000E+00 -0.20481537464E+03  0.20481537464E+03  0.00000000000E+00 0.  1.
         -6    2    1    2    0  503  0.44105367560E+02 -0.29519398845E+02 -0.11920536025E+03  0.21547562646E+03  0.17147346538E+03 0.  0.
        -24    2    3    3    0    0  0.85922874170E+02 -0.49157221775E+02 -0.57352310515E+02  0.13813069961E+03  0.77405619267E+02 0.  0.
          6    2    1    2  501    0 -0.44105367560E+02  0.29519398845E+02  0.17834819612E+03  0.25329795870E+03  0.17185778558E+03 0.  0.
         24    2    5    5    0    0 -0.76599241793E+02 -0.17029013620E+02  0.73316640531E+02  0.13381438562E+03  0.79834384016E+02 0.  0.
          5    1    5    5  501    0  0.32493874233E+02  0.46548412465E+02  0.10503155559E+03  0.11948357308E+03  0.47000000000E+01 0. -1.
        -13    1    6    6    0    0 -0.16219897064E+02  0.23881042688E+02  0.49114033013E+02  0.56969970155E+02  0.00000000000E+00 0.  1.
         14    1    6    6    0    0 -0.60379344728E+02 -0.40910056308E+02  0.24202607518E+02  0.76844415461E+02  0.00000000000E+00 0. -1.
         -5    1    3    3    0  503 -0.41817506610E+02  0.19637822930E+02 -0.61853049733E+02  0.77344926852E+02  0.47000000000E+01 0.  1.
         11    1    4    4    0    0 -0.82135533215E+01  0.56356805390E+01  0.64796344025E+01  0.11883139959E+02  0.00000000000E+00 0. -1.
        -12    1    4    4    0    0  0.94136427492E+02 -0.54792902314E+02 -0.63831944918E+02  0.12624755965E+03  0.00000000000E+00 0.  1.
</event>
<event>
12    1  0.1565987E-001  0.2013691E+03  0.7818608E-02  0.1148826E+00
         21   -1    0    0  503  502  0.00000000000E+00  0.00000000000E+00  0.14723781226E+03  0.14723781226E+03  0.00000000000E+00 0. -1.
         21   -1    0    0  501  503 -0.00000000000E+00 -0.00000000000E+00 -0.32482798924E+03  0.32482798924E+03  0.00000000000E+00 0. -1.
          6    2    1    2  501    0 -0.46150251246E+00 -0.10527303615E+03 -0.18250240019E+03  0.27176580376E+03  0.17165925811E+03 0.  0.
         24    2    3    3    0    0 -0.45169716877E+02 -0.97279927235E+02 -0.18614437068E+03  0.22596112965E+03  0.70035832330E+02 0.  0.
         -6    2    1    2    0  502  0.46150251246E+00  0.10527303615E+03  0.49122232108E+01  0.20029999774E+03  0.17033300923E+03 0.  0.
        -24    2    5    5    0    0 -0.39769175664E+02  0.10096496263E+03  0.46613674930E+02  0.14200618984E+03  0.78850569115E+02 0.  0.
          5    1    3    3  501    0  0.44708214365E+02 -0.79931089150E+01  0.36419704891E+01  0.45804674116E+02  0.47000000000E+01 0. -1.
        -13    1    4    4    0    0 -0.25014542023E+02 -0.21008225595E+02 -0.11561288967E+03  0.12013914064E+03  0.00000000000E+00 0.  1.
         14    1    4    4    0    0 -0.20155174854E+02 -0.76271701640E+02 -0.70531481007E+02  0.10582198901E+03  0.00000000000E+00 0. -1.
         -5    1    5    5    0  502  0.40230678177E+02  0.43080735201E+01 -0.41701451719E+02  0.58293807900E+02  0.47000000000E+01 0.  1.
         13    1    6    6    0    0 -0.55516996540E+02  0.62027371752E+02  0.54188084150E+02  0.99327137355E+02  0.00000000000E+00 0. -1.
        -14    1    6    6    0    0  0.15747820876E+02  0.38937590879E+02 -0.75744092202E+01  0.42679052482E+02  0.00000000000E+00 0.  1.
</event>
<event>
12    1  0.1565987E-001  0.1730606E+03  0.7818608E-02  0.1174965E+00
         21   -1    0    0  503  502  0.00000000000E+00  0.00000000000E+00  0.53237015149E+02  0.53237015149E+02  0.00000000000E+00 0. -1.
         21   -1    0    0  501  503 -0.00000000000E+00 -0.00000000000E+00 -0.65339748642E+03  0.65339748642E+03  0.00000000000E+00 0. -1.
          6    2    1    2  501    0 -0.16640408719E+02  0.23920609699E+01 -0.43507354830E+03  0.46822958777E+03  0.17224206592E+03 0.  0.
         24    2    3    3    0    0 -0.14915943560E+02  0.20154324906E+02 -0.93013359878E+02  0.12567195130E+03  0.80704845225E+02 0.  0.
         -6    2    1    2    0  502  0.16640408719E+02 -0.23920609699E+01 -0.16508692297E+03  0.23840491380E+03  0.17117413832E+03 0.  0.
        -24    2    5    5    0    0  0.53465247789E+02  0.13736156872E+02 -0.17251038733E+03  0.19725414217E+03  0.78116247593E+02 0.  0.
          5    1    3    3  501    0 -0.17244651586E+01 -0.17762263936E+02 -0.34206018842E+03  0.34255763647E+03  0.47000000000E+01 0. -1.
        -11    1    4    4    0    0 -0.15578802552E+02  0.49413648990E+01 -0.10501766751E+03  0.10628182660E+03  0.00000000000E+00 0.  1.
         12    1    4    4    0    0  0.66285899194E+00  0.15212960007E+02  0.12004307631E+02  0.19390124701E+02  0.00000000000E+00 0. -1.
         -5    1    5    5    0  502 -0.36824839070E+02 -0.16128217842E+02  0.74234643562E+01  0.41150771637E+02  0.47000000000E+01 0.  1.
         11    1    6    6    0    0  0.39366497731E+02  0.45033653267E+02 -0.92043161660E+02  0.10977110129E+03  0.00000000000E+00 0. -1.
        -12    1    6    6    0    0  0.14098750059E+02 -0.31297496395E+02 -0.80467225670E+02  0.87483040875E+02  0.00000000000E+00 0.  1.
</event>
<event>
12    1  0.1565987E-001  0.2554198E+03  0.7818608E-02  0.1110008E+00
         21   -1    0    0  501  502  0.00000000000E+00  0.00000000000E+00  0.18940122697E+03  0.18940122697E+03  0.00000000000E+00 0.  1.
         21   -1    0    0  502  503 -0.00000000000E+00 -0.00000000000E+00 -0.34781802073E+03  0.34781802073E+03  0.00000000000E+00 0. -1.
         -6    2    1    2    0  503 -0.17808888739E+03 -0.64098156406E+02 -0.50198701835E+02  0.26030593732E+03  0.17150815104E+03 0.  0.
        -24    2    3    3    0    0 -0.13084555671E+03  0.14431178342E+02  0.13762000026E+01  0.15504032466E+03  0.81894992065E+02 0.  0.
          6    2    1    2  501    0  0.17808888739E+03  0.64098156406E+02 -0.10821809192E+03  0.27691331038E+03  0.17072082644E+03 0.  0.
         24    2    5    5    0    0  0.18291787256E+03  0.89003057967E+02 -0.12075252655E+03  0.24822925086E+03  0.75207020184E+02 0.  0.
          5    1    5    5  501    0 -0.48289851640E+01 -0.24904901562E+02  0.12534434624E+02  0.28684059526E+02  0.47000000000E+01 0. -1.
        -13    1    6    6    0    0  0.36737205102E+02  0.41484878688E+02 -0.46679152634E+01  0.55609413154E+02  0.00000000000E+00 0.  1.
         14    1    6    6    0    0  0.14618066745E+03  0.47518179279E+02 -0.11608461128E+03  0.19261983770E+03  0.00000000000E+00 0. -1.
         -5    1    3    3    0  503 -0.47243330684E+02 -0.78529334747E+02 -0.51574901838E+02  0.10526561266E+03  0.47000000000E+01 0.  1.
         13    1    4    4    0    0 -0.65616513516E+02  0.38196331980E+02 -0.26232888933E+02  0.80328395257E+02  0.00000000000E+00 0. -1.
        -14    1    4    4    0    0 -0.65229043192E+02 -0.23765153638E+02  0.27609088935E+02  0.74711929403E+02  0.00000000000E+00 0.  1.
</event>
<event>
12    1  0.1565987E-001  0.3201586E+03  0.7818608E-02  0.1075686E+00
         21   -1    0    0  501  502  0.00000000000E+00  0.00000000000E+00  0.14165042218E+04  0.14165042218E+04  0.00000000000E+00 0.  1.
         21   -1    0    0  502  503 -0.00000000000E+00 -0.00000000000E+00 -0.75144444655E+02  0.75144444655E+02  0.00000000000E+00 0. -1.
         -6    2    1    2    0  503 -0.32706776692E+02  0.26798058617E+03  0.52267265253E+03  0.61293413561E+03  0.17209946275E+03 0.  0.
        -24    2    3    3    0    0 -0.68658375382E+02  0.20934561250E+03  0.30713951248E+03  0.38664405176E+03  0.81359600853E+02 0.  0.
          6    2    1    2  501    0  0.32706776692E+02 -0.26798058617E+03  0.81868712463E+03  0.87871453086E+03  0.17031526918E+03 0.  0.
         24    2    5    5    0    0  0.47351489577E+02 -0.16209208671E+03  0.66885474437E+03  0.69459860513E+03  0.81145209644E+02 0.  0.
          5    1    5    5  501    0 -0.14644712886E+02 -0.10588849947E+03  0.14983238026E+03  0.18411592573E+03  0.47000000000E+01 0. -1.
        -13    1    6    6    0    0  0.37549707154E+02 -0.13990796398E+03  0.41437321741E+03  0.43896398736E+03  0.00000000000E+00 0.  1.
         14    1    6    6    0    0  0.98017824235E+01 -0.22184122724E+02  0.25448152695E+03  0.25563461777E+03  0.00000000000E+00 0. -1.
         -5    1    3    3    0  503  0.35951598690E+02  0.58634973667E+02  0.21553314005E+03  0.22629008384E+03  0.47000000000E+01 0.  1.
         11    1    4    4    0    0  0.14968048277E+01  0.87779244202E+02  0.75462996815E+02  0.11576743940E+03  0.00000000000E+00 0. -1.
        -12    1    4    4    0    0 -0.70155180209E+02  0.12156636830E+03  0.23167651567E+03  0.27087661236E+03  0.00000000000E+00 0.  1.
</event>
<event>
12    1  0.1565987E-001  0.1833731E+03  0.7818608E-02  0.1165128E+00
         21   -1    0    0  501  502  0.00000000000E+00  0.00000000000E+00  0.18732572357E+04  0.18732572357E+04  0.00000000000E+00 0.  1.
         21   -1    0    0  502  503 -0.00000000000E+00 -0.00000000000E+00 -0.41019784173E+02  0.41019784173E+02  0.00000000000E+00 0.  1.
         -6    2    1    2    0  503 -0.19949528571E+02  0.58153258735E+02  0.19231715414E+03  0.26413633789E+03  0.17030071058E+03 0.  0.
        -24    2    3    3    0    0  0.41595638769E+02 -0.33416513750E+01  0.71403368112E+02  0.11510055277E+03  0.80052061013E+02 0.  0.
          6    2    1    2  501    0  0.19949528571E+02 -0.58153258735E+02  0.16399202974E+04  0.16501406820E+04  0.17275966944E+03 0.  0.
         24    2    5    5    0    0 -0.93191942640E+01 -0.12373283053E+01  0.13789223815E+04  0.13813692487E+04  0.81643668469E+02 0.  0.
          5    1    5    5  501    0  0.29268722835E+02 -0.56915930429E+02  0.26099791594E+03  0.26877143337E+03  0.47000000000E+01 0. -1.
        -11    1    6    6    0    0  0.37208903665E+01 -0.34151077281E+02  0.31682797581E+03  0.31868496570E+03  0.00000000000E+00 0.  1.
         12    1    6    6    0    0 -0.13040084630E+02  0.32913748975E+02  0.10620944057E+04  0.10626842830E+04  0.00000000000E+00 0. -1.
         -5    1    3    3    0  503 -0.61545167339E+02  0.61494910110E+02  0.12091378603E+03  0.14903578511E+03  0.47000000000E+01 0.  1.
         11    1    4    4    0    0  0.34114320947E+01  0.33150492313E+02  0.45152647172E+02  0.56119110436E+02  0.00000000000E+00 0. -1.
        -12    1    4    4    0    0  0.38184206674E+02 -0.36492143688E+02  0.26250720940E+02  0.58981442337E+02  0.00000000000E+00 0.  1.
</event>
<event>
12    1  0.1565987E-001  0.1795174E+03  0.7818608E-02  0.1168413E+00
         21   -1    0    0  501  502  0.00000000000E+00  0.00000000000E+00  0.58296517415E+03  0.58296517415E+03  0.00000000000E+00 0. -1.
         21   -1    0    0  502  503 -0.00000000000E+00 -0.00000000000E+00 -0.16146640800E+03  0.16146640800E+03  0.00000000000E+00 0. -1.
         -6    2    1    2    0  503  0.49223495271E+02 -0.53244447814E+01 -0.91235825660E+02  0.20137151409E+03  0.17255494372E+03 0.  0.
        -24    2    3    3    0    0  0.35787981264E+02 -0.31198888690E+02 -0.12510018602E+03  0.15643951227E+03  0.81050072173E+02 0.  0.
          6    2    1    2  501    0 -0.49223495271E+02  0.53244447814E+01  0.51273459181E+03  0.54306006806E+03  0.17194817150E+03 0.  0.
         24    2    5    5    0    0 -0.73326878479E+02 -0.45783379703E+02  0.27825302569E+03  0.30182019230E+03  0.78725683294E+02 0.  0.
          5    1    5    5  501    0  0.24103383208E+02  0.51107824484E+02  0.23448156612E+03  0.24123987576E+03  0.47000000000E+01 0. -1.
        -11    1    6    6    0    0  0.14649022603E+02 -0.35509887080E+00  0.17054670063E+02  0.22485144637E+02  0.00000000000E+00 0.  1.
         12    1    6    6    0    0 -0.87975901081E+02 -0.45428280832E+02  0.26119835563E+03  0.27933504767E+03  0.00000000000E+00 0. -1.
         -5    1    3    3    0  503  0.13435514006E+02  0.25874443909E+02  0.33864360362E+02  0.44932001813E+02  0.47000000000E+01 0.  1.
         13    1    4    4    0    0  0.43683269636E+02 -0.18560757820E+02 -0.22080512006E+02  0.52347672226E+02  0.00000000000E+00 0. -1.
        -14    1    4    4    0    0 -0.78952883719E+01 -0.12638130870E+02 -0.10301967402E+03  0.10409184005E+03  0.00000000000E+00 0.  1.
</event>
<event>
12    1  0.1565987E-001  0.1835591E+03  0.7818608E-02  0.1164563E+00
         21   -1    0    0  503  502  0.00000000000E+00  0.00000000000E+00  0.52117142903E+03  0.52117142903E+03  0.00000000000E+00 0.  1.
         21   -1    0    0  501  503 -0.00000000000E+00 -0.00000000000E+00 -0.10842002460E+03  0.10842002460E+03  0.00000000000E+00 0. -1.
          6    2    1    2  501    0  0.37790355085E+02  0.50590846284E+02  0.60434676397E+01  0.18365855948E+03  0.17235544176E+03 0.  0.
         24    2    3    3    0    0  0.69884398136E+02  0.14981089633E+02  0.55207700369E+02  0.11483055539E+03  0.70921816960E+02 0.  0.
         -6    2    1    2    0  502 -0.37790355085E+02 -0.50590846284E+02  0.40670793679E+03  0.44593289415E+03  0.17163116144E+03 0.  0.
        -24    2    5    5    0    0 -0.68043800851E+02 -0.64422068947E+01  0.11773982148E+03  0.15201277744E+03  0.67629565136E+02 0.  0.
          5    1    3    3  501    0 -0.32094043052E+02  0.35609756651E+02 -0.49164232730E+02  0.68828004097E+02  0.47000000000E+01 0. -1.
        -13    1    4    4    0    0  0.48360712630E+02  0.42854020231E+02  0.42742333917E+02  0.77473432122E+02  0.00000000000E+00 0.  1.
         14    1    4    4    0    0  0.21523685506E+02 -0.27872930598E+02  0.12465366452E+02  0.37357123265E+02  0.00000000000E+00 0. -1.
         -5    1    5    5    0  502  0.30253445766E+02 -0.44148639390E+02  0.28896811531E+03  0.29392011671E+03  0.47000000000E+01 0.  1.
         11    1    6    6    0    0 -0.31732606081E+02 -0.33831969091E+02  0.81831547981E+02  0.94063609681E+02  0.00000000000E+00 0. -1.
        -12    1    6    6    0    0 -0.36311194770E+02  0.27389762196E+02  0.35908273495E+02  0.57949167761E+02  0.00000000000E+00 0.  1.
</event>
<event>
12    1  0.1565987E-001  0.2009886E+03  0.7818608E-02  0.1148988E+00
         21   -1    0    0  503  502  0.00000000000E+00  0.00000000000E+00  0.21146347573E+03  0.21146347573E+03  0.00000000000E+00 0.  1.
         21   -1    0    0  501  503 -0.00000000000E+00 -0.00000000000E+00 -0.23508771175E+03  0.23508771175E+03  0.00000000000E+00 0. -1.
          6    2    1    2  501    0  0.85233703987E+02  0.61253773196E+02 -0.10885850549E+03  0.22823654327E+03  0.17095302407E+03 0.  0.
         24    2    3    3    0    0 -0.15836299788E+02  0.21776803796E+02 -0.11334910601E+02  0.82269018330E+02  0.76907045218E+02 0.  0.
         -6    2    1    2    0  502 -0.85233703987E+02 -0.61253773196E+02  0.85234269472E+02  0.21831464422E+03  0.17140476703E+03 0.  0.
        -24    2    5    5    0    0 -0.10746072429E+03 -0.86275696399E+02  0.58326793880E+02  0.17511465214E+03  0.90949565447E+02 0.  0.
          5    1    3    3  501    0  0.10107000378E+03  0.39476969400E+02 -0.97523594888E+02  0.14596752494E+03  0.47000000000E+01 0. -1.
        -11    1    4    4    0    0  0.25585429848E+02  0.29284801120E+02 -0.89669902254E+00  0.38897530337E+02  0.00000000000E+00 0.  1.
         12    1    4    4    0    0 -0.41421729635E+02 -0.75079973246E+01 -0.10438211579E+02  0.43371487994E+02  0.00000000000E+00 0. -1.
         -5    1    5    5    0  502  0.22227020307E+02  0.25021923203E+02  0.26907475592E+02  0.43199992075E+02  0.47000000000E+01 0.  1.
         13    1    6    6    0    0 -0.72773093202E+02 -0.93388440574E+02  0.70351208214E+02  0.13771933933E+03  0.00000000000E+00 0. -1.
        -14    1    6    6    0    0 -0.34687631092E+02  0.71127441748E+01 -0.12024414334E+02  0.37395312815E+02  0.00000000000E+00 0.  1.
</event>
<event>
12    1  0.1565987E-001  0.1869910E+03  0.7818608E-02  0.1161851E+00
         21   -1    0    0  501  502  0.00000000000E+00  0.00000000000E+00  0.13078088709E+03  0.13078088709E+03  0.00000000000E+00 0. -1.
         21   -1    0    0  502  503 -0.00000000000E+00 -0.00000000000E+00 -0.27394260299E+03  0.27394260299E+03  0.00000000000E+00 0. -1.
         -6    2    1    2    0  503 -0.61924855004E+02  0.26028128194E+02 -0.11182560129E+03  0.21787750438E+03  0.17450928539E+03 0.  0.
        -24    2    3    3    0    0 -0.25727441391E+02  0.79431102838E+02 -0.98607057335E+02  0.15185515697E+03  0.79783680062E+02 0.  0.
          6    2    1    2  501    0  0.61924855004E+02 -0.26028128194E+02 -0.31336114604E+02  0.18684598570E+03  0.17151477829E+03 0.  0.
         24    2    5    5    0    0  0.33456007854E+01 -0.17718163012E+00 -0.74993102876E+02  0.10920692924E+03  0.79315594166E+02 0.  0.
          5    1    5    5  501    0  0.58579254218E+02 -0.25850946564E+02  0.43656988272E+02  0.77639056460E+02  0.47000000000E+01 0. -1.
        -13    1    6    6    0    0  0.37267761589E+02  0.17225808027E+02 -0.42789120036E+02  0.59300280855E+02  0.00000000000E+00 0.  1.
         14    1    6    6    0    0 -0.33922160804E+02 -0.17402989657E+02 -0.32203982840E+02  0.49906648389E+02  0.00000000000E+00 0. -1.
         -5    1    3    3    0  503 -0.36197413613E+02 -0.53402974644E+02 -0.13218543957E+02  0.66022347409E+02  0.47000000000E+01 0.  1.
         11    1    4    4    0    0 -0.43833259405E+02  0.85244492219E+02 -0.76095037698E+02  0.12238640793E+03  0.00000000000E+00 0. -1.
        -12    1    4    4    0    0  0.18105818014E+02 -0.58133893804E+01 -0.22512019637E+02  0.29468749043E+02  0.00000000000E+00 0.  1.
</event>
<event>
12    1  0.1565987E-001  0.1817569E+03  0.7818608E-02  0.1166541E+00
         21   -1    0    0  503  502  0.00000000000E+00  0.00000000000E+00  0.26815834868E+03  0.26815834868E+03  0.00000000000E+00 0.  1.
         21   -1    0    0  501  503 -0.00000000000E+00 -0.00000000000E+00 -0.14627584338E+03  0.14627584338E+03  0.00000000000E+00 0.  1.
          6    2    1    2  501    0  0.51050940324E+02 -0.16460299872E+02  0.14512124423E+03  0.23119772208E+03  0.17179950870E+03 0.  0.
         24    2    3    3    0    0  0.57079129022E+02 -0.15303760393E+02  0.17482364953E+03  0.20050571134E+03  0.78402804733E+02 0.  0.
         -6    2    1    2    0  502 -0.51050940324E+02  0.16460299872E+02 -0.23238738933E+02  0.18323646998E+03  0.17366181205E+03 0.  0.
        -24    2    5    5    0    0 -0.75831969879E+02 -0.37727495878E+02  0.82231344228E+01  0.11569125469E+03  0.78377259904E+02 0.  0.
          5    1    3    3  501    0 -0.60281886979E+01 -0.11565394791E+01 -0.29702405307E+02  0.30692010745E+02  0.47000000000E+01 0. -1.
        -11    1    4    4    0    0  0.12832343981E+02  0.15491982280E+00  0.14363591901E+03  0.14420807981E+03  0.00000000000E+00 0.  1.
         12    1    4    4    0    0  0.44246785041E+02 -0.15458680216E+02  0.31187730526E+02  0.56297631529E+02  0.00000000000E+00 0. -1.
         -5    1    5    5    0  502  0.24781029555E+02  0.54187795750E+02 -0.31461873356E+02  0.67545215294E+02  0.47000000000E+01 0.  1.
         11    1    6    6    0    0 -0.26130503127E+02 -0.55805560143E+02  0.11574751630E+02  0.62697995277E+02  0.00000000000E+00 0. -1.
        -12    1    6    6    0    0 -0.49701466753E+02  0.18078064264E+02 -0.33516172069E+01  0.52993259409E+02  0.00000000000E+00 0.  1.
</event>
<event>
12    1  0.1565987E-001  0.1758659E+03  0.7818608E-02  0.1171944E+00
         21   -1    0    0  503  502  0.00000000000E+00  0.00000000000E+00  0.17458067736E+03  0.17458067736E+03  0.00000000000E+00 0.  1.
         21   -1    0    0  501  503 -0.00000000000E+00 -0.00000000000E+00 -0.18692634462E+03  0.18692634462E+03  0.00000000000E+00 0.  1.
          6    2    1    2  501    0  0.19027978472E+02  0.27424246026E+02 -0.48157008490E+02  0.18234006281E+03  0.17266918603E+03 0.  0.
         24    2    3    3    0    0 -0.84996534966E+01  0.72317217992E+02 -0.65191132160E+02  0.12679367838E+03  0.80775794871E+02 0.  0.
         -6    2    1    2    0  502 -0.19027978472E+02 -0.27424246026E+02  0.35811341237E+02  0.17916695917E+03  0.17234904660E+03 0.  0.
        -24    2    5    5    0    0 -0.55099244870E+02 -0.67338638566E+02  0.41628995530E+02  0.12485093858E+03  0.79273984176E+02 0.  0.
          5    1    3    3  501    0  0.27527631968E+02 -0.44892971966E+02  0.17034123669E+02  0.55546384427E+02  0.47000000000E+01 0. -1.
        -13    1    4    4    0    0  0.32827957467E+02  0.47004903989E+02 -0.20554870562E+02  0.60906801708E+02  0.00000000000E+00 0.  1.
         14    1    4    4    0    0 -0.41327610963E+02  0.25312314003E+02 -0.44636261598E+02  0.65886876672E+02  0.00000000000E+00 0. -1.
         -5    1    5    5    0  502  0.36071266398E+02  0.39914392540E+02 -0.58176542933E+01  0.54316020591E+02  0.47000000000E+01 0.  1.
         11    1    6    6    0    0 -0.46458985837E+02  0.42142283467E+00  0.34307976527E+01  0.46587394591E+02  0.00000000000E+00 0. -1.
        -12    1    6    6    0    0 -0.86402590327E+01 -0.67760061401E+02  0.38198197877E+02  0.78263543992E+02  0.00000000000E+00 0.  1.
</event>
<event>
12    1  0.1565987E-001  0.1726972E+03  0.7818608E-02  0.1175380E+00
         21   -1    0    0  503  502  0.00000000000E+00  0.00000000000E+00  0.75003128133E+02  0.75003128133E+02  0.00000000000E+00 0.  1.
         21   -1    0    0  501  503 -0.00000000000E+00 -0.00000000000E+00 -0.20912717046E+04  0.20912717046E+04  0.00000000000E+00 0.  1.
          6    2    1    2  501    0  0.55932925156E+01 -0.33697996584E+01 -0.19843675559E+04  0.19918681981E+04  0.17257369839E+03 0.  0.
         24    2    3    3    0    0  0.24894081224E+02 -0.46557646975E+02 -0.17553542434E+04  0.17579731407E+04  0.80085665164E+02 0.  0.
         -6    2    1    2    0  502 -0.55932925156E+01  0.33697996584E+01 -0.31901020536E+02  0.17440663456E+03  0.17133989202E+03 0.  0.
        -24    2    5    5    0    0 -0.52325304756E+02  0.24557865766E+01 -0.66407500999E+02  0.11611852615E+03  0.79558704878E+02 0.  0.
          5    1    3    3  501    0 -0.19300788708E+02  0.43187847316E+02 -0.22901331252E+03  0.23389505748E+03  0.47000000000E+01 0. -1.
        -11    1    4    4    0    0  0.45595384554E+02 -0.11696477257E+02 -0.57527410082E+03  0.57719670629E+03  0.00000000000E+00 0.  1.
         12    1    4    4    0    0 -0.20701303331E+02 -0.34861169718E+02 -0.11800801425E+04  0.11807764344E+04  0.00000000000E+00 0. -1.
         -5    1    5    5    0  502  0.46732012240E+02  0.91401308183E+00  0.34506480464E+02  0.58288108409E+02  0.47000000000E+01 0.  1.
         11    1    6    6    0    0  0.24645827842E+01  0.99444091185E+01 -0.59516103487E+02  0.60391489593E+02  0.00000000000E+00 0. -1.
        -12    1    6    6    0    0 -0.54789887540E+02 -0.74886225419E+01 -0.68913975123E+01  0.55727036561E+02  0.00000000000E+00 0.  1.
</event>
<event>
12    1  0.1565987E-001  0.2978251E+03  0.7818608E-02  0.1086501E+00
         21   -1    0    0  503  502  0.00000000000E+00  0.00000000000E+00  0.38857452363E+03  0.38857452363E+03  0.00000000000E+00 0. -1.
         21   -1    0    0  501  503 -0.00000000000E+00 -0.00000000000E+00 -0.22914367337E+03  0.22914367337E+03  0.00000000000E+00 0. -1.
          6    2    1    2  501    0 -0.20098282040E+03  0.13626959265E+03  0.51811847123E+02  0.30229824596E+03  0.17244206572E+03 0.  0.
         24    2    3    3    0    0 -0.21114584139E+03  0.86983610109E+02  0.63599945029E+02  0.25039984210E+03  0.80662340379E+02 0.  0.
         -6    2    1    2    0  502  0.20098282040E+03 -0.13626959265E+03  0.10761900314E+03  0.31541995104E+03  0.17013053723E+03 0.  0.
        -24    2    5    5    0    0  0.16767557221E+03 -0.11054455035E+03  0.17124606042E+02  0.21550760701E+03  0.76256681139E+02 0.  0.
          5    1    3    3  501    0  0.10163020985E+02  0.49285982543E+02 -0.11788097906E+02  0.51898403858E+02  0.47000000000E+01 0. -1.
        -13    1    4    4    0    0 -0.37762433598E+02  0.14159518858E+02 -0.19505507301E+02  0.44799086828E+02  0.00000000000E+00 0.  1.
         14    1    4    4    0    0 -0.17338340779E+03  0.72824091251E+02  0.83105452331E+02  0.20560075528E+03  0.00000000000E+00 0. -1.
         -5    1    5    5    0  502  0.33307248192E+02 -0.25725042298E+02  0.90494397097E+02  0.99912344029E+02  0.47000000000E+01 0.  1.
         13    1    6    6    0    0  0.14273370407E+03 -0.89607120416E+02  0.42982846916E+02  0.17392490172E+03  0.00000000000E+00 0. -1.
        -14    1    6    6    0    0  0.24941868136E+02 -0.20937429939E+02 -0.25858240874E+02  0.41582705295E+02  0.00000000000E+00 0.  1.
</event>
<event>
12    1  0.1565987E-001  0.1740385E+03  0.7818608E-02  0.1173825E+00
         21   -1    0    0  503  502  0.00000000000E+00  0.00000000000E+00  0.77809567295E+02  0.77809567295E+02  0.00000000000E+00 0.  1.
         21   -1    0    0  501  503 -0.00000000000E+00 -0.00000000000E+00 -0.47959154470E+03  0.47959154470E+03  0.00000000000E+00 0.  1.
          6    2    1    2  501    0  0.22177383595E+02  0.14739971778E+02 -0.32233901281E+03  0.36608832913E+03  0.17149088149E+03 0.  0.
         24    2    3    3    0    0  0.40541833867E+02  0.71240397575E+02 -0.22048330231E+03  0.24807889344E+03  0.78812538567E+02 0.  0.
         -6    2    1    2    0  502 -0.22177383595E+02 -0.14739971778E+02 -0.79442964593E+02  0.19131278286E+03  0.17198922394E+03 0.  0.
        -24    2    5    5    0    0 -0.38409556427E+02 -0.21390171419E+02  0.21119682733E+02  0.89123523999E+02  0.74593083279E+02 0.  0.
          5    1    3    3  501    0 -0.18364450272E+02 -0.56500425797E+02 -0.10185571050E+03  0.11800943569E+03  0.47000000000E+01 0. -1.
        -11    1    4    4    0    0 -0.20438086609E+02  0.40608616644E+02 -0.89626898990E+02  0.10049754302E+03  0.00000000000E+00 0.  1.
         12    1    4    4    0    0  0.60979920476E+02  0.30631780931E+02 -0.13085640332E+03  0.14758135043E+03  0.00000000000E+00 0. -1.
         -5    1    5    5    0  502  0.16232172832E+02  0.66501996404E+01 -0.10056264733E+03  0.10218925887E+03  0.47000000000E+01 0.  1.
         13    1    6    6    0    0 -0.27914157975E+02  0.24654314994E+02 -0.35524773734E+00  0.37244619265E+02  0.00000000000E+00 0. -1.
        -14    1    6    6    0    0 -0.10495398453E+02 -0.46044486413E+02  0.21474930471E+02  0.51878904734E+02  0.00000000000E+00 0.  1.
</event>
<event>
12    1  0.1565987E-001  0.1749362E+03  0.7818608E-02  0.1173456E+00
         21   -1    0    0  503  502  0.00000000000E+00  0.00000000000E+00  0.10119831014E+04  0.10119831014E+04  0.00000000000E+00 0.  1.
         21   -1    0    0  501  503 -0.00000000000E+00 -0.00000000000E+00 -0.30797729977E+02  0.30797729977E+02  0.00000000000E+00 0.  1.
          6    2    1    2  501    0  0.10411516308E+02  0.20593912581E+02  0.39277364578E+03  0.42891517566E+03  0.17077640994E+03 0.  0.
         24    2    3    3    0    0  0.17626325432E+02  0.40610189425E+02  0.39661908657E+03  0.40678867065E+03  0.78806395042E+02 0.  0.
         -6    2    1    2    0  502 -0.10411516308E+02 -0.20593912581E+02  0.58841172560E+03  0.61386565567E+03  0.17340754158E+03 0.  0.
        -24    2    5    5    0    0  0.24141766816E+02  0.46894080226E+02  0.32877615907E+03  0.34334527574E+03  0.83727748897E+02 0.  0.
          5    1    3    3  501    0 -0.72148091241E+01 -0.20016276844E+02 -0.38454407955E+01  0.22126505018E+02  0.47000000000E+01 0. -1.
        -11    1    4    4    0    0  0.48225903479E+02  0.30318897749E+02  0.22077815457E+03  0.22800869910E+03  0.00000000000E+00 0.  1.
         12    1    4    4    0    0 -0.30599578046E+02  0.10291291676E+02  0.17584093200E+03  0.17877997155E+03  0.00000000000E+00 0. -1.
         -5    1    5    5    0  502 -0.34553283124E+02 -0.67487992807E+02  0.25963556653E+03  0.27052037992E+03  0.47000000000E+01 0.  1.
         11    1    6    6    0    0 -0.28684072754E+02  0.31007396382E+02  0.17328719249E+03  0.17836111051E+03  0.00000000000E+00 0. -1.
        -12    1    6    6    0    0  0.52825839570E+02  0.15886683844E+02  0.15548896658E+03  0.16498416523E+03  0.00000000000E+00 0.  1.
</event>
<event>
12    1  0.1565987E-001  0.1882200E+03  0.7818608E-02  0.1163419E+00
         21   -1    0    0  501  502  0.00000000000E+00  0.00000000000E+00  0.11380750232E+04  0.11380750232E+04  0.00000000000E+00 0. -1.
         21   -1    0    0  502  503 -0.00000000000E+00 -0.00000000000E+00 -0.41699841414E+02  0.41699841414E+02  0.00000000000E+00 0.  1.
         -6    2    1    2    0  503  0.31038961877E+02 -0.65930584823E+02  0.20619035305E+03  0.26990905505E+03  0.15819664073E+03 0.  0.
        -24    2    3    3    0    0  0.15627214011E+02  0.18577460362E+02  0.13638357053E+03  0.15912002780E+03  0.78290312846E+02 0.  0.
          6    2    1    2  501    0 -0.31038961877E+02  0.65930584823E+02  0.89018482873E+03  0.90986580956E+03  0.17354106988E+03 0.  0.
         24    2    5    5    0    0  0.88854673277E+01 -0.23218493132E+02  0.53785194395E+03  0.54421287323E+03  0.79151044388E+02 0.  0.
          5    1    5    5  501    0 -0.39924429204E+02  0.89149077955E+02  0.35233288478E+03  0.36565293633E+03  0.47000000000E+01 0. -1.
        -11    1    6    6    0    0  0.43627627391E+02 -0.57333240757E+01  0.27458704352E+03  0.27809042656E+03  0.00000000000E+00 0.  1.
         12    1    6    6    0    0 -0.34742160064E+02 -0.17485169056E+02  0.26326490043E+03  0.26612244667E+03  0.00000000000E+00 0. -1.
         -5    1    3    3    0  503  0.15411747866E+02 -0.84508045185E+02  0.69806782527E+02  0.11078902725E+03  0.47000000000E+01 0.  1.
         11    1    4    4    0    0 -0.53749043412E+01  0.15962923828E+02  0.13691691930E+03  0.13794907512E+03  0.00000000000E+00 0. -1.
        -12    1    4    4    0    0  0.21002118352E+02  0.26145365337E+01 -0.53334877599E+00  0.21170952682E+02  0.00000000000E+00 0.  1.
</event>
<event>
12    1  0.1565987E-001  0.2258944E+03  0.7818608E-02  0.1129707E+00
         21   -1    0    0  503  502  0.00000000000E+00  0.00000000000E+00  0.64141515123E+03  0.64141515123E+03  0.00000000000E+00 0. -1.
         21   -1    0    0  501  503 -0.00000000000E+00 -0.00000000000E+00 -0.16284702909E+03  0.16284702909E+03  0.00000000000E+00 0. -1.
          6    2    1    2  501    0  0.14359043822E+03 -0.17231929186E+02 -0.48586778982E+02  0.23106050978E+03  0.17353135381E+03 0.  0.
         24    2    3    3    0    0  0.50559850666E+02  0.51402170718E+02 -0.40581445479E+02  0.11507988530E+03  0.79987778002E+02 0.  0.
         -6    2    1    2    0  502 -0.14359043822E+03  0.17231929186E+02  0.52715490112E+03  0.57320167054E+03  0.17248974466E+03 0.  0.
        -24    2    5    5    0    0 -0.43059877533E+02 -0.49061577755E+02  0.24851691342E+03  0.26961899501E+03  0.81685707146E+02 0.  0.
          5    1    3    3  501    0  0.93030587550E+02 -0.68634099904E+02 -0.80053335027E+01  0.11598062448E+03  0.47000000000E+01 0. -1.
        -13    1    4    4    0    0  0.30096673862E+02 -0.16260490630E+02 -0.13526307119E+01  0.34235112719E+02  0.00000000000E+00 0.  1.
         14    1    4    4    0    0  0.20463176804E+02  0.67662661348E+02 -0.39228814767E+02  0.80844772581E+02  0.00000000000E+00 0. -1.
         -5    1    5    5    0  502 -0.10053056068E+03  0.66293506941E+02  0.27863798770E+03  0.30358267553E+03  0.47000000000E+01 0.  1.
         13    1    6    6    0    0  0.17812698361E+02 -0.38984083203E+02  0.10280856640E+03  0.11138515292E+03  0.00000000000E+00 0. -1.
        -14    1    6    6    0    0 -0.60872575893E+02 -0.10077494552E+02  0.14570834702E+03  0.15823384209E+03  0.00000000000E+00 0.  1.
</event>
<event>
12    1  0.1565987E-001  0.1816181E+03  0.7818608E-02  0.1166329E+00
         21   -1    0    0  503  502  0.00000000000E+00  0.00000000000E+00  0.66115027174E+03  0.66115027174E+03  0.00000000000E+00 0.  1.
         21   -1    0    0  501  503 -0.00000000000E+00 -0.00000000000E+00 -0.54692105042E+02  0.54692105042E+02  0.00000000000E+00 0.  1.
          6    2    1    2  501    0 -0.21050942222E+02 -0.54115964091E+02  0.41006254961E+03  0.44834218080E+03  0.17171993699E+03 0.  0.
         24    2    3    3    0    0 -0.60504248639E+02  0.13630622593E+02  0.24236075840E+03  0.26316079900E+03  0.81659726541E+02 0.  0.
         -6    2    1    2    0  502  0.21050942222E+02  0.54115964091E+02  0.19639561709E+03  0.26750019598E+03  0.17208555052E+03 0.  0.
        -24    2    5    5    0    0  0.65107210133E+02  0.21741720267E+02  0.18280794538E+03  0.21096913170E+03  0.79859742225E+02 0.  0.
          5    1    3    3  501    0  0.39453306417E+02 -0.67746586685E+02  0.16770179121E+03  0.18518138181E+03  0.47000000000E+01 0. -1.
        -11    1    4    4    0    0 -0.52570370517E+02  0.28681166645E+02  0.23824533990E+03  0.24565645760E+03  0.00000000000E+00 0.  1.
         12    1    4    4    0    0 -0.79338781221E+01 -0.15050544052E+02  0.41154185048E+01  0.17504341398E+02  0.00000000000E+00 0. -1.
         -5    1    5    5    0  502 -0.44056267911E+02  0.32374243824E+02  0.13587671716E+02  0.56531064275E+02  0.47000000000E+01 0.  1.
         11    1    6    6    0    0 -0.67741459680E+01 -0.19851752434E+02  0.51436708607E+02  0.55549222502E+02  0.00000000000E+00 0. -1.
        -12    1    6    6    0    0  0.71881356101E+02  0.41593472701E+02  0.13137123677E+03  0.15541990920E+03  0.00000000000E+00 0.  1.
</event>
<event>
12    1  0.1565987E-001  0.2031391E+03  0.7818608E-02  0.1147506E+00
         21   -1    0    0  501  502  0.00000000000E+00  0.00000000000E+00  0.99059460962E+02  0.99059460962E+02  0.00000000000E+00 0.  1.
         21   -1    0    0  502  503 -0.00000000000E+00 -0.00000000000E+00 -0.76390804118E+03  0.76390804118E+03  0.00000000000E+00 0.  1.
         -6    2    1    2    0  503  0.56767833123E+02  0.96652675850E+02 -0.62413963109E+03  0.65578950781E+03  0.16716839661E+03 0.  0.
        -24    2    3    3    0    0  0.98885292186E+02  0.94578016948E+02 -0.48913921222E+03  0.51427842109E+03  0.80633883523E+02 0.  0.
          6    2    1    2  501    0 -0.56767833123E+02 -0.96652675850E+02 -0.40708949131E+02  0.20717799434E+03  0.16941421479E+03 0.  0.
         24    2    5    5    0    0  0.12153697242E+02 -0.36703518136E+01 -0.36196129607E+02  0.91254116422E+02  0.82800785784E+02 0.  0.
          5    1    5    5  501    0 -0.68921530364E+02 -0.92982324036E+02 -0.45128195242E+01  0.11592387792E+03  0.47000000000E+01 0. -1.
        -13    1    6    6    0    0 -0.23870758944E+02 -0.74168090593E+01  0.14539242693E+02  0.28917326420E+02  0.00000000000E+00 0.  1.
         14    1    6    6    0    0  0.36024456186E+02  0.37464572457E+01 -0.50735372300E+02  0.62336790002E+02  0.00000000000E+00 0. -1.
         -5    1    3    3    0  503 -0.42117459063E+02  0.20746589019E+01 -0.13500041887E+03  0.14151108671E+03  0.47000000000E+01 0.  1.
         13    1    4    4    0    0  0.81767774118E+01 -0.14680022663E+02 -0.49564549320E+02  0.52335526209E+02  0.00000000000E+00 0. -1.
        -14    1    4    4    0    0  0.90708514774E+02  0.10925803961E+03 -0.43957466290E+03  0.46194289488E+03  0.00000000000E+00 0.  1.
</event>
<event>
12    1  0.1565987E-001  0.2185279E+03  0.7818608E-02  0.1135270E+00
         21   -1    0    0  501  502  0.00000000000E+00  0.00000000000E+00  0.49573760263E+03  0.49573760263E+03  0.00000000000E+00 0.  1.
         21   -1    0    0  502  503 -0.00000000000E+00 -0.00000000000E+00 -0.98006880724E+02  0.98006880724E+02  0.00000000000E+00 0.  1.
         -6    2    1    2    0  503 -0.18510660060E+01  0.13136572324E+03  0.24540469418E+03  0.32859993467E+03  0.17462552349E+03 0.  0.
        -24    2    3    3    0    0  0.26894903842E+02  0.12589547439E+03  0.25467610967E+03  0.29754669732E+03  0.84268083672E+02 0.  0.
          6    2    1    2  501    0  0.18510660060E+01 -0.13136572324E+03  0.15232602772E+03  0.26514454868E+03  0.17273689035E+03 0.  0.
         24    2    5    5    0    0 -0.29422436145E+01 -0.15343527904E+03  0.16512854719E+03  0.23876206178E+03  0.78669202326E+02 0.  0.
          5    1    5    5  501    0  0.47933096204E+01  0.22069555802E+02 -0.12802519472E+02  0.26382486904E+02  0.47000000000E+01 0. -1.
        -11    1    6    6    0    0 -0.26992943558E+02 -0.31663623856E+02  0.73577698666E+02  0.84527402768E+02  0.00000000000E+00 0.  1.
         12    1    6    6    0    0  0.24050699944E+02 -0.12177165518E+03  0.91550848528E+02  0.15423465901E+03  0.00000000000E+00 0. -1.
         -5    1    3    3    0  503 -0.28745969848E+02  0.54702488423E+01 -0.92714154842E+01  0.31053237351E+02  0.47000000000E+01 0.  1.
         11    1    4    4    0    0 -0.22116314582E+02  0.18427566329E+02  0.20732422216E+02  0.35475905943E+02  0.00000000000E+00 0. -1.
        -12    1    4    4    0    0  0.49011218425E+02  0.10746790807E+03  0.23394368745E+03  0.26207079138E+03  0.00000000000E+00 0.  1.
</event>
<event>
12    1  0.1565987E-001  0.1779668E+03  0.7818608E-02  0.1170629E+00
         21   -1    0    0  501  502  0.00000000000E+00  0.00000000000E+00  0.88881679773E+02  0.88881679773E+02  0.00000000000E+00 0. -1.
         21   -1    0    0  502  503 -0.00000000000E+00 -0.00000000000E+00 -0.38016050244E+03  0.38016050244E+03  0.00000000000E+00 0. -1.
         -6    2    1    2    0  503 -0.25495151999E+02  0.15757848095E+02 -0.21345517585E+03  0.27791240730E+03  0.17542485993E+03 0.  0.
        -24    2    3    3    0    0 -0.46729898116E+01 -0.11918052316E+02 -0.21874163642E+02  0.83169263287E+02  0.79213449085E+02 0.  0.
          6    2    1    2  501    0  0.25495151999E+02 -0.15757848095E+02 -0.77823646815E+02  0.19112977491E+03  0.17197603990E+03 0.  0.
         24    2    5    5    0    0  0.58904457530E+01 -0.31628443556E+02  0.21663653254E+02  0.88387217114E+02  0.79422480972E+02 0.  0.
          5    1    5    5  501    0  0.19604706246E+02  0.15870595461E+02 -0.99487300069E+02  0.10274255780E+03  0.47000000000E+01 0. -1.
        -11    1    6    6    0    0 -0.75149486597E+01  0.14376105262E+02  0.35060859866E+02  0.38631732428E+02  0.00000000000E+00 0.  1.
         12    1    6    6    0    0  0.13405394413E+02 -0.46004548818E+02 -0.13397206612E+02  0.49755484686E+02  0.00000000000E+00 0. -1.
         -5    1    3    3    0  503 -0.20822162187E+02  0.27675900412E+02 -0.19158101221E+03  0.19474314402E+03  0.47000000000E+01 0.  1.
         11    1    4    4    0    0 -0.22519707214E+02  0.24183265738E+02 -0.26867614768E+02  0.42589156813E+02  0.00000000000E+00 0. -1.
        -12    1    4    4    0    0  0.17846717402E+02 -0.36101318054E+02  0.49934511258E+01  0.40580106474E+02  0.00000000000E+00 0.  1.
</event>
<event>
12    1  0.1565987E-001  0.2346522E+03  0.7818608E-02  0.1124111E+00
         21   -1    0    0  501  502  0.00000000000E+00  0.00000000000E+00  0.99473920561E+02  0.99473920561E+02  0.00000000000E+00 0.  1.
         21   -1    0    0  502  503 -0.00000000000E+00 -0.00000000000E+00 -0.54521934889E+03  0.54521934889E+03  0.00000000000E+00 0.  1.
         -6    2    1    2    0  503  0.13435631422E+03 -0.76741039494E+02 -0.20943787414E+03  0.31452481305E+03  0.17641096504E+03 0.  0.
        -24    2    3    3    0    0  0.67342322745E+02 -0.31282640526E+02 -0.21118756048E+03  0.23339225181E+03  0.66016403071E+02 0.  0.
          6    2    1    2  501    0 -0.13435631422E+03  0.76741039494E+02 -0.23630755419E+03  0.33016845640E+03  0.17096532724E+03 0.  0.
         24    2    5    5    0    0 -0.68590889392E+02 -0.17077637142E+02 -0.16142122357E+03  0.19321193884E+03  0.79231850242E+02 0.  0.
          5    1    5    5  501    0 -0.65765424833E+02  0.93818676636E+02 -0.74886330627E+02  0.13695651757E+03  0.47000000000E+01 0. -1.
        -13    1    6    6    0    0 -0.62369640205E+02  0.20274513248E+02 -0.80223982918E+02  0.10361908773E+03  0.00000000000E+00 0.  1.
         14    1    6    6    0    0 -0.62212491870E+01 -0.37352150390E+02 -0.81197240648E+02  0.89592851105E+02  0.00000000000E+00 0. -1.
         -5    1    3    3    0  503  0.67013991479E+02 -0.45458398968E+02  0.17496863410E+01  0.81132561238E+02  0.47000000000E+01 0.  1.
         11    1    4    4    0    0 -0.35280362707E+01  0.96375804201E+01 -0.65452559261E+02  0.66252301923E+02  0.00000000000E+00 0. -1.
        -12    1    4    4    0    0  0.70870359016E+02 -0.40920220946E+02 -0.14573500122E+03  0.16713994989E+03  0.00000000000E+00 0.  1.
</event>
<event>
12    1  0.1565987E-001  0.2076898E+03  0.7818608E-02  0.1143834E+00
         21   -1    0    0  501  502  0.00000000000E+00  0.00000000000E+00  0.31171783323E+03  0.31171783323E+03  0.00000000000E+00 0.  1.
         21   -1    0    0  502  503 -0.00000000000E+00 -0.00000000000E+00 -0.16293784381E+03  0.16293784381E+03  0.00000000000E+00 0.  1.
         -6    2    1    2    0  503  0.61494387326E+02  0.95728200856E+02  0.16943440346E+03  0.26803554076E+03  0.17375150625E+03 0.  0.
        -24    2    3    3    0    0  0.26367309036E+02 -0.19772257253E+02  0.51391036529E+02  0.99125523505E+02  0.78093877045E+02 0.  0.
          6    2    1    2  501    0 -0.61494387326E+02 -0.95728200856E+02 -0.20654414038E+02  0.20662013628E+03  0.17123033547E+03 0.  0.
         24    2    5    5    0    0 -0.73200758082E+02 -0.28607033170E+02 -0.62024574996E+02  0.12677108816E+03  0.77763407584E+02 0.  0.
          5    1    5    5  501    0  0.11706370756E+02 -0.67121167686E+02  0.41370160958E+02  0.79849048119E+02  0.47000000000E+01 0. -1.
        -11    1    6    6    0    0  0.55196251350E+01 -0.22387036142E+02  0.45310746614E+01  0.23498431574E+02  0.00000000000E+00 0.  1.
         12    1    6    6    0    0 -0.78720383217E+02 -0.62199970278E+01 -0.66555649657E+02  0.10327265659E+03  0.00000000000E+00 0. -1.
         -5    1    3    3    0  503  0.35127078291E+02  0.11550045811E+03  0.11804336693E+03  0.16891001725E+03  0.47000000000E+01 0.  1.
         13    1    4    4    0    0  0.43286375397E+02 -0.16498770711E+02  0.63109230014E+02  0.78285979862E+02  0.00000000000E+00 0. -1.
        -14    1    4    4    0    0 -0.16919066361E+02 -0.32734865421E+01 -0.11718193486E+02  0.20839543643E+02  0.00000000000E+00 0.  1.
</event>
<event>
12    1  0.1565987E-001  0.2423072E+03  0.7818608E-02  0.1118466E+00
         21   -1    0    0  503  502  0.00000000000E+00  0.00000000000E+00  0.64220783315E+03  0.64220783315E+03  0.00000000000E+00 0.  1.
         21   -1    0    0  501  503 -0.00000000000E+00 -0.00000000000E+00 -0.10518917110E+03  0.10518917110E+03  0.00000000000E+00 0. -1.
          6    2    1    2  501    0  0.96156922040E+02 -0.14125262130E+03  0.13167321146E+03  0.27577278064E+03  0.17179736682E+03 0.  0.
         24    2    3    3    0    0 -0.45866586710E+01 -0.10636339728E+03  0.99075980944E+02  0.16418785135E+03  0.76206238673E+02 0.  0.
         -6    2    1    2    0  502 -0.96156922040E+02  0.14125262130E+03  0.40534545059E+03  0.47162422362E+03  0.17007650430E+03 0.  0.
        -24    2    5    5    0    0 -0.67198669309E+02  0.16741531123E+03  0.29912643138E+03  0.35836506599E+03  0.80033436650E+02 0.  0.
          5    1    3    3  501    0  0.10074358071E+03 -0.34889224021E+02  0.32597230521E+02  0.11158492929E+03  0.47000000000E+01 0. -1.
        -11    1    4    4    0    0 -0.37051266937E+02 -0.76021395332E+02  0.51167800579E+02  0.98844285349E+02  0.00000000000E+00 0.  1.
         12    1    4    4    0    0  0.32464608266E+02 -0.30342001944E+02  0.47908180364E+02  0.65343566001E+02  0.00000000000E+00 0. -1.
         -5    1    5    5    0  502 -0.28958252731E+02 -0.26162689931E+02  0.10621901921E+03  0.11325915763E+03  0.47000000000E+01 0.  1.
         11    1    6    6    0    0 -0.84883260255E+02  0.12393115518E+03  0.22089967776E+03  0.26713436082E+03  0.00000000000E+00 0. -1.
        -12    1    6    6    0    0  0.17684590947E+02  0.43484156050E+02  0.78226753622E+02  0.91230705174E+02  0.00000000000E+00 0.  1.
</event>
<event>
12    1  0.1565987E-001  0.2326545E+03  0.7818608E-02  0.1125001E+00
         21   -1    0    0  501  502  0.00000000000E+00  0.00000000000E+00  0.26762122957E+03  0.26762122957E+03  0.00000000000E+00 0. -1.
         21   -1    0    0  502  503 -0.00000000000E+00 -0.00000000000E+00 -0.27780352957E+03  0.27780352957E+03  0.00000000000E+00 0. -1.
         -6    2    1    2    0  503  0.88696767341E+02  0.13506802585E+03  0.13814325388E+03  0.26951067453E+03  0.16565614070E+03 0.  0.
        -24    2    3    3    0    0  0.68790772055E+02  0.13893647871E+03  0.52891277603E+02  0.18175417600E+03  0.78750097200E+02 0.  0.
          6    2    1    2  501    0 -0.88696767341E+02 -0.13506802585E+03 -0.14832555388E+03  0.27591408461E+03  0.16738465882E+03 0.  0.
         24    2    5    5    0    0 -0.11123294273E+03 -0.11068306452E+03 -0.70902321591E+02  0.19154019979E+03  0.83886832161E+02 0.  0.
          5    1    5    5  501    0  0.22536175390E+02 -0.24384961329E+02 -0.77423232293E+02  0.84373884815E+02  0.47000000000E+01 0. -1.
        -13    1    6    6    0    0 -0.17532751924E+02  0.90460079185E+01  0.67120752862E+01  0.20839376285E+02  0.00000000000E+00 0.  1.
         14    1    6    6    0    0 -0.93700190806E+02 -0.11972907244E+03 -0.77614396878E+02  0.17070082351E+03  0.00000000000E+00 0. -1.
         -5    1    3    3    0  503  0.19905995286E+02 -0.38684528653E+01  0.85251976280E+02  0.87756498537E+02  0.47000000000E+01 0.  1.
         13    1    4    4    0    0  0.24060123120E+02  0.11112799915E+03  0.60073119203E+02  0.12859666159E+03  0.00000000000E+00 0. -1.
        -14    1    4    4    0    0  0.44730648935E+02  0.27808479557E+02 -0.71818415996E+01  0.53157514409E+02  0.00000000000E+00 0.  1.
</event>
<event>
12    1  0.1565987E-001  0.2699546E+03  0.7818608E-02  0.1101403E+00
         21   -1    0    0  503  502  0.00000000000E+00  0.00000000000E+00  0.49312327001E+03  0.49312327001E+03  0.00000000000E+00 0. -1.
         21   -1    0    0  501  503 -0.00000000000E+00 -0.00000000000E+00 -0.16998259807E+03  0.16998259807E+03  0.00000000000E+00 0.  1.
          6    2    1    2  501    0 -0.19505957603E+03  0.70446687032E+02  0.40930895448E+02  0.27303993959E+03  0.17281347312E+03 0.  0.
         24    2    3    3    0    0 -0.21225705399E+03  0.89144244480E+02  0.44756947114E+02  0.24692326725E+03  0.77253882100E+02 0.  0.
         -6    2    1    2    0  502  0.19505957603E+03 -0.70446687032E+02  0.28220977650E+03  0.39006592850E+03  0.17175009959E+03 0.  0.
        -24    2    5    5    0    0  0.89797176275E+02 -0.93822584292E+02  0.21394183025E+03  0.26235841948E+03  0.78705929574E+02 0.  0.
          5    1    3    3  501    0  0.17197477962E+02 -0.18697557447E+02 -0.38260516652E+01  0.26116672340E+02  0.47000000000E+01 0. -1.
        -13    1    4    4    0    0 -0.18156121872E+02  0.36988535806E+02  0.14452391898E+02  0.43665411645E+02  0.00000000000E+00 0.  1.
         14    1    4    4    0    0 -0.19410093212E+03  0.52155708673E+02  0.30304555216E+02  0.20325785560E+03  0.00000000000E+00 0. -1.
         -5    1    5    5    0  502  0.10526239976E+03  0.23375897259E+02  0.68267946251E+02  0.12770750902E+03  0.47000000000E+01 0.  1.
         11    1    6    6    0    0  0.78918787760E+02 -0.33396381250E+02  0.91361688969E+02  0.12526153262E+03  0.00000000000E+00 0. -1.
        -12    1    6    6    0    0  0.10878388515E+02 -0.60426203041E+02  0.12258014128E+03  0.13709688686E+03  0.00000000000E+00 0.  1.
</event>
<event>
12    1  0.1565987E-001  0.2384456E+03  0.7818608E-02  0.1120960E+00
         21   -1    0    0  503  502  0.00000000000E+00  0.00000000000E+00  0.46841922958E+03  0.46841922958E+03  0.00000000000E+00 0.  1.
         21   -1    0    0  501  503 -0.00000000000E+00 -0.00000000000E+00 -0.18791395407E+03  0.18791395407E+03  0.00000000000E+00 0.  1.
          6    2    1    2  501    0 -0.16383588585E+03  0.13335113756E+02 -0.55728361617E+02  0.24413254721E+03  0.17168292742E+03 0.  0.
         24    2    3    3    0    0 -0.18217619799E+03  0.11475412653E+02 -0.78329468697E+02  0.21459061805E+03  0.81202065730E+02 0.  0.
         -6    2    1    2    0  502  0.16383588585E+03 -0.13335113756E+02  0.33623363713E+03  0.41220063643E+03  0.17273182448E+03 0.  0.
        -24    2    5    5    0    0  0.13990120307E+03  0.54764242839E+01  0.34418500972E+03  0.38038778794E+03  0.81419963463E+02 0.  0.
          5    1    3    3  501    0  0.18340312139E+02  0.18597011026E+01  0.22601107079E+02  0.29541929165E+02  0.47000000000E+01 0. -1.
        -11    1    4    4    0    0 -0.18069281945E+00  0.13576452254E+02 -0.18608683141E+02  0.23035533290E+02  0.00000000000E+00 0.  1.
         12    1    4    4    0    0 -0.18199550517E+03 -0.21010396015E+01 -0.59720785556E+02  0.19155508476E+03  0.00000000000E+00 0. -1.
         -5    1    5    5    0  502  0.23934682781E+02 -0.18811538040E+02 -0.79513725964E+01  0.31812848495E+02  0.47000000000E+01 0.  1.
         11    1    6    6    0    0 -0.64607260702E+01  0.11838891910E+02  0.49374272658E+02  0.51183192002E+02  0.00000000000E+00 0. -1.
        -12    1    6    6    0    0  0.14636192914E+03 -0.63624676263E+01  0.29481073706E+03  0.32920459594E+03  0.00000000000E+00 0.  1.
</event>
<event>
12    1  0.1565987E-001  0.2030949E+03  0.7818608E-02  0.1147450E+00
         21   -1    0    0  503  502  0.00000000000E+00  0.00000000000E+00  0.47673283667E+02  0.47673283667E+02  0.00000000000E+00 0.  1.
         21   -1    0    0  501  503 -0.00000000000E+00 -0.00000000000E+00 -0.97311354907E+03  0.97311354907E+03  0.00000000000E+00 0. -1.
          6    2    1    2  501    0  0.52804148114E+02 -0.91645731138E+02 -0.63883698676E+03  0.67034336371E+03  0.17337909770E+03 0.  0.
         24    2    3    3    0    0  0.18147913767E+02  0.18956391649E+02 -0.32894515508E+03  0.33945226155E+03  0.79587883898E+02 0.  0.
         -6    2    1    2    0  502 -0.52804148114E+02  0.91645731138E+02 -0.28660327864E+03  0.35044346903E+03  0.17170313789E+03 0.  0.
        -24    2    5    5    0    0 -0.23650114220E+02  0.12125516977E+03 -0.26576236081E+03  0.30371970201E+03  0.79711234271E+02 0.  0.
          5    1    3    3  501    0  0.34656234347E+02 -0.11060212279E+03 -0.30989183168E+03  0.33089110216E+03  0.47000000000E+01 0. -1.
        -13    1    4    4    0    0  0.22944565434E+02 -0.28210919685E+01 -0.22709426625E+02  0.32405704752E+02  0.00000000000E+00 0.  1.
         14    1    4    4    0    0 -0.47966516673E+01  0.21777483618E+02 -0.30623572845E+03  0.30704655680E+03  0.00000000000E+00 0. -1.
         -5    1    5    5    0  502 -0.29154033894E+02 -0.29609438630E+02 -0.20840917834E+02  0.46723767019E+02  0.47000000000E+01 0.  1.
         13    1    6    6    0    0 -0.42984709140E+02  0.31582978577E+02 -0.74841065512E+02  0.91904052374E+02  0.00000000000E+00 0. -1.
        -14    1    6    6    0    0  0.19334594920E+02  0.89672191192E+02 -0.19092129530E+03  0.21181564964E+03  0.00000000000E+00 0.  1.
</event>
<event>
12    1  0.1565987E-001  0.1872692E+03  0.7818608E-02  0.1160990E+00
         21   -1    0    0  503  502  0.00000000000E+00  0.00000000000E+00  0.13383510164E+03  0.13383510164E+03  0.00000000000E+00 0.  1.
         21   -1    0    0  501  503 -0.00000000000E+00 -0.00000000000E+00 -0.29341280002E+03  0.29341280002E+03  0.00000000000E+00 0.  1.
          6    2    1    2  501    0  0.61156164711E+02 -0.40158908130E+02 -0.14996357913E+03  0.23991418787E+03  0.17238598577E+03 0.  0.
         24    2    3    3    0    0  0.22578736310E+02  0.43834155145E+02 -0.92551638897E+02  0.13100471380E+03  0.78518766446E+02 0.  0.
         -6    2    1    2    0  502 -0.61156164711E+02  0.40158908130E+02 -0.96141192410E+01  0.18733371380E+03  0.17218790507E+03 0.  0.
        -24    2    5    5    0    0 -0.33384379291E+02 -0.43324978445E+02 -0.19771475115E+02  0.98642715034E+02  0.79673731323E+02 0.  0.
          5    1    3    3  501    0  0.38577428401E+02 -0.83993063275E+02 -0.57411940235E+02  0.10890947407E+03  0.47000000000E+01 0. -1.
        -11    1    4    4    0    0  0.25890071251E+02  0.30475730986E+02 -0.26720160161E+01  0.40077495407E+02  0.00000000000E+00 0.  1.
         12    1    4    4    0    0 -0.33113349412E+01  0.13358424159E+02 -0.89879622881E+02  0.90927218391E+02  0.00000000000E+00 0. -1.
         -5    1    5    5    0  502 -0.27771785419E+02  0.83483886575E+02  0.10157355874E+02  0.88690998762E+02  0.47000000000E+01 0.  1.
         13    1    6    6    0    0  0.14743967802E+02 -0.81092418908E+01 -0.33462471969E+02  0.37455058682E+02  0.00000000000E+00 0. -1.
        -14    1    6    6    0    0 -0.48128347093E+02 -0.35215736555E+02  0.13690996854E+02  0.61187656352E+02  0.00000000000E+00 0.  1.
</event>
<event>
12    1  0.1565987E-001  0.1751571E+03  0.7818608E-02  0.1172702E+00
         21   -1    0    0  501  502  0.00000000000E+00  0.00000000000E+00  0.13493728585E+03  0.13493728585E+03  0.00000000000E+00 0.  1.
         21   -1    0    0  502  503 -0.00000000000E+00 -0.00000000000E+00 -0.38467899888E+03  0.38467899888E+03  0.00000000000E+00 0.  1.
         -6    2    1    2    0  503 -0.32452974274E+02 -0.18106492741E+02 -0.29125722581E+03  0.33960640186E+03  0.17064787130E+03 0.  0.
        -24    2    3    3    0    0 -0.71183785620E+02  0.29918165653E+02 -0.15830142541E+03  0.19295791595E+03  0.78811091021E+02 0.  0.
          6    2    1    2  501    0  0.32452974274E+02  0.18106492741E+02  0.41515512776E+02  0.18000988287E+03  0.17116944678E+03 0.  0.
         24    2    5    5    0    0  0.72388736514E+02  0.54705003341E+02  0.22171953851E+02  0.12229871102E+03  0.78946897440E+02 0.  0.
          5    1    5    5  501    0 -0.39935762241E+02 -0.36598510600E+02  0.19343558925E+02  0.57711171846E+02  0.47000000000E+01 0. -1.
        -13    1    6    6    0    0  0.81864711487E+02  0.24878884812E+02  0.28858168067E+02  0.90297196858E+02  0.00000000000E+00 0.  1.
         14    1    6    6    0    0 -0.94759749724E+01  0.29826118530E+02 -0.66862142162E+01  0.32001514164E+02  0.00000000000E+00 0. -1.
         -5    1    3    3    0  503  0.38730811346E+02 -0.48024658393E+02 -0.13295580039E+03  0.14664848591E+03  0.47000000000E+01 0.  1.
         13    1    4    4    0    0 -0.22725768353E+02  0.45864737699E+01  0.23052763535E+01  0.23298295816E+02  0.00000000000E+00 0. -1.
        -14    1    4    4    0    0 -0.48458017267E+02  0.25331691883E+02 -0.16060670176E+03  0.16965962013E+03  0.00000000000E+00 0.  1.
</event>
<event>
12    1  0.1565987E-001  0.1983685E+03  0.7818608E-02  0.1151181E+00
         21   -1    0    0  503  502  0.00000000000E+00  0.00000000000E+00  0.74301820666E+02  0.74301820666E+02  0.00000000000E+00 0. -1.
         21   -1    0    0  501  503 -0.00000000000E+00 -0.00000000000E+00 -0.58942630714E+03  0.58942630714E+03  0.00000000000E+00 0. -1.
          6    2    1    2  501    0  0.34739837965E+02  0.92115557831E+02 -0.36377447818E+03  0.41421486002E+03  0.17190098006E+03 0.  0.
         24    2    3    3    0    0 -0.30658143260E+02  0.37972197366E+02 -0.27790524199E+03  0.29336778659E+03  0.80321386722E+02 0.  0.
         -6    2    1    2    0  502 -0.34739837965E+02 -0.92115557831E+02 -0.15135000829E+03  0.24951326779E+03  0.17221473066E+03 0.  0.
        -24    2    5    5    0    0 -0.85495650806E+02 -0.63316070562E+02 -0.13221139729E+03  0.18791830505E+03  0.80715579044E+02 0.  0.
          5    1    3    3  501    0  0.65397981224E+02  0.54143360465E+02 -0.85869236193E+02  0.12084707342E+03  0.47000000000E+01 0. -1.
        -13    1    4    4    0    0 -0.21830797012E+02 -0.11774851617E+02 -0.24104438388E+02  0.34586916295E+02  0.00000000000E+00 0.  1.
         14    1    4    4    0    0 -0.88273462476E+01  0.49747048982E+02 -0.25380080360E+03  0.25878087030E+03  0.00000000000E+00 0. -1.
         -5    1    5    5    0  502  0.50755812842E+02 -0.28799487269E+02 -0.19138611004E+02  0.61594962743E+02  0.47000000000E+01 0.  1.
         13    1    6    6    0    0 -0.49590532361E+01 -0.50595021414E+02 -0.38968228599E+02  0.64054439667E+02  0.00000000000E+00 0. -1.
        -14    1    6    6    0    0 -0.80536597570E+02 -0.12721049148E+02 -0.93243168688E+02  0.12386386538E+03  0.00000000000E+00 0.  1.
</event>
<event>
12    1  0.1565987E-001  0.2039771E+03  0.7818608E-02  0.1146678E+00
         21   -1    0    0  503  502  0.00000000000E+00  0.00000000000E+00  0.45577001273E+02  0.45577001273E+02  0.00000000000E+00 0.  1.
         21   -1    0    0  501  503 -0.00000000000E+00 -0.00000000000E+00 -0.10950911834E+04  0.10950911834E+04  0.00000000000E+00 0.  1.
          6    2    1    2  501    0  0.99399974968E+02 -0.51582472664E+02 -0.76214850334E+03  0.78897211768E+03  0.17048623058E+03 0.  0.
         24    2    3    3    0    0  0.49994404170E+02  0.85638989398E+01 -0.62145376625E+03  0.62811318728E+03  0.75819599304E+02 0.  0.
         -6    2    1    2    0  502 -0.99399974968E+02  0.51582472664E+02 -0.28736567877E+03  0.35169606698E+03  0.16902657686E+03 0.  0.
        -24    2    5    5    0    0 -0.15835544168E+02  0.82268822013E+02 -0.16489150959E+03  0.20021445671E+03  0.76666128172E+02 0.  0.
          5    1    3    3  501    0  0.49405570797E+02 -0.60146371604E+02 -0.14069473709E+03  0.16085893040E+03  0.47000000000E+01 0. -1.
        -13    1    4    4    0    0  0.62913370871E+02  0.23696880602E+02 -0.38516339432E+03  0.39098654032E+03  0.00000000000E+00 0.  1.
         14    1    4    4    0    0 -0.12918966700E+02 -0.15132981662E+02 -0.23629037193E+03  0.23712664696E+03  0.00000000000E+00 0. -1.
         -5    1    5    5    0  502 -0.83564430800E+02 -0.30686349349E+02 -0.12247416918E+03  0.15148161026E+03  0.47000000000E+01 0.  1.
         11    1    6    6    0    0  0.12039291519E+02  0.75965189142E+02 -0.81501049156E+02  0.11206281950E+03  0.00000000000E+00 0. -1.
        -12    1    6    6    0    0 -0.27874835687E+02  0.63036328714E+01 -0.83390460431E+02  0.88151637211E+02  0.00000000000E+00 0.  1.
</event>
<event>
12    1  0.1565987E-001  0.2542469E+03  0.7818608E-02  0.1111025E+00
         21   -1    0    0  501  502  0.00000000000E+00  0.00000000000E+00  0.90853769507E+03  0.90853769507E+03  0.00000000000E+00 0. -1.
         21   -1    0    0  502  503 -0.00000000000E+00 -0.00000000000E+00 -0.22530119504E+03  0.22530119504E+03  0.00000000000E+00 0. -1.
         -6    2    1    2    0  503 -0.88991649663E+01 -0.18678777371E+03 -0.12783066952E+03  0.28457369936E+03  0.17225748969E+03 0.  0.
        -24    2    3    3    0    0  0.26421630034E+02 -0.15837221208E+03 -0.15024752392E+03  0.23378385724E+03  0.79377032996E+02 0.  0.
          6    2    1    2  501    0  0.88991649663E+01  0.18678777371E+03  0.81106716955E+03  0.84926519075E+03  0.16867881658E+03 0.  0.
         24    2    5    5    0    0  0.11421691691E+01  0.74300697002E+02  0.56570397822E+03  0.57919353532E+03  0.99610552939E+02 0.  0.
          5    1    5    5  501    0  0.77569957972E+01  0.11248707671E+03  0.24536319132E+03  0.27007165543E+03  0.47000000000E+01 0. -1.
        -13    1    6    6    0    0  0.17072131067E+02  0.66662372235E+02  0.55340618374E+03  0.55766812149E+03  0.00000000000E+00 0.  1.
         14    1    6    6    0    0 -0.15929961898E+02  0.76383247676E+01  0.12297794487E+02  0.21525413830E+02  0.00000000000E+00 0. -1.
         -5    1    3    3    0  503 -0.35320795000E+02 -0.28415561627E+02  0.22416854397E+02  0.50789842125E+02  0.47000000000E+01 0.  1.
         11    1    4    4    0    0  0.20933333474E+01 -0.39962880227E+02 -0.90476413812E+02  0.98931265517E+02  0.00000000000E+00 0. -1.
        -12    1    4    4    0    0  0.24328296686E+02 -0.11840933185E+03 -0.59771110106E+02  0.13485259172E+03  0.00000000000E+00 0.  1.
</event>
<event>
12    1  0.1565987E-001  0.1764893E+03  0.7818608E-02  0.1172053E+00
         21   -1    0    0  503  502  0.00000000000E+00  0.00000000000E+00  0.99870295532E+03  0.99870295532E+03  0.00000000000E+00 0. -1.
         21   -1    0    0  501  503 -0.00000000000E+00 -0.00000000000E+00 -0.33125433632E+02  0.33125433632E+02  0.00000000000E+00 0. -1.
          6    2    1    2  501    0  0.21040824052E+00  0.20934075623E+02  0.33684418026E+03  0.37879386620E+03  0.17199567291E+03 0.  0.
         24    2    3    3    0    0  0.16950922956E+02 -0.44710903638E+02  0.26079477352E+03  0.27683745198E+03  0.79615715965E+02 0.  0.
         -6    2    1    2    0  502 -0.21040824052E+00 -0.20934075623E+02  0.62873334143E+03  0.65303452276E+03  0.17524324093E+03 0.  0.
        -24    2    5    5    0    0 -0.64613654071E+02 -0.39043502629E+02  0.39732296020E+03  0.41210178534E+03  0.79139291025E+02 0.  0.
          5    1    3    3  501    0 -0.16740514715E+02  0.65644979262E+02  0.76049406731E+02  0.10195641421E+03  0.47000000000E+01 0. -1.
        -11    1    4    4    0    0  0.43033598326E+02 -0.14705275672E+02  0.19263211080E+03  0.19792742566E+03  0.00000000000E+00 0.  1.
         12    1    4    4    0    0 -0.26082675371E+02 -0.30005627967E+02  0.68162662723E+02  0.78910026319E+02  0.00000000000E+00 0. -1.
         -5    1    5    5    0  502  0.64403245831E+02  0.18109427006E+02  0.23141038123E+03  0.24093273742E+03  0.47000000000E+01 0.  1.
         13    1    6    6    0    0 -0.24529544632E+02  0.20987432861E+02  0.72620967215E+02  0.79473113549E+02  0.00000000000E+00 0. -1.
        -14    1    6    6    0    0 -0.40084109439E+02 -0.60030935490E+02  0.32470199299E+03  0.33262867179E+03  0.00000000000E+00 0.  1.
</event>
<event>
12    1  0.1565987E-001  0.2044100E+03  0.7818608E-02  0.1146336E+00
         21   -1    0    0  501  502  0.00000000000E+00  0.00000000000E+00  0.39740099742E+03  0.39740099742E+03  0.00000000000E+00 0.  1.
         21   -1    0    0  502  503 -0.00000000000E+00 -0.00000000000E+00 -0.27743807457E+03  0.27743807457E+03  0.00000000000E+00 0. -1.
         -6    2    1    2    0  503  0.10366918602E+03  0.36047715243E+02 -0.20650329996E+03  0.28965907383E+03  0.17091526630E+03 0.  0.
        -24    2    3    3    0    0  0.90611133270E+02  0.38441112392E+02 -0.22988980841E+03  0.26235962569E+03  0.79341997641E+02 0.  0.
          6    2    1    2  501    0 -0.10366918602E+03 -0.36047715243E+02  0.32646622282E+03  0.38517999816E+03  0.17244331949E+03 0.  0.
         24    2    5    5    0    0 -0.11799174512E+03 -0.39474971240E+02  0.33601604752E+03  0.36700939183E+03  0.79427855499E+02 0.  0.
          5    1    5    5  501    0  0.14322559102E+02  0.34272559971E+01 -0.95498246959E+01  0.18170606336E+02  0.47000000000E+01 0. -1.
        -11    1    6    6    0    0 -0.85872226596E+02  0.12233349713E+02  0.19749228455E+03  0.21570094252E+03  0.00000000000E+00 0.  1.
         12    1    6    6    0    0 -0.32119518523E+02 -0.51708320953E+02  0.13852376296E+03  0.15130844931E+03  0.00000000000E+00 0. -1.
         -5    1    3    3    0  503  0.13058052746E+02 -0.23933971482E+01  0.23386508444E+02  0.27299448138E+02  0.47000000000E+01 0.  1.
         13    1    4    4    0    0  0.77685200749E+02  0.48443850470E+02 -0.11834619545E+03  0.14962492787E+03  0.00000000000E+00 0. -1.
        -14    1    4    4    0    0  0.12925932522E+02 -0.10002738079E+02 -0.11154361296E+03  0.11273469782E+03  0.00000000000E+00 0.  1.
</event>
<event>
12    1  0.1565987E-001  0.1883480E+03  0.7818608E-02  0.1160355E+00
         21   -1    0    0  501  502  0.00000000000E+00  0.00000000000E+00  0.12169178588E+03  0.12169178588E+03  0.00000000000E+00 0.  1.
         21   -1    0    0  502  503 -0.00000000000E+00 -0.00000000000E+00 -0.67642942461E+03  0.67642942461E+03  0.00000000000E+00 0.  1.
         -6    2    1    2    0  503 -0.21181016542E+02 -0.75369844633E+02 -0.57889271930E+03  0.60823066116E+03  0.16940633923E+03 0.  0.
        -24    2    3    3    0    0 -0.64331983734E+02 -0.29032942248E+02 -0.22891740894E+03  0.25254270472E+03  0.79956999221E+02 0.  0.
          6    2    1    2  501    0  0.21181016542E+02  0.75369844633E+02  0.24155080572E+02  0.18989054932E+03  0.17130587807E+03 0.  0.
         24    2    5    5    0    0  0.69679134005E+02  0.88797708770E+02  0.23724551310E+02  0.13934700089E+03  0.78195380449E+02 0.  0.
          5    1    5    5  501    0 -0.48498117464E+02 -0.13427864137E+02  0.43052926240E+00  0.50543548434E+02  0.47000000000E+01 0. -1.
        -11    1    6    6    0    0  0.73593652596E+02  0.54945254140E+02 -0.87696151802E+01  0.92260028210E+02  0.00000000000E+00 0.  1.
         12    1    6    6    0    0 -0.39145185903E+01  0.33852454630E+02  0.32494166490E+02  0.47086972679E+02  0.00000000000E+00 0. -1.
         -5    1    3    3    0  503  0.43150967193E+02 -0.46336902385E+02 -0.34997531036E+03  0.35568795644E+03  0.47000000000E+01 0.  1.
         11    1    4    4    0    0 -0.49874449186E+01  0.21729219404E+01  0.60850735452E+01  0.81623719975E+01  0.00000000000E+00 0. -1.
        -12    1    4    4    0    0 -0.59344538816E+02 -0.31205864189E+02 -0.23500248249E+03  0.24438033272E+03  0.00000000000E+00 0.  1.
</event>
<event>
12    1  0.1565987E-001  0.1930342E+03  0.7818608E-02  0.1155836E+00
         21   -1    0    0  501  502  0.00000000000E+00  0.00000000000E+00  0.86404808190E+03  0.86404808190E+03  0.00000000000E+00 0. -1.
         21   -1    0    0  502  503 -0.00000000000E+00 -0.00000000000E+00 -0.53016920637E+02  0.53016920637E+02  0.00000000000E+00 0.  1.
         -6    2    1    2    0  503 -0.70256822145E+02 -0.51241239359E+02  0.20629327600E+03  0.28226573608E+03  0.17191667857E+03 0.  0.
        -24    2    3    3    0    0  0.17044759204E+02 -0.65332856226E+02  0.10078720402E+03  0.14452046031E+03  0.78544236164E+02 0.  0.
          6    2    1    2  501    0  0.70256822145E+02  0.51241239359E+02  0.60473788526E+03  0.63479926646E+03  0.17233836821E+03 0.  0.
         24    2    5    5    0    0  0.58232624805E+02  0.56504723886E+02  0.60972254901E+03  0.61999310343E+03  0.77756280246E+02 0.  0.
          5    1    5    5  501    0  0.12024197340E+02 -0.52634845272E+01 -0.49846637453E+01  0.14806163031E+02  0.47000000000E+01 0. -1.
        -11    1    6    6    0    0 -0.87899476326E+00  0.14598775797E+02  0.15282064571E+02  0.21152739400E+02  0.00000000000E+00 0.  1.
         12    1    6    6    0    0  0.59111619568E+02  0.41905948089E+02  0.59444048444E+03  0.59884036403E+03  0.00000000000E+00 0. -1.
         -5    1    3    3    0  503 -0.87301581348E+02  0.14091616867E+02  0.10550607198E+03  0.13774527577E+03  0.47000000000E+01 0.  1.
         13    1    4    4    0    0  0.23567253276E+02 -0.43841213900E+02  0.10961635014E+03  0.12038775553E+03  0.00000000000E+00 0. -1.
        -14    1    4    4    0    0 -0.65224940724E+01 -0.21491642326E+02 -0.88291461203E+01  0.24132704780E+02  0.00000000000E+00 0.  1.
</event>
<event>
12    1  0.1565987E-001  0.2301671E+03  0.7818608E-02  0.1128483E+00
         21   -1    0    0  501  502  0.00000000000E+00  0.00000000000E+00  0.50026441772E+03  0.50026441772E+03  0.00000000000E+00 0. -1.
         21   -1    0    0  502  503 -0.00000000000E+00 -0.00000000000E+00 -0.10277794100E+03  0.10277794100E+03  0.00000000000E+00 0.  1.
         -6    2    1    2    0  503 -0.76484392122E+02 -0.13267889566E+03  0.16334076683E+03  0.28223586791E+03  0.17182353574E+03 0.  0.
        -24    2    3    3    0    0 -0.61386455447E+02 -0.37244667885E+01  0.99485366877E+02  0.13747125027E+03  0.72241524508E+02 0.  0.
          6    2    1    2  501    0  0.76484392122E+02  0.13267889566E+03  0.23414570989E+03  0.32080649080E+03  0.15696827542E+03 0.  0.
         24    2    5    5    0    0  0.54338003704E+02  0.99022405140E+02  0.24265328450E+03  0.27936145854E+03  0.80025949978E+02 0.  0.
          5    1    5    5  501    0  0.22146388417E+02  0.33656490520E+02 -0.85075746076E+01  0.41445032269E+02  0.47000000000E+01 0. -1.
        -11    1    6    6    0    0 -0.19862253023E+02  0.33023046534E+02  0.79825327965E+02  0.88640361475E+02  0.00000000000E+00 0.  1.
         12    1    6    6    0    0  0.74200256727E+02  0.65999358605E+02  0.16282795653E+03  0.19072109706E+03  0.00000000000E+00 0. -1.
         -5    1    3    3    0  503 -0.15097936674E+02 -0.12895442887E+03  0.63855399956E+02  0.14476461764E+03  0.47000000000E+01 0.  1.
         13    1    4    4    0    0 -0.42553197312E+02  0.74681338837E+01  0.86883184761E+01  0.44068520546E+02  0.00000000000E+00 0. -1.
        -14    1    4    4    0    0 -0.18833258135E+02 -0.11192600672E+02  0.90797048401E+02  0.93402729725E+02  0.00000000000E+00 0.  1.
</event>
<event>
12    1  0.1565987E-001  0.1854134E+03  0.7818608E-02  0.1162708E+00
         21   -1    0    0  503  502  0.00000000000E+00  0.00000000000E+00  0.24974636465E+03  0.24974636465E+03  0.00000000000E+00 0.  1.
         21   -1    0    0  501  503 -0.00000000000E+00 -0.00000000000E+00 -0.13829891877E+03  0.13829891877E+03  0.00000000000E+00 0. -1.
          6    2    1    2  501    0  0.69177542511E+02  0.81627290941E+01  0.41057757003E+02  0.18972019959E+03  0.17162707301E+03 0.  0.
         24    2    3    3    0    0  0.40479824690E+02 -0.60388752665E+02  0.33618194198E+02  0.11488503570E+03  0.82358793048E+02 0.  0.
         -6    2    1    2    0  502 -0.69177542511E+02 -0.81627290941E+01  0.70389688873E+02  0.19832508383E+03  0.17183121964E+03 0.  0.
        -24    2    5    5    0    0 -0.35334171224E+02 -0.70403685258E+02  0.14782971967E+02  0.10813912390E+03  0.72597185227E+02 0.  0.
          5    1    3    3  501    0  0.28697717820E+02  0.68551481759E+02  0.74395628049E+01  0.74835163889E+02  0.47000000000E+01 0. -1.
        -13    1    4    4    0    0  0.55741101801E+02 -0.41497918607E+02  0.49983092070E+02  0.85600567589E+02  0.00000000000E+00 0.  1.
         14    1    4    4    0    0 -0.15261277110E+02 -0.18890834059E+02 -0.16364897872E+02  0.29284468116E+02  0.00000000000E+00 0. -1.
         -5    1    5    5    0  502 -0.33843371286E+02  0.62240956164E+02  0.55606716906E+02  0.90185959934E+02  0.47000000000E+01 0.  1.
         11    1    6    6    0    0 -0.41967327749E+02 -0.70684723613E+02  0.33128737395E+02  0.88629001981E+02  0.00000000000E+00 0. -1.
        -12    1    6    6    0    0  0.66331565249E+01  0.28103835532E+00 -0.18345765428E+02  0.19510121916E+02  0.00000000000E+00 0.  1.
</event>
<event>
12    1  0.1565987E-001  0.1994840E+03  0.7818608E-02  0.1150250E+00
         21   -1    0    0  501  502  0.00000000000E+00  0.00000000000E+00  0.34594980803E+02  0.34594980803E+02  0.00000000000E+00 0.  1.
         21   -1    0    0  502  503 -0.00000000000E+00 -0.00000000000E+00 -0.18896169518E+04  0.18896169518E+04  0.00000000000E+00 0.  1.
         -6    2    1    2    0  503  0.42666690535E+02  0.92470161428E+02 -0.15306530951E+04  0.15435973439E+04  0.17153042067E+03 0.  0.
        -24    2    3    3    0    0 -0.24642669016E+02  0.27043441548E+01 -0.45090239382E+03  0.45802278689E+03  0.76533195063E+02 0.  0.
          6    2    1    2  501    0 -0.42666690535E+02 -0.92470161428E+02 -0.32436887588E+03  0.38061458872E+03  0.17111727052E+03 0.  0.
         24    2    5    5    0    0 -0.54176671386E+02 -0.14574425407E+01 -0.10149888096E+03  0.13955667183E+03  0.78973450954E+02 0.  0.
          5    1    5    5  501    0  0.11509980851E+02 -0.91012718888E+02 -0.22286999491E+03  0.24105791688E+03  0.47000000000E+01 0. -1.
        -11    1    6    6    0    0 -0.42715552334E+02 -0.37223501818E+02 -0.73014773722E+02  0.92419503788E+02  0.00000000000E+00 0.  1.
         12    1    6    6    0    0 -0.11461119052E+02  0.35766059277E+02 -0.28484107239E+02  0.47137168045E+02  0.00000000000E+00 0. -1.
         -5    1    3    3    0  503  0.67309359551E+02  0.89765817274E+02 -0.10797507013E+04  0.10855745570E+04  0.47000000000E+01 0.  1.
         13    1    4    4    0    0 -0.47732562668E+02  0.13909523049E+02 -0.21229569967E+03  0.21803975891E+03  0.00000000000E+00 0. -1.
        -14    1    4    4    0    0  0.23089893652E+02 -0.11205178894E+02 -0.23860669415E+03  0.23998302798E+03  0.00000000000E+00 0.  1.
</event>
<event>
12    1  0.1565987E-001  0.2044166E+03  0.7818608E-02  0.1146113E+00
         21   -1    0    0  503  502  0.00000000000E+00  0.00000000000E+00  0.28657189568E+03  0.28657189568E+03  0.00000000000E+00 0.  1.
         21   -1    0    0  501  503 -0.00000000000E+00 -0.00000000000E+00 -0.24708609595E+03  0.24708609595E+03  0.00000000000E+00 0. -1.
          6    2    1    2  501    0  0.43248971531E+02  0.10149867370E+03 -0.15121657810E+03  0.25426876863E+03  0.17208631239E+03 0.  0.
         24    2    3    3    0    0  0.85767501799E+02  0.31129855728E+02 -0.78521177736E+02  0.14442202452E+03  0.79793568235E+02 0.  0.
         -6    2    1    2    0  502 -0.43248971531E+02 -0.10149867370E+03  0.19070237782E+03  0.27938922300E+03  0.17180944887E+03 0.  0.
        -24    2    5    5    0    0 -0.75028684100E+02 -0.21240599598E+02  0.14067766771E+03  0.17950994481E+03  0.79706634516E+02 0.  0.
          5    1    3    3  501    0 -0.42518530267E+02  0.70368817969E+02 -0.72695400361E+02  0.10984674411E+03  0.47000000000E+01 0. -1.
        -11    1    4    4    0    0  0.29988724533E+02 -0.22035416816E+02 -0.49839223475E+02  0.62199930788E+02  0.00000000000E+00 0.  1.
         12    1    4    4    0    0  0.55778777265E+02  0.53165272544E+02 -0.28681954261E+02  0.82222093735E+02  0.00000000000E+00 0. -1.
         -5    1    5    5    0  502  0.31779712568E+02 -0.80258074099E+02  0.50024710115E+02  0.99879278187E+02  0.47000000000E+01 0.  1.
         13    1    6    6    0    0 -0.23927582206E+02  0.18592671950E+02  0.96357166950E+02  0.10100950581E+03  0.00000000000E+00 0. -1.
        -14    1    6    6    0    0 -0.51101101894E+02 -0.39833271548E+02  0.44320500760E+02  0.78500439009E+02  0.00000000000E+00 0.  1.
</event>
<event>
12    1  0.1565987E-001  0.1753814E+03  0.7818608E-02  0.1172505E+00
         21   -1    0    0  503  502  0.00000000000E+00  0.00000000000E+00  0.10175215816E+03  0.10175215816E+03  0.00000000000E+00 0.  1.
         21   -1    0    0  501  503 -0.00000000000E+00 -0.00000000000E+00 -0.40852154778E+03  0.40852154778E+03  0.00000000000E+00 0.  1.
          6    2    1    2  501    0 -0.69661980475E+01  0.32585495636E+02 -0.28394226090E+03  0.33341298051E+03  0.17155368141E+03 0.  0.
         24    2    3    3    0    0  0.49128820415E+02 -0.99549304115E+01 -0.10238362712E+03  0.13862600342E+03  0.78879782498E+02 0.  0.
         -6    2    1    2    0  502  0.69661980475E+01 -0.32585495636E+02 -0.22827128720E+02  0.17686072543E+03  0.17218680540E+03 0.  0.
        -24    2    5    5    0    0  0.37339286032E+02 -0.59873282209E+02 -0.59792385937E+02  0.12158262840E+03  0.78918780461E+02 0.  0.
          5    1    3    3  501    0 -0.56095018462E+02  0.42540426048E+02 -0.18155863378E+03  0.19478697709E+03  0.47000000000E+01 0. -1.
        -13    1    4    4    0    0  0.59441190927E+02  0.18918540439E+02 -0.62306442379E+02  0.88166088226E+02  0.00000000000E+00 0.  1.
         14    1    4    4    0    0 -0.10312370512E+02 -0.28873470850E+02 -0.40077184743E+02  0.50459915194E+02  0.00000000000E+00 0. -1.
         -5    1    5    5    0  502 -0.30373087984E+02  0.27287786573E+02  0.36965257217E+02  0.55278097027E+02  0.47000000000E+01 0.  1.
         13    1    6    6    0    0  0.16056557577E+02  0.18055544281E+02 -0.72916571306E+01  0.25238541642E+02  0.00000000000E+00 0. -1.
        -14    1    6    6    0    0  0.21282728455E+02 -0.77928826490E+02 -0.52500728807E+02  0.96344086761E+02  0.00000000000E+00 0.  1.
</event>
<event>
12    1  0.1565987E-001  0.2576534E+03  0.7818608E-02  0.1108615E+00
         21   -1    0    0  501  502  0.00000000000E+00  0.00000000000E+00  0.69720621724E+03  0.69720621724E+03  0.00000000000E+00 0.  1.
         21   -1    0    0  502  503 -0.00000000000E+00 -0.00000000000E+00 -0.96061105893E+02  0.96061105893E+02  0.00000000000E+00 0. -1.
         -6    2    1    2    0  503  0.14506692372E+03  0.12572606643E+03  0.26041337744E+03  0.36608658551E+03  0.17132660273E+03 0.  0.
        -24    2    3    3    0    0  0.79103914711E+02  0.13450979744E+03  0.23970144841E+03  0.29623426635E+03  0.77120952149E+02 0.  0.
          6    2    1    2  501    0 -0.14506692372E+03 -0.12572606643E+03  0.34073173391E+03  0.42718073763E+03  0.17185404263E+03 0.  0.
         24    2    5    5    0    0 -0.70078885476E+02 -0.25719806249E+01  0.18710820485E+03  0.21643820891E+03  0.83176635423E+02 0.  0.
          5    1    5    5  501    0 -0.74988038242E+02 -0.12315408580E+03  0.15362352906E+03  0.21074252872E+03  0.47000000000E+01 0. -1.
        -11    1    6    6    0    0  0.17060322435E+02  0.10531859643E+02  0.44393068786E+02  0.48710565849E+02  0.00000000000E+00 0.  1.
         12    1    6    6    0    0 -0.87139207910E+02 -0.13103840268E+02  0.14271513607E+03  0.16772764306E+03  0.00000000000E+00 0. -1.
         -5    1    3    3    0  503  0.65963009006E+02 -0.87837310137E+01  0.20711929029E+02  0.69852319158E+02  0.47000000000E+01 0.  1.
         13    1    4    4    0    0  0.48827054933E+01 -0.74341111472E+01  0.36089045626E+02  0.37168885316E+02  0.00000000000E+00 0. -1.
        -14    1    4    4    0    0  0.74221209218E+02  0.14194390859E+03  0.20361240278E+03  0.25906538103E+03  0.00000000000E+00 0.  1.
</event>
<event>
12    1  0.1565987E-001  0.1786019E+03  0.7818608E-02  0.1170035E+00
         21   -1    0    0  501  502  0.00000000000E+00  0.00000000000E+00  0.57595419860E+02  0.57595419860E+02  0.00000000000E+00 0.  1.
         21   -1    0    0  502  503 -0.00000000000E+00 -0.00000000000E+00 -0.83925049875E+03  0.83925049875E+03  0.00000000000E+00 0.  1.
         -6    2    1    2    0  503 -0.30365004063E+02 -0.36504564801E+02 -0.65474056163E+03  0.67774333056E+03  0.16851172763E+03 0.  0.
        -24    2    3    3    0    0  0.30448261018E+02  0.32692035325E+02 -0.30999343906E+03  0.32086927546E+03  0.69751658785E+02 0.  0.
          6    2    1    2  501    0  0.30365004063E+02  0.36504564801E+02 -0.12691451726E+03  0.21910258805E+03  0.17217442515E+03 0.  0.
         24    2    5    5    0    0  0.23220732389E+02  0.67462343931E+02 -0.20422093103E+02  0.10787241630E+03  0.78288096473E+02 0.  0.
          5    1    5    5  501    0  0.71442716735E+01 -0.30957779130E+02 -0.10649242416E+03  0.11123017176E+03  0.47000000000E+01 0. -1.
        -11    1    6    6    0    0 -0.22458287190E+02  0.44483756025E+02 -0.26397258820E+02  0.56391439836E+02  0.00000000000E+00 0.  1.
         12    1    6    6    0    0  0.45679019579E+02  0.22978587906E+02  0.59751657163E+01  0.51480976460E+02  0.00000000000E+00 0. -1.
         -5    1    3    3    0  503 -0.60813265081E+02 -0.69196600125E+02 -0.34474712257E+03  0.35687405510E+03  0.47000000000E+01 0.  1.
         11    1    4    4    0    0 -0.16364096735E+02  0.30852684858E+02 -0.10765275827E+03  0.11317591699E+03  0.00000000000E+00 0. -1.
        -12    1    4    4    0    0  0.46812357753E+02  0.18393504673E+01 -0.20234068079E+03  0.20769335847E+03  0.00000000000E+00 0.  1.
</event>
<event>
12    1  0.1565987E-001  0.1960514E+03  0.7818608E-02  0.1153219E+00
         21   -1    0    0  501  502  0.00000000000E+00  0.00000000000E+00  0.69243968170E+02  0.69243968170E+02  0.00000000000E+00 0. -1.
         21   -1    0    0  502  503 -0.00000000000E+00 -0.00000000000E+00 -0.65823964203E+03  0.65823964203E+03  0.00000000000E+00 0.  1.
         -6    2    1    2    0  503  0.86088109854E+02 -0.36198319934E+02 -0.43975500988E+03  0.48147755638E+03  0.17237948705E+03 0.  0.
        -24    2    3    3    0    0  0.18086858052E+02  0.21274967285E+02 -0.10280768305E+03  0.13293352752E+03  0.79511913438E+02 0.  0.
          6    2    1    2  501    0 -0.86088109854E+02  0.36198319934E+02 -0.14924066398E+03  0.24600605382E+03  0.17182759298E+03 0.  0.
         24    2    5    5    0    0 -0.87223876389E+01  0.22746565945E+02 -0.14484691651E+03  0.16721646266E+03  0.79920146718E+02 0.  0.
          5    1    5    5  501    0 -0.77365722215E+02  0.13451753989E+02 -0.43937474631E+01  0.78789591165E+02  0.47000000000E+01 0. -1.
        -11    1    6    6    0    0  0.21949249534E+02 -0.20684751397E+02 -0.46691060346E+02  0.55584922522E+02  0.00000000000E+00 0.  1.
         12    1    6    6    0    0 -0.30671637173E+02  0.43431317343E+02 -0.98155856168E+02  0.11163154014E+03  0.00000000000E+00 0. -1.
         -5    1    3    3    0  503  0.68001251802E+02 -0.57473287219E+02 -0.33694732684E+03  0.34854402886E+03  0.47000000000E+01 0.  1.
         13    1    4    4    0    0  0.20892752061E+02  0.49697627448E+02 -0.79571818811E+02  0.96114700289E+02  0.00000000000E+00 0. -1.
        -14    1    4    4    0    0 -0.28058940098E+01 -0.28422660163E+02 -0.23235864234E+02  0.36818827231E+02  0.00000000000E+00 0.  1.
</event>
<event>
12    1  0.1565987E-001  0.2357022E+03  0.7818608E-02  0.1122711E+00
         21   -1    0    0  503  502  0.00000000000E+00  0.00000000000E+00  0.14464811346E+03  0.14464811346E+03  0.00000000000E+00 0.  1.
         21   -1    0    0  501  503 -0.00000000000E+00 -0.00000000000E+00 -0.48931545247E+03  0.48931545247E+03  0.00000000000E+00 0. -1.
          6    2    1    2  501    0 -0.66000777642E+02 -0.14688193590E+03 -0.31944665648E+03  0.39691590471E+03  0.17194668746E+03 0.  0.
         24    2    3    3    0    0 -0.81457766384E+02 -0.12181489127E+03 -0.14520509889E+03  0.22014066430E+03  0.76831997872E+02 0.  0.
         -6    2    1    2    0  502  0.66000777642E+02  0.14688193590E+03 -0.25220682521E+02  0.23704766122E+03  0.17211945016E+03 0.  0.
        -24    2    5    5    0    0  0.49857538156E+02  0.17651163259E+03 -0.32864669178E+02  0.20213285578E+03  0.78329268817E+02 0.  0.
          5    1    3    3  501    0  0.15456988741E+02 -0.25067044630E+02 -0.17424155759E+03  0.17677524040E+03  0.47000000000E+01 0. -1.
        -13    1    4    4    0    0  0.71890173896E+01 -0.41768413626E+02 -0.19217215875E+02  0.46535832794E+02  0.00000000000E+00 0.  1.
         14    1    4    4    0    0 -0.88646783773E+02 -0.80046477641E+02 -0.12598788302E+03  0.17360483151E+03  0.00000000000E+00 0. -1.
         -5    1    5    5    0  502  0.16143239486E+02 -0.29629696695E+02  0.76439866577E+01  0.34914805446E+02  0.47000000000E+01 0.  1.
         11    1    6    6    0    0 -0.14361476691E+02  0.22777174353E+02 -0.22693435701E+02  0.35214254332E+02  0.00000000000E+00 0. -1.
        -12    1    6    6    0    0  0.64219014847E+02  0.15373445824E+03 -0.10171233477E+02  0.16691860145E+03  0.00000000000E+00 0.  1.
</event>
<event>
12    1  0.1565987E-001  0.1932991E+03  0.7818608E-02  0.1155696E+00
         21   -1    0    0  501  502  0.00000000000E+00  0.00000000000E+00  0.31241640832E+03  0.31241640832E+03  0.00000000000E+00 0. -1.
         21   -1    0    0  502  503 -0.00000000000E+00 -0.00000000000E+00 -0.12733975359E+03  0.12733975359E+03  0.00000000000E+00 0.  1.
         -6    2    1    2    0  503  0.81881710010E+02  0.38802332231E+02  0.36801323839E+02  0.19677116814E+03  0.17074636088E+03 0.  0.
        -24    2    3    3    0    0  0.67931640561E+01 -0.13476889256E+02 -0.26400895634E+02  0.85469697897E+02  0.79876707158E+02 0.  0.
          6    2    1    2  501    0 -0.81881710010E+02 -0.38802332231E+02  0.14827533089E+03  0.24298499376E+03  0.16984080200E+03 0.  0.
         24    2    5    5    0    0 -0.51503613403E+02 -0.35587986264E+01  0.14807878451E+02  0.10156156475E+03  0.86198555260E+02 0.  0.
          5    1    5    5  501    0 -0.30378096607E+02 -0.35243533605E+02  0.13346745244E+03  0.14142342901E+03  0.47000000000E+01 0. -1.
        -11    1    6    6    0    0 -0.46685179224E+02  0.36127710672E+02  0.17275885460E+02  0.61507508939E+02  0.00000000000E+00 0.  1.
         12    1    6    6    0    0 -0.48184341791E+01 -0.39686509298E+02 -0.24680070091E+01  0.40054055810E+02  0.00000000000E+00 0. -1.
         -5    1    3    3    0  503  0.75088545954E+02  0.52279221487E+02  0.63202219473E+02  0.11130147025E+03  0.47000000000E+01 0.  1.
         13    1    4    4    0    0 -0.73951308033E+01  0.69563328018E+01  0.25755643113E+02  0.27684502485E+02  0.00000000000E+00 0. -1.
        -14    1    4    4    0    0  0.14188294859E+02 -0.20433222058E+02 -0.52156538747E+02  0.57785195412E+02  0.00000000000E+00 0.  1.
</event>
<event>
12    1  0.1565987E-001  0.2094514E+03  0.7818608E-02  0.1142110E+00
         21   -1    0    0  501  502  0.00000000000E+00  0.00000000000E+00  0.14886247521E+03  0.14886247521E+03  0.00000000000E+00 0. -1.
         21   -1    0    0  502  503 -0.00000000000E+00 -0.00000000000E+00 -0.29610557975E+03  0.29610557975E+03  0.00000000000E+00 0.  1.
         -6    2    1    2    0  503 -0.27001406912E+02 -0.11505233460E+03 -0.92768444226E+02  0.22907615652E+03  0.17292711057E+03 0.  0.
        -24    2    3    3    0    0  0.54988282749E+01 -0.10569436913E+03 -0.12405370107E+03  0.18276531436E+03  0.82536674315E+02 0.  0.
          6    2    1    2  501    0  0.27001406912E+02  0.11505233460E+03 -0.54474660319E+02  0.21589189844E+03  0.17226638536E+03 0.  0.
         24    2    5    5    0    0 -0.36237983048E+01  0.55659139015E+02 -0.96352929749E+02  0.13688978248E+03  0.79648313269E+02 0.  0.
          5    1    5    5  501    0  0.30625205216E+02  0.59393195581E+02  0.41878269431E+02  0.79002115961E+02  0.47000000000E+01 0. -1.
        -13    1    6    6    0    0  0.89770073429E+01  0.25335126024E+01 -0.79072690298E+02  0.79620950119E+02  0.00000000000E+00 0.  1.
         14    1    6    6    0    0 -0.12600805648E+02  0.53125626413E+02 -0.17280239451E+02  0.57268832363E+02  0.00000000000E+00 0. -1.
         -5    1    3    3    0  503 -0.32500235187E+02 -0.93579654699E+01  0.31285256848E+02  0.46310842153E+02  0.47000000000E+01 0.  1.
         13    1    4    4    0    0 -0.31276400774E+02 -0.14450453260E+02 -0.44309092485E+02  0.56127751796E+02  0.00000000000E+00 0. -1.
        -14    1    4    4    0    0  0.36775229049E+02 -0.91243915866E+02 -0.79744608588E+02  0.12663756257E+03  0.00000000000E+00 0.  1.
</event>
<event>
12    1  0.1565987E-001  0.2659027E+03  0.7818608E-02  0.1103720E+00
         21   -1    0    0  503  502  0.00000000000E+00  0.00000000000E+00  0.22142384831E+03  0.22142384831E+03  0.00000000000E+00 0. -1.
         21   -1    0    0  501  503 -0.00000000000E+00 -0.00000000000E+00 -0.47752368286E+03  0.47752368286E+03  0.00000000000E+00 0.  1.
          6    2    1    2  501    0 -0.11248072139E+01 -0.20597518238E+03 -0.32950263682E+03  0.42309936656E+03  0.16737396860E+03 0.  0.
         24    2    3    3    0    0  0.25546395237E+02 -0.15298137142E+03 -0.31763467792E+03  0.36241464452E+03  0.79979170032E+02 0.  0.
         -6    2    1    2    0  502  0.11248072139E+01  0.20597518238E+03  0.73402802271E+02  0.27584816461E+03  0.16815825163E+03 0.  0.
        -24    2    5    5    0    0 -0.40738236479E+02  0.45904839960E+02  0.22446960544E+02  0.10266151167E+03  0.79174880473E+02 0.  0.
          5    1    3    3  501    0 -0.26671202451E+02 -0.52993810961E+02 -0.11867958904E+02  0.60684722039E+02  0.47000000000E+01 0. -1.
        -11    1    4    4    0    0 -0.17300817532E+02 -0.67024000852E+02 -0.78203052590E+02  0.10443779207E+03  0.00000000000E+00 0.  1.
         12    1    4    4    0    0  0.42847212769E+02 -0.85957370571E+02 -0.23943162533E+03  0.25797685246E+03  0.00000000000E+00 0. -1.
         -5    1    5    5    0  502  0.41863043692E+02  0.16007034242E+03  0.50955841726E+02  0.17318665294E+03  0.47000000000E+01 0.  1.
         13    1    6    6    0    0 -0.16190373633E+02  0.66305810406E+02  0.14816913717E+02  0.69843608326E+02  0.00000000000E+00 0. -1.
        -14    1    6    6    0    0 -0.24547862845E+02 -0.20400970446E+02  0.76300468273E+01  0.32817903345E+02  0.00000000000E+00 0.  1.
</event>
<event>
12    1  0.1565987E-001  0.4935718E+03  0.7818608E-02  0.1015484E+00
         21   -1    0    0  501  502  0.00000000000E+00  0.00000000000E+00  0.12610100738E+04  0.12610100738E+04  0.00000000000E+00 0.  1.
         21   -1    0    0  502  503 -0.00000000000E+00 -0.00000000000E+00 -0.26747704610E+03  0.26747704610E+03  0.00000000000E+00 0. -1.
         -6    2    1    2    0  503  0.43429406846E+03  0.15917441594E+03  0.93705137973E+02  0.50218145159E+03  0.17163252854E+03 0.  0.
        -24    2    3    3    0    0  0.12509700719E+03  0.50331855000E+02 -0.10423757315E+02  0.15821278645E+03  0.82097955167E+02 0.  0.
          6    2    1    2  501    0 -0.43429406846E+03 -0.15917441594E+03  0.89982788969E+03  0.10263056683E+04  0.17223606205E+03 0.  0.
         24    2    5    5    0    0 -0.30347025174E+03 -0.17210311388E+03  0.71073289105E+03  0.79595586739E+03  0.81797462848E+02 0.  0.
          5    1    5    5  501    0 -0.13082381672E+03  0.12928697932E+02  0.18909499864E+03  0.23034980088E+03  0.47000000000E+01 0. -1.
        -11    1    6    6    0    0 -0.14292061463E+03 -0.52257417625E+02  0.23761961499E+03  0.28217055341E+03  0.00000000000E+00 0.  1.
         12    1    6    6    0    0 -0.16054963710E+03 -0.11984569625E+03  0.47311327606E+03  0.51378531399E+03  0.00000000000E+00 0. -1.
         -5    1    3    3    0  503  0.30919706127E+03  0.10884256094E+03  0.10412889529E+03  0.34396866515E+03  0.47000000000E+01 0.  1.
         11    1    4    4    0    0  0.92779122352E+02  0.48057707192E+02  0.27784559640E+02  0.10811794726E+03  0.00000000000E+00 0. -1.
        -12    1    4    4    0    0  0.32317884838E+02  0.22741478080E+01 -0.38208316955E+02  0.50094839187E+02  0.00000000000E+00 0.  1.
</event>
<event>
12    1  0.1565987E-001  0.1738110E+03  0.7818608E-02  0.1174152E+00
         21   -1    0    0  503  502  0.00000000000E+00  0.00000000000E+00  0.35191707118E+02  0.35191707118E+02  0.00000000000E+00 0.  1.
         21   -1    0    0  501  503 -0.00000000000E+00 -0.00000000000E+00 -0.10353249526E+04  0.10353249526E+04  0.00000000000E+00 0.  1.
          6    2    1    2  501    0  0.21786024724E+02  0.14167533386E+02 -0.72293507514E+03  0.74333310124E+03  0.17097843917E+03 0.  0.
         24    2    3    3    0    0  0.26260589575E+02 -0.51191184376E+01 -0.17813826623E+03  0.19815638708E+03  0.82564446987E+02 0.  0.
         -6    2    1    2    0  502 -0.21786024724E+02 -0.14167533386E+02 -0.27719817030E+03  0.32718355843E+03  0.17185722393E+03 0.  0.
        -24    2    5    5    0    0  0.16607709640E+02 -0.64643578918E+02 -0.21226116149E+03  0.23629453201E+03  0.79534249642E+02 0.  0.
          5    1    3    3  501    0 -0.44745648511E+01  0.19286651824E+02 -0.54479680891E+03  0.54517671416E+03  0.47000000000E+01 0. -1.
        -13    1    4    4    0    0  0.17049346500E+01 -0.37575869293E+02 -0.12889450884E+03  0.13427079788E+03  0.00000000000E+00 0.  1.
         14    1    4    4    0    0  0.24555654925E+02  0.32456750856E+02 -0.49243757393E+02  0.63885589197E+02  0.00000000000E+00 0. -1.
         -5    1    5    5    0  502 -0.38393734364E+02  0.50476045531E+02 -0.64937008814E+02  0.90889026425E+02  0.47000000000E+01 0.  1.
         13    1    6    6    0    0  0.25187460103E+02 -0.14215816831E+02 -0.16207043646E+03  0.16463087186E+03  0.00000000000E+00 0. -1.
        -14    1    6    6    0    0 -0.85797504630E+01 -0.50427762087E+02 -0.50190725026E+02  0.71663660147E+02  0.00000000000E+00 0.  1.
</event>
<event>
12    1  0.1565987E-001  0.1906124E+03  0.7818608E-02  0.1158954E+00
         21   -1    0    0  503  502  0.00000000000E+00  0.00000000000E+00  0.48375776584E+03  0.48375776584E+03  0.00000000000E+00 0. -1.
         21   -1    0    0  501  503 -0.00000000000E+00 -0.00000000000E+00 -0.10604314991E+03  0.10604314991E+03  0.00000000000E+00 0. -1.
          6    2    1    2  501    0 -0.34983603045E+02 -0.63331807588E+02  0.23430733458E+02  0.18749486454E+03  0.17137839602E+03 0.  0.
         24    2    3    3    0    0 -0.10890059327E+02  0.22014883240E+02 -0.24188004892E+02  0.86726860062E+02  0.79581657431E+02 0.  0.
         -6    2    1    2    0  502  0.34983603045E+02  0.63331807588E+02  0.35428388247E+03  0.40230605121E+03  0.17634715514E+03 0.  0.
        -24    2    5    5    0    0  0.69810904392E+02 -0.46131902869E+01  0.16253885103E+03  0.19586547686E+03  0.83961675990E+02 0.  0.
          5    1    3    3  501    0 -0.24093543717E+02 -0.85346690828E+02  0.47618738351E+02  0.10076800448E+03  0.47000000000E+01 0. -1.
        -13    1    4    4    0    0 -0.23667408894E+02  0.40841293163E+02  0.74182058059E+01  0.47782708676E+02  0.00000000000E+00 0.  1.
         14    1    4    4    0    0  0.12777349567E+02 -0.18826409923E+02 -0.31606210698E+02  0.38944151387E+02  0.00000000000E+00 0. -1.
         -5    1    5    5    0  502 -0.34827301348E+02  0.67944997875E+02  0.19174503144E+03  0.20644057435E+03  0.47000000000E+01 0.  1.
         11    1    6    6    0    0  0.95633239123E+01  0.32816060427E+02  0.80258869506E+02  0.87234380382E+02  0.00000000000E+00 0. -1.
        -12    1    6    6    0    0  0.60247580480E+02 -0.37429250714E+02  0.82279981528E+02  0.10863109648E+03  0.00000000000E+00 0.  1.
</event>
<event>
12    1  0.1565987E-001  0.1829931E+03  0.7818608E-02  0.1165209E+00
         21   -1    0    0  501  502  0.00000000000E+00  0.00000000000E+00  0.14059801267E+03  0.14059801267E+03  0.00000000000E+00 0. -1.
         21   -1    0    0  502  503 -0.00000000000E+00 -0.00000000000E+00 -0.30828232820E+03  0.30828232820E+03  0.00000000000E+00 0.  1.
         -6    2    1    2    0  503 -0.38921157481E+02  0.46306053224E+02 -0.19180017169E+03  0.26430504896E+03  0.17149561504E+03 0.  0.
        -24    2    3    3    0    0 -0.34440795066E+02  0.97632020472E+02 -0.14061864532E+03  0.19153096563E+03  0.78691343865E+02 0.  0.
          6    2    1    2  501    0  0.38921157481E+02 -0.46306053224E+02  0.24115856160E+02  0.18457529191E+03  0.17270598369E+03 0.  0.
         24    2    5    5    0    0 -0.19894683027E+02 -0.31947974373E+02 -0.39807988444E+02  0.96406105502E+02  0.79328366647E+02 0.  0.
          5    1    5    5  501    0  0.58815840509E+02 -0.14358078851E+02  0.63923844604E+02  0.88169186409E+02  0.47000000000E+01 0. -1.
        -11    1    6    6    0    0 -0.29983275663E+02  0.16798816865E+02 -0.30063103302E+01  0.34499782163E+02  0.00000000000E+00 0.  1.
         12    1    6    6    0    0  0.10088592635E+02 -0.48746791238E+02 -0.36801678114E+02  0.61906323339E+02  0.00000000000E+00 0. -1.
         -5    1    3    3    0  503 -0.44803624155E+01 -0.51325967247E+02 -0.51181526376E+02  0.72774083323E+02  0.47000000000E+01 0.  1.
         11    1    4    4    0    0  0.41852746623E+00  0.27168937710E+02  0.34686984924E+01  0.27392667099E+02  0.00000000000E+00 0. -1.
        -12    1    4    4    0    0 -0.34859322532E+02  0.70463082761E+02 -0.14408734381E+03  0.16413829853E+03  0.00000000000E+00 0.  1.
</event>
<event>
12    1  0.1565987E-001  0.2035370E+03  0.7818608E-02  0.1147020E+00
         21   -1    0    0  503  502  0.00000000000E+00  0.00000000000E+00  0.94684677105E+03  0.94684677105E+03  0.00000000000E+00 0.  1.
         21   -1    0    0  501  503 -0.00000000000E+00 -0.00000000000E+00 -0.64483604298E+02  0.64483604298E+02  0.00000000000E+00 0.  1.
          6    2    1    2  501    0 -0.26966857712E+02  0.10460634460E+03  0.72872881763E+03  0.75631894286E+03  0.17118105896E+03 0.  0.
         24    2    3    3    0    0 -0.60349755771E+02  0.53052722881E+02  0.26032075770E+03  0.28387805301E+03  0.79769465757E+02 0.  0.
         -6    2    1    2    0  502  0.26966857712E+02 -0.10460634460E+03  0.15363434913E+03  0.25501143249E+03  0.17250396727E+03 0.  0.
        -24    2    5    5    0    0  0.49083106589E+02 -0.49281403375E+02  0.16290468456E+03  0.19452997496E+03  0.80412479342E+02 0.  0.
          5    1    3    3  501    0  0.33382898059E+02  0.51553621719E+02  0.46840805993E+03  0.47244088985E+03  0.47000000000E+01 0. -1.
        -11    1    4    4    0    0 -0.42889826067E+02 -0.65348227675E+01  0.16101719173E+03  0.16675963877E+03  0.00000000000E+00 0.  1.
         12    1    4    4    0    0 -0.17459929704E+02  0.59587545648E+02  0.99303565965E+02  0.11711841424E+03  0.00000000000E+00 0. -1.
         -5    1    5    5    0  502 -0.22116248877E+02 -0.55324941225E+02 -0.92703354356E+01  0.60481457530E+02  0.47000000000E+01 0.  1.
         11    1    6    6    0    0 -0.21401566670E+02 -0.50251803305E+01  0.46480762284E+02  0.51417319609E+02  0.00000000000E+00 0. -1.
        -12    1    6    6    0    0  0.70484673258E+02 -0.44256223045E+02  0.11642392228E+03  0.14311265535E+03  0.00000000000E+00 0.  1.
</event>
<event>
12    1  0.1565987E-001  0.1831507E+03  0.7818608E-02  0.1165007E+00
         21   -1    0    0  503  502  0.00000000000E+00  0.00000000000E+00  0.37467324032E+03  0.37467324032E+03  0.00000000000E+00 0. -1.
         21   -1    0    0  501  503 -0.00000000000E+00 -0.00000000000E+00 -0.15709466480E+03  0.15709466480E+03  0.00000000000E+00 0. -1.
          6    2    1    2  501    0 -0.19903041517E+02  0.60303286199E+02 -0.66317759188E+02  0.19391982958E+03  0.17080467714E+03 0.  0.
         24    2    3    3    0    0  0.48247155156E+02  0.39425281760E+02 -0.69047854354E+02  0.12243637838E+03  0.79629892231E+02 0.  0.
         -6    2    1    2    0  502  0.19903041517E+02 -0.60303286199E+02  0.28389633471E+03  0.33784807554E+03  0.17178933580E+03 0.  0.
        -24    2    5    5    0    0 -0.36508319756E+02 -0.76847788624E+02  0.22901555334E+03  0.25728783469E+03  0.80687459879E+02 0.  0.
          5    1    3    3  501    0 -0.68150196673E+02  0.20878004439E+02  0.27300951656E+01  0.71483451201E+02  0.47000000000E+01 0. -1.
        -13    1    4    4    0    0  0.54102513609E+02  0.59366292784E+02 -0.54340913101E+02  0.96976149307E+02  0.00000000000E+00 0.  1.
         14    1    4    4    0    0 -0.58553584530E+01 -0.19941011024E+02 -0.14706941253E+02  0.25460229070E+02  0.00000000000E+00 0. -1.
         -5    1    5    5    0  502  0.56411361273E+02  0.16544502425E+02  0.54880781376E+02  0.80560240849E+02  0.47000000000E+01 0.  1.
         11    1    6    6    0    0  0.21827605018E+02 -0.41041180662E+02  0.68456616875E+02  0.82747394188E+02  0.00000000000E+00 0. -1.
        -12    1    6    6    0    0 -0.58335924774E+02 -0.35806607962E+02  0.16055893646E+03  0.17454044050E+03  0.00000000000E+00 0.  1.
</event>
<event>
12    1  0.1565987E-001  0.1830615E+03  0.7818608E-02  0.1164923E+00
         21   -1    0    0  501  502  0.00000000000E+00  0.00000000000E+00  0.44003748040E+03  0.44003748040E+03  0.00000000000E+00 0.  1.
         21   -1    0    0  502  503 -0.00000000000E+00 -0.00000000000E+00 -0.78138672459E+02  0.78138672459E+02  0.00000000000E+00 0.  1.
         -6    2    1    2    0  503 -0.61362109829E+02  0.12339019141E+02  0.13866854455E+03  0.22948382670E+03  0.17180308948E+03 0.  0.
        -24    2    3    3    0    0 -0.34527216404E+01 -0.88051615222E+01  0.14617788657E+03  0.16720177605E+03  0.80616420378E+02 0.  0.
          6    2    1    2  501    0  0.61362109829E+02 -0.12339019141E+02  0.22323026340E+03  0.28869232616E+03  0.17202891841E+03 0.  0.
         24    2    5    5    0    0  0.86606762463E+02 -0.12391944362E+02  0.23297011577E+03  0.26122871365E+03  0.79442270894E+02 0.  0.
          5    1    5    5  501    0 -0.25244652634E+02  0.52925221039E-01 -0.97398523720E+01  0.27463612507E+02  0.47000000000E+01 0. -1.
        -13    1    6    6    0    0  0.89730008889E+02  0.12031144361E+02  0.15544005253E+03  0.17988283092E+03  0.00000000000E+00 0.  1.
         14    1    6    6    0    0 -0.31232464267E+01 -0.24423088723E+02  0.77530063242E+02  0.81345882732E+02  0.00000000000E+00 0. -1.
         -5    1    3    3    0  503 -0.57909388188E+02  0.21144180663E+02 -0.75093420257E+01  0.62282050656E+02  0.47000000000E+01 0.  1.
         13    1    4    4    0    0  0.19714858151E+02  0.20295778546E+02  0.17531661380E+02  0.33285934108E+02  0.00000000000E+00 0. -1.
        -14    1    4    4    0    0 -0.23167579791E+02 -0.29100940068E+02  0.12864622519E+03  0.13391584194E+03  0.00000000000E+00 0.  1.
</event>
<event>
12    1  0.1565987E-001  0.2141354E+03  0.7818608E-02  0.1138521E+00
         21   -1    0    0  501  502  0.00000000000E+00  0.00000000000E+00  0.61299220346E+03  0.61299220346E+03  0.00000000000E+00 0. -1.
         21   -1    0    0  502  503 -0.00000000000E+00 -0.00000000000E+00 -0.97883390741E+02  0.97883390741E+02  0.00000000000E+00 0. -1.
         -6    2    1    2    0  503 -0.12608620059E+03  0.35273970524E+01  0.83250476846E+02  0.22884283268E+03  0.17183779463E+03 0.  0.
        -24    2    3    3    0    0 -0.66799337058E+02  0.68075910333E+02  0.57534709246E+02  0.13738336921E+03  0.80420559371E+02 0.  0.
          6    2    1    2  501    0  0.12608620059E+03 -0.35273970524E+01  0.43185833587E+03  0.48203276152E+03  0.17304273579E+03 0.  0.
         24    2    5    5    0    0  0.32331099673E+02  0.25015835453E+02  0.31926629601E+03  0.33268821857E+03  0.84139116815E+02 0.  0.
          5    1    5    5  501    0  0.93755100913E+02 -0.28543232505E+02  0.11259203986E+03  0.14934454295E+03  0.47000000000E+01 0. -1.
        -13    1    6    6    0    0 -0.80759310329E+01 -0.11490031616E+02  0.21130009682E+03  0.21176631555E+03  0.00000000000E+00 0.  1.
         14    1    6    6    0    0  0.40407030706E+02  0.36505867068E+02  0.10796619919E+03  0.12092190301E+03  0.00000000000E+00 0. -1.
         -5    1    3    3    0  503 -0.59286863528E+02 -0.64548513281E+02  0.25715767600E+02  0.91459463463E+02  0.47000000000E+01 0.  1.
         13    1    4    4    0    0 -0.24625471540E+01  0.35568146950E+02 -0.11612599793E+02  0.37496795729E+02  0.00000000000E+00 0. -1.
        -14    1    4    4    0    0 -0.64336789904E+02  0.32507763383E+02  0.69147309039E+02  0.99886573485E+02  0.00000000000E+00 0.  1.
</event>
<event>
12    1  0.1565987E-001  0.2094524E+03  0.7818608E-02  0.1143593E+00
         21   -1    0    0  501  502  0.00000000000E+00  0.00000000000E+00  0.18600633677E+03  0.18600633677E+03  0.00000000000E+00 0. -1.
         21   -1    0    0  502  503 -0.00000000000E+00 -0.00000000000E+00 -0.33189746949E+03  0.33189746949E+03  0.00000000000E+00 0. -1.
         -6    2    1    2    0  503  0.71464394830E+02  0.75694873476E+02 -0.21748970588E+03  0.29655188336E+03  0.17263943281E+03 0.  0.
        -24    2    3    3    0    0  0.11185683649E+03  0.75071514073E+02 -0.14288348548E+03  0.21158061738E+03  0.78759019380E+02 0.  0.
          6    2    1    2  501    0 -0.71464394830E+02 -0.75694873476E+02  0.71598573156E+02  0.22135192290E+03  0.18175105088E+03 0.  0.
         24    2    5    5    0    0 -0.34899953830E+02  0.21088755402E+02  0.78209625956E+02  0.11757415465E+03  0.77744413738E+02 0.  0.
          5    1    5    5  501    0 -0.36564441000E+02 -0.96783628877E+02 -0.66110527996E+01  0.10377776825E+03  0.47000000000E+01 0. -1.
        -13    1    6    6    0    0  0.19817562849E+02  0.85045859435E+01  0.33259084281E+00  0.21567901985E+02  0.00000000000E+00 0.  1.
         14    1    6    6    0    0 -0.54717516680E+02  0.12584169458E+02  0.77877035113E+02  0.96006252664E+02  0.00000000000E+00 0. -1.
         -5    1    3    3    0  503 -0.40392441656E+02  0.62335940300E+00 -0.74606220401E+02  0.84971265981E+02  0.47000000000E+01 0.  1.
         13    1    4    4    0    0  0.17213375034E+01  0.38645196433E+02 -0.24244316223E+02  0.45653051150E+02  0.00000000000E+00 0. -1.
        -14    1    4    4    0    0  0.11013549898E+03  0.36426317640E+02 -0.11863916925E+03  0.16592756623E+03  0.00000000000E+00 0.  1.
</event>
<event>
12    1  0.1565987E-001  0.2222330E+03  0.7818608E-02  0.1132951E+00
         21   -1    0    0  501  502  0.00000000000E+00  0.00000000000E+00  0.31859532945E+03  0.31859532945E+03  0.00000000000E+00 0.  1.
         21   -1    0    0  502  503 -0.00000000000E+00 -0.00000000000E+00 -0.19696389360E+03  0.19696389360E+03  0.00000000000E+00 0.  1.
         -6    2    1    2    0  503  0.52563035079E+02  0.12791064716E+03 -0.61493946458E+02  0.23058407345E+03  0.17396408584E+03 0.  0.
        -24    2    3    3    0    0  0.88028653194E+02  0.11863067219E+03 -0.10768035460E+02  0.16782153645E+03  0.78903975443E+02 0.  0.
          6    2    1    2  501    0 -0.52563035079E+02 -0.12791064716E+03  0.18312538231E+03  0.28497514960E+03  0.16897314560E+03 0.  0.
         24    2    5    5    0    0 -0.37517739634E+01 -0.75517673172E+02  0.18068509959E+03  0.21317258757E+03  0.84133537350E+02 0.  0.
          5    1    5    5  501    0 -0.48811261116E+02 -0.52392973992E+02  0.24402827160E+01  0.71802562038E+02  0.47000000000E+01 0. -1.
        -13    1    6    6    0    0 -0.36955696633E+02 -0.79070361360E+01  0.60763420997E+02  0.71557236289E+02  0.00000000000E+00 0.  1.
         14    1    6    6    0    0  0.33203922669E+02 -0.67610637036E+02  0.11992167859E+03  0.14161535128E+03  0.00000000000E+00 0. -1.
         -5    1    3    3    0  503 -0.35465618114E+02  0.92799749719E+01 -0.50725910998E+02  0.62762536997E+02  0.47000000000E+01 0.  1.
         11    1    4    4    0    0 -0.14219775365E+02  0.12332707008E+02  0.50360885249E+01  0.19484862360E+02  0.00000000000E+00 0. -1.
        -12    1    4    4    0    0  0.10224842856E+03  0.10629796518E+03 -0.15804123985E+02  0.14833667409E+03  0.00000000000E+00 0.  1.
</event>
<event>
12    1  0.1565987E-001  0.3319815E+03  0.7818608E-02  0.1070414E+00
         21   -1    0    0  503  502  0.00000000000E+00  0.00000000000E+00  0.63356412503E+03  0.63356412503E+03  0.00000000000E+00 0. -1.
         21   -1    0    0  501  503 -0.00000000000E+00 -0.00000000000E+00 -0.20417685332E+03  0.20417685332E+03  0.00000000000E+00 0.  1.
          6    2    1    2  501    0  0.53939989030E+02 -0.27739773106E+03  0.37737182022E+03  0.50170924139E+03  0.17159151663E+03 0.  0.
         24    2    3    3    0    0  0.14211533634E+02 -0.82862564925E+02  0.71096428234E+02  0.13667638428E+03  0.80978759911E+02 0.  0.
         -6    2    1    2    0  502 -0.53939989030E+02  0.27739773106E+03  0.52015451491E+02  0.33603173696E+03  0.17422025553E+03 0.  0.
        -24    2    5    5    0    0 -0.36105917307E+00  0.18345355862E+03  0.92489113885E+02  0.22046177284E+03  0.79961356672E+02 0.  0.
          5    1    3    3  501    0  0.39728455396E+02 -0.19453516614E+03  0.30627539199E+03  0.36503285711E+03  0.47000000000E+01 0. -1.
        -11    1    4    4    0    0  0.43610918745E+02 -0.41173898834E+02  0.59247739379E+02  0.84305971322E+02  0.00000000000E+00 0.  1.
         12    1    4    4    0    0 -0.29399385110E+02 -0.41688666091E+02  0.11848688854E+02  0.52370412953E+02  0.00000000000E+00 0. -1.
         -5    1    5    5    0  502 -0.53578929857E+02  0.93944172444E+02 -0.40473662395E+02  0.11556996413E+03  0.47000000000E+01 0.  1.
         13    1    6    6    0    0 -0.39916160572E+02  0.82495972253E+02  0.39972923604E+02  0.99983598326E+02  0.00000000000E+00 0. -1.
        -14    1    6    6    0    0  0.39555101398E+02  0.10095758637E+03  0.52516190281E+02  0.12047817451E+03  0.00000000000E+00 0.  1.
</event>
<event>
12    1  0.1565987E-001  0.1909514E+03  0.7818608E-02  0.1157658E+00
         21   -1    0    0  501  502  0.00000000000E+00  0.00000000000E+00  0.78805284784E+02  0.78805284784E+02  0.00000000000E+00 0.  1.
         21   -1    0    0  502  503 -0.00000000000E+00 -0.00000000000E+00 -0.83041024140E+03  0.83041024140E+03  0.00000000000E+00 0.  1.
         -6    2    1    2    0  503  0.25112598155E+02  0.79746398882E+02 -0.67868027943E+03  0.70503146966E+03  0.17167504421E+03 0.  0.
        -24    2    3    3    0    0  0.46832637404E+02  0.56478588495E+01 -0.20464122699E+03  0.22472170818E+03  0.79978872869E+02 0.  0.
          6    2    1    2  501    0 -0.25112598155E+02 -0.79746398882E+02 -0.72924677187E+02  0.20418405652E+03  0.17141467170E+03 0.  0.
         24    2    5    5    0    0  0.74510483745E+01 -0.11670899173E+03 -0.44094959208E+02  0.14691393356E+03  0.77219373047E+02 0.  0.
          5    1    5    5  501    0 -0.32563646530E+02  0.36962592850E+02 -0.28829717979E+02  0.57270122963E+02  0.47000000000E+01 0. -1.
        -11    1    6    6    0    0  0.78455201357E+01 -0.76416683043E+02  0.12100058865E+02  0.77765500435E+02  0.00000000000E+00 0.  1.
         12    1    6    6    0    0 -0.39447176119E+00 -0.40292308689E+02 -0.56195018073E+02  0.69148433125E+02  0.00000000000E+00 0. -1.
         -5    1    3    3    0  503 -0.21720039249E+02  0.74098540032E+02 -0.47403905244E+03  0.48030976148E+03  0.47000000000E+01 0.  1.
         11    1    4    4    0    0 -0.25527580133E+01 -0.29517720038E+02 -0.44231589080E+02  0.53237635581E+02  0.00000000000E+00 0. -1.
        -12    1    4    4    0    0  0.49385395417E+02  0.35165578888E+02 -0.16040963791E+03  0.17148407260E+03  0.00000000000E+00 0.  1.
</event>
<event>
12    1  0.1565987E-001  0.2126112E+03  0.7818608E-02  0.1139880E+00
         21   -1    0    0  501  502  0.00000000000E+00  0.00000000000E+00  0.23318500699E+03  0.23318500699E+03  0.00000000000E+00 0. -1.
         21   -1    0    0  502  503 -0.00000000000E+00 -0.00000000000E+00 -0.27624176499E+03  0.27624176499E+03  0.00000000000E+00 0. -1.
         -6    2    1    2    0  503  0.10876839595E+03 -0.55829436984E+02 -0.16212424010E+03  0.26737204526E+03  0.17394266690E+03 0.  0.
        -24    2    3    3    0    0  0.92552250586E+02 -0.62871888519E+02 -0.39277981479E+02  0.14317118878E+03  0.80227401884E+02 0.  0.
          6    2    1    2  501    0 -0.10876839595E+03  0.55829436984E+02  0.11906748210E+03  0.24205472672E+03  0.17165644596E+03 0.  0.
         24    2    5    5    0    0 -0.12097373721E+02  0.76180846121E+02  0.77473401604E+02  0.13476249063E+03  0.78796783927E+02 0.  0.
          5    1    5    5  501    0 -0.96671022232E+02 -0.20351409136E+02  0.41594080498E+02  0.10729223609E+03  0.47000000000E+01 0. -1.
        -13    1    6    6    0    0  0.32301980116E+02  0.47354849062E+02  0.41088131466E+02  0.70527542113E+02  0.00000000000E+00 0.  1.
         14    1    6    6    0    0 -0.44399353837E+02  0.28825997059E+02  0.36385270138E+02  0.64234948514E+02  0.00000000000E+00 0. -1.
         -5    1    3    3    0  503  0.16216145367E+02  0.70424515341E+01 -0.12284625862E+03  0.12420085649E+03  0.47000000000E+01 0.  1.
         13    1    4    4    0    0  0.95956391276E+02 -0.53690697512E+02 -0.56301717726E+02  0.12353219599E+03  0.00000000000E+00 0. -1.
        -14    1    4    4    0    0 -0.34041406908E+01 -0.91811910061E+01  0.17023736247E+02  0.19638992794E+02  0.00000000000E+00 0.  1.
</event>
<event>
12    1  0.1565987E-001  0.1728594E+03  0.7818608E-02  0.1175085E+00
         21   -1    0    0  501  502  0.00000000000E+00  0.00000000000E+00  0.59070586610E+03  0.59070586610E+03  0.00000000000E+00 0. -1.
         21   -1    0    0  502  503 -0.00000000000E+00 -0.00000000000E+00 -0.56962782821E+02  0.56962782821E+02  0.00000000000E+00 0. -1.
         -6    2    1    2    0  503  0.14233944847E+02 -0.49927865184E+01  0.15720490459E+03  0.23365304490E+03  0.17219997173E+03 0.  0.
        -24    2    3    3    0    0  0.10443060072E+02  0.72230746598E+01  0.42074103504E+01  0.80049915655E+02  0.78924371289E+02 0.  0.
          6    2    1    2  501    0 -0.14233944847E+02  0.49927865184E+01  0.37653817869E+03  0.41401560402E+03  0.17146541125E+03 0.  0.
         24    2    5    5    0    0 -0.11585179815E+02  0.88896642426E+01  0.39039113063E+03  0.39864693819E+03  0.79378233391E+02 0.  0.
          5    1    5    5  501    0 -0.26487650322E+01 -0.38968777242E+01 -0.13852951931E+02  0.15368665830E+02  0.47000000000E+01 0. -1.
        -13    1    6    6    0    0 -0.51812482396E+01  0.34317812420E+02  0.80688144381E+02  0.87835836799E+02  0.00000000000E+00 0.  1.
         14    1    6    6    0    0 -0.64039315757E+01 -0.25428148178E+02  0.30970298625E+03  0.31081110139E+03  0.00000000000E+00 0. -1.
         -5    1    3    3    0  503  0.37908847750E+01 -0.12215861178E+02  0.15299749424E+03  0.15360312925E+03  0.47000000000E+01 0.  1.
         13    1    4    4    0    0  0.25522920135E+02  0.25182728848E+02  0.28858414516E+02  0.46026051024E+02  0.00000000000E+00 0. -1.
        -14    1    4    4    0    0 -0.15079860062E+02 -0.17959654188E+02 -0.24651004166E+02  0.34023864631E+02  0.00000000000E+00 0.  1.
</event>
<event>
12    1  0.1565987E-001  0.1930535E+03  0.7818608E-02  0.1156117E+00
         21   -1    0    0  503  502  0.00000000000E+00  0.00000000000E+00  0.24226568044E+02  0.24226568044E+02  0.00000000000E+00 0.  1.
         21   -1    0    0  501  503 -0.00000000000E+00 -0.00000000000E+00 -0.15452207835E+04  0.15452207835E+04  0.00000000000E+00 0.  1.
          6    2    1    2  501    0  0.53499440899E+02  0.64454381206E+02 -0.67346466326E+03  0.70058854814E+03  0.17393419355E+03 0.  0.
         24    2    3    3    0    0  0.76420102182E+02  0.96856740361E+02 -0.44540766399E+03  0.46905592730E+03  0.80026343336E+02 0.  0.
         -6    2    1    2    0  502 -0.53499440899E+02 -0.64454381206E+02 -0.84752955215E+03  0.86885880336E+03  0.17202534982E+03 0.  0.
        -24    2    5    5    0    0 -0.66102480332E+02  0.16830556213E+02 -0.44490928616E+03  0.45789500175E+03  0.84087776664E+02 0.  0.
          5    1    3    3  501    0 -0.22920661283E+02 -0.32402359155E+02 -0.22805699928E+03  0.23153262084E+03  0.47000000000E+01 0. -1.
        -13    1    4    4    0    0  0.75899996720E+02  0.46528430244E+02 -0.35048619991E+03  0.36161620629E+03  0.00000000000E+00 0.  1.
         14    1    4    4    0    0  0.52010546132E+00  0.50328310117E+02 -0.94921464078E+02  0.10743972101E+03  0.00000000000E+00 0. -1.
         -5    1    5    5    0  502  0.12603039433E+02 -0.81284937418E+02 -0.40262026599E+03  0.41096380162E+03  0.47000000000E+01 0.  1.
         13    1    6    6    0    0 -0.45805845360E+02  0.23410881184E+01 -0.42051798888E+03  0.42301186170E+03  0.00000000000E+00 0. -1.
        -14    1    6    6    0    0 -0.20296634972E+02  0.14489468094E+02 -0.24391297279E+02  0.34883140050E+02  0.00000000000E+00 0.  1.
</event>
<event>
12    1  0.1565987E-001  0.2028709E+03  0.7818608E-02  0.1147748E+00
         21   -1    0    0  501  502  0.00000000000E+00  0.00000000000E+00  0.13007253526E+03  0.13007253526E+03  0.00000000000E+00 0.  1.
         21   -1    0    0  502  503 -0.00000000000E+00 -0.00000000000E+00 -0.32501315505E+03  0.32501315505E+03  0.00000000000E+00 0.  1.
         -6    2    1    2    0  503  0.81052337856E+02 -0.61676404063E+02 -0.14102080530E+03  0.24706977021E+03  0.17545125686E+03 0.  0.
        -24    2    3    3    0    0  0.71194202579E+02  0.28628712146E+02 -0.81468679629E+02  0.13834653205E+03  0.81328958740E+02 0.  0.
          6    2    1    2  501    0 -0.81052337856E+02  0.61676404063E+02 -0.53919814494E+02  0.20801592010E+03  0.17317568054E+03 0.  0.
         24    2    5    5    0    0 -0.76185965864E+02 -0.26716672550E+02 -0.40496318753E+02  0.11835378870E+03  0.76482582860E+02 0.  0.
          5    1    5    5  501    0 -0.48663719920E+01  0.88393076613E+02 -0.13423495742E+02  0.89662131401E+02  0.47000000000E+01 0. -1.
        -11    1    6    6    0    0 -0.58912428477E+02  0.16327198562E+02 -0.78482676708E+01  0.61634786828E+02  0.00000000000E+00 0.  1.
         12    1    6    6    0    0 -0.17273537387E+02 -0.43043871112E+02 -0.32648051082E+02  0.56719001875E+02  0.00000000000E+00 0. -1.
         -5    1    3    3    0  503  0.98581352766E+01 -0.90305116209E+02 -0.59552125666E+02  0.10872323816E+03  0.47000000000E+01 0.  1.
         13    1    4    4    0    0  0.53656983641E+01  0.37221498644E+02 -0.55543756465E+02  0.67077116534E+02  0.00000000000E+00 0. -1.
        -14    1    4    4    0    0  0.65828504215E+02 -0.85927864976E+01 -0.25924923164E+02  0.71269415516E+02  0.00000000000E+00 0.  1.
</event>
<event>
12    1  0.1565987E-001  0.2325252E+03  0.7818608E-02  0.1125106E+00
         21   -1    0    0  503  502  0.00000000000E+00  0.00000000000E+00  0.38470595410E+03  0.38470595410E+03  0.00000000000E+00 0. -1.
         21   -1    0    0  501  503 -0.00000000000E+00 -0.00000000000E+00 -0.73028619353E+03  0.73028619353E+03  0.00000000000E+00 0. -1.
          6    2    1    2  501    0 -0.12775855552E+03  0.89929171970E+02 -0.67421085995E+03  0.71318178169E+03  0.17221633364E+03 0.  0.
         24    2    3    3    0    0 -0.14813281909E+03  0.32578943223E+02 -0.51802367781E+03  0.54548954806E+03  0.78775609401E+02 0.  0.
         -6    2    1    2    0  502  0.12775855552E+03 -0.89929171970E+02  0.32863062052E+03  0.40181036595E+03  0.17042294729E+03 0.  0.
        -24    2    5    5    0    0  0.13821843904E+03 -0.88330345753E+02  0.33984123177E+03  0.38569412528E+03  0.79757812110E+02 0.  0.
          5    1    3    3  501    0  0.20374263569E+02  0.57350228746E+02 -0.15618718214E+03  0.16769223362E+03  0.47000000000E+01 0. -1.
        -13    1    4    4    0    0  0.91498443921E+01 -0.10528702858E+01 -0.43003187613E+02  0.43978430317E+02  0.00000000000E+00 0.  1.
         14    1    4    4    0    0 -0.15728266348E+03  0.33631813509E+02 -0.47502049020E+03  0.50151111775E+03  0.00000000000E+00 0. -1.
         -5    1    5    5    0  502 -0.10459883522E+02 -0.15988262161E+01 -0.11210611253E+02  0.16116240667E+02  0.47000000000E+01 0.  1.
         11    1    6    6    0    0  0.28747666849E+02 -0.62737383288E+02  0.14890302935E+03  0.16411739628E+03  0.00000000000E+00 0. -1.
        -12    1    6    6    0    0  0.10947077220E+03 -0.25592962465E+02  0.19093820242E+03  0.22157672900E+03  0.00000000000E+00 0.  1.
</event>
<event>
12    1  0.1565987E-001  0.1999907E+03  0.7818608E-02  0.1150807E+00
         21   -1    0    0  501  502  0.00000000000E+00  0.00000000000E+00  0.86380876052E+02  0.86380876052E+02  0.00000000000E+00 0.  1.
         21   -1    0    0  502  503 -0.00000000000E+00 -0.00000000000E+00 -0.57458992188E+03  0.57458992188E+03  0.00000000000E+00 0.  1.
         -6    2    1    2    0  503 -0.15609010407E+02  0.10197032471E+03 -0.39939595371E+03  0.44666924308E+03  0.17133212350E+03 0.  0.
        -24    2    3    3    0    0  0.40661270387E+02  0.77077722466E+02 -0.15614138103E+03  0.19570935928E+03  0.79546893269E+02 0.  0.
          6    2    1    2  501    0  0.15609010407E+02 -0.10197032471E+03 -0.88813092124E+02  0.21430155486E+03  0.16551677485E+03 0.  0.
         24    2    5    5    0    0 -0.21928561074E+02 -0.12555074204E+03 -0.66336393234E+02  0.16437763928E+03  0.79847608679E+02 0.  0.
          5    1    5    5  501    0  0.37537571481E+02  0.23580417324E+02 -0.22476698891E+02  0.49923915580E+02  0.47000000000E+01 0. -1.
        -13    1    6    6    0    0  0.29123994095E+02 -0.46351375021E+02 -0.35445746578E+02  0.65215473232E+02  0.00000000000E+00 0.  1.
         14    1    6    6    0    0 -0.51052555168E+02 -0.79199367015E+02 -0.30890646656E+02  0.99162166049E+02  0.00000000000E+00 0. -1.
         -5    1    3    3    0  503 -0.56270280795E+02  0.24892602247E+02 -0.24325457268E+03  0.25095988380E+03  0.47000000000E+01 0.  1.
         11    1    4    4    0    0  0.39885545200E+02  0.15873256849E+02 -0.11284630343E+03  0.12073568319E+03  0.00000000000E+00 0. -1.
        -12    1    4    4    0    0  0.77572518719E+00  0.61204465617E+02 -0.43295077606E+02  0.74973676087E+02  0.00000000000E+00 0.  1.
</event>
<event>
12    1  0.1565987E-001  0.1840658E+03  0.7818608E-02  0.1164698E+00
         21   -1    0    0  501  502  0.00000000000E+00  0.00000000000E+00  0.17416951521E+03  0.17416951521E+03  0.00000000000E+00 0. -1.
         21   -1    0    0  502  503 -0.00000000000E+00 -0.00000000000E+00 -0.20504493679E+03  0.20504493679E+03  0.00000000000E+00 0. -1.
         -6    2    1    2    0  503 -0.44193572524E+02  0.37369704231E+02 -0.65017106635E+02  0.19521129515E+03  0.17473024625E+03 0.  0.
        -24    2    3    3    0    0 -0.13679172969E+02  0.29095060631E+02 -0.11008167651E+03  0.13996182670E+03  0.80235248508E+02 0.  0.
          6    2    1    2  501    0  0.44193572524E+02 -0.37369704231E+02  0.34141685048E+02  0.18400315685E+03  0.17129489317E+03 0.  0.
         24    2    5    5    0    0  0.99509646225E+02 -0.28984139822E+02  0.14785160575E+02  0.12461502049E+03  0.67587367949E+02 0.  0.
          5    1    5    5  501    0 -0.55316073702E+02 -0.83855644090E+01  0.19356524473E+02  0.59388136357E+02  0.47000000000E+01 0. -1.
        -13    1    6    6    0    0  0.13986888615E+02 -0.34391920893E+02 -0.24399822445E+01  0.37207402344E+02  0.00000000000E+00 0.  1.
         14    1    6    6    0    0  0.85522757610E+02  0.54077810717E+01  0.17225142820E+02  0.87407618149E+02  0.00000000000E+00 0. -1.
         -5    1    3    3    0  503 -0.30514399555E+02  0.82746436000E+01  0.45064569872E+02  0.55249468456E+02  0.47000000000E+01 0.  1.
         11    1    4    4    0    0 -0.39415944400E+02 -0.12166199995E+01 -0.82881560368E+02  0.91784802044E+02  0.00000000000E+00 0. -1.
        -12    1    4    4    0    0  0.25736771431E+02  0.30311680630E+02 -0.27200116139E+02  0.48177024652E+02  0.00000000000E+00 0.  1.
</event>
<event>
12    1  0.1565987E-001  0.2092454E+03  0.7818608E-02  0.1142175E+00
         21   -1    0    0  501  502  0.00000000000E+00  0.00000000000E+00  0.27366429360E+03  0.27366429360E+03  0.00000000000E+00 0. -1.
         21   -1    0    0  502  503 -0.00000000000E+00 -0.00000000000E+00 -0.25473189421E+03  0.25473189421E+03  0.00000000000E+00 0.  1.
         -6    2    1    2    0  503  0.11382709171E+03 -0.35101770917E+02 -0.15168916590E+03  0.25844385266E+03  0.17203162732E+03 0.  0.
        -24    2    3    3    0    0  0.49552059759E+02 -0.77925625665E+02 -0.50663259939E+02  0.13119022426E+03  0.78206772540E+02 0.  0.
          6    2    1    2  501    0 -0.11382709171E+03  0.35101770917E+02  0.17062156529E+03  0.26995233515E+03  0.17197035670E+03 0.  0.
         24    2    5    5    0    0 -0.51322074944E+02 -0.34813583853E+02  0.13794894342E+03  0.17053088790E+03  0.78771389092E+02 0.  0.
          5    1    5    5  501    0 -0.62505016763E+02  0.69915354769E+02  0.32672621863E+02  0.99421447246E+02  0.47000000000E+01 0. -1.
        -11    1    6    6    0    0  0.16870374621E+02  0.62826725440E+01  0.12381747911E+02  0.21849237869E+02  0.00000000000E+00 0.  1.
         12    1    6    6    0    0 -0.68192449565E+02 -0.41096256397E+02  0.12556719551E+03  0.14868165003E+03  0.00000000000E+00 0. -1.
         -5    1    3    3    0  503  0.64275031948E+02  0.42823854748E+02 -0.10102590596E+03  0.12725362841E+03  0.47000000000E+01 0.  1.
         11    1    4    4    0    0  0.30410768347E+01  0.10151474874E+02 -0.26726692903E+02  0.28750942662E+02  0.00000000000E+00 0. -1.
        -12    1    4    4    0    0  0.46510982925E+02 -0.88077100539E+02 -0.23936567036E+02  0.10243928159E+03  0.00000000000E+00 0.  1.
</event>
<event>
12    1  0.1565987E-001  0.2017763E+03  0.7818608E-02  0.1148298E+00
         21   -1    0    0  501  502  0.00000000000E+00  0.00000000000E+00  0.33379653066E+03  0.33379653066E+03  0.00000000000E+00 0.  1.
         21   -1    0    0  502  503 -0.00000000000E+00 -0.00000000000E+00 -0.16627458409E+03  0.16627458409E+03  0.00000000000E+00 0.  1.
         -6    2    1    2    0  503  0.92853422212E+02 -0.51296391534E+02 -0.45547611661E+02  0.20662209192E+03  0.17136226580E+03 0.  0.
        -24    2    3    3    0    0  0.84181241702E+02  0.28561587358E+02 -0.29020275242E+02  0.12447742468E+03  0.82159644307E+02 0.  0.
          6    2    1    2  501    0 -0.92853422212E+02  0.51296391534E+02  0.21306955824E+03  0.29344902283E+03  0.17164094660E+03 0.  0.
         24    2    5    5    0    0 -0.12712264418E+03  0.26378307458E+02  0.13202467081E+03  0.20187580477E+03  0.80419805271E+02 0.  0.
          5    1    5    5  501    0  0.34269221969E+02  0.24918084076E+02  0.81044887424E+02  0.91573218060E+02  0.47000000000E+01 0. -1.
        -11    1    6    6    0    0 -0.84592481957E+02  0.51106230052E+02  0.11028670992E+03  0.14809082733E+03  0.00000000000E+00 0.  1.
         12    1    6    6    0    0 -0.42530162223E+02 -0.24727922595E+02  0.21737960897E+02  0.53784977443E+02  0.00000000000E+00 0. -1.
         -5    1    3    3    0  503  0.86721805096E+01 -0.79857978892E+02 -0.16527336419E+02  0.82144667244E+02  0.47000000000E+01 0.  1.
         13    1    4    4    0    0 -0.10244736419E+02 -0.11887526570E+02  0.46632149007E+01  0.16371117416E+02  0.00000000000E+00 0. -1.
        -14    1    4    4    0    0  0.94425978121E+02  0.40449113928E+02 -0.33683490143E+02  0.10810630726E+03  0.00000000000E+00 0.  1.
</event>
<event>
12    1  0.1565987E-001  0.2089147E+03  0.7818608E-02  0.1142591E+00
         21   -1    0    0  501  502  0.00000000000E+00  0.00000000000E+00  0.10580334400E+03  0.10580334400E+03  0.00000000000E+00 0. -1.
         21   -1    0    0  502  503 -0.00000000000E+00 -0.00000000000E+00 -0.41518045901E+03  0.41518045901E+03  0.00000000000E+00 0. -1.
         -6    2    1    2    0  503 -0.52015429052E+02 -0.10706864684E+03 -0.18140089818E+03  0.27667968890E+03  0.17168594699E+03 0.  0.
        -24    2    3    3    0    0 -0.22314359442E+01 -0.49094480780E+02 -0.17222522191E+03  0.19957111003E+03  0.88044611114E+02 0.  0.
          6    2    1    2  501    0  0.52015429052E+02  0.10706864684E+03 -0.12797621684E+03  0.24430411412E+03  0.17069647947E+03 0.  0.
         24    2    5    5    0    0  0.89134436850E+01 -0.87133160216E+01 -0.65947037515E+02  0.10598219556E+03  0.82023427530E+02 0.  0.
          5    1    5    5  501    0  0.43101985367E+02  0.11578196286E+03 -0.62029179325E+02  0.13832191856E+03  0.47000000000E+01 0. -1.
        -13    1    6    6    0    0  0.19757385268E+02 -0.14712779550E+02  0.11757383825E+02  0.27295718146E+02  0.00000000000E+00 0.  1.
         14    1    6    6    0    0 -0.10843941583E+02  0.59994635285E+01 -0.77704421340E+02  0.78686477412E+02  0.00000000000E+00 0. -1.
         -5    1    3    3    0  503 -0.49783993108E+02 -0.57974166059E+02 -0.91756762646E+01  0.77108578867E+02  0.47000000000E+01 0.  1.
         11    1    4    4    0    0 -0.28206363098E+02 -0.64518478961E+02 -0.11450176657E+03  0.13442056239E+03  0.00000000000E+00 0. -1.
        -12    1    4    4    0    0  0.25974927154E+02  0.15423998181E+02 -0.57723455340E+02  0.65150547633E+02  0.00000000000E+00 0.  1.
</event>
<event>
12    1  0.1565987E-001  0.1811927E+03  0.7818608E-02  0.1168563E+00
         21   -1    0    0  503  502  0.00000000000E+00  0.00000000000E+00  0.75246521954E+03  0.75246521954E+03  0.00000000000E+00 0.  1.
         21   -1    0    0  501  503 -0.00000000000E+00 -0.00000000000E+00 -0.42164579417E+02  0.42164579417E+02  0.00000000000E+00 0.  1.
          6    2    1    2  501    0  0.22250240518E+02  0.14852520388E+02  0.40083591199E+03  0.43988658857E+03  0.17920689691E+03 0.  0.
         24    2    3    3    0    0 -0.30194955976E+02 -0.39223333762E+02  0.14760961865E+03  0.17565119678E+03  0.81329810858E+02 0.  0.
         -6    2    1    2    0  502 -0.22250240518E+02 -0.14852520388E+02  0.30946472813E+03  0.35474321038E+03  0.17134368033E+03 0.  0.
        -24    2    5    5    0    0 -0.17960613210E+02  0.40842251557E+01  0.32133609043E+03  0.33150486972E+03  0.79368325611E+02 0.  0.
          5    1    3    3  501    0  0.52445196495E+02  0.54075854149E+02  0.25322629334E+03  0.26423539179E+03  0.47000000000E+01 0. -1.
        -13    1    4    4    0    0  0.47390789291E+01 -0.66909144136E+01 -0.88541292851E+01  0.12067427654E+02  0.00000000000E+00 0.  1.
         14    1    4    4    0    0 -0.34934034905E+02 -0.32532419348E+02  0.15646374794E+03  0.16358376913E+03  0.00000000000E+00 0. -1.
         -5    1    5    5    0  502 -0.42896273088E+01 -0.18936745544E+02 -0.11871362297E+02  0.23238340668E+02  0.47000000000E+01 0.  1.
         11    1    6    6    0    0 -0.64604681351E+00  0.32309466641E+02  0.60632062605E+02  0.68706375445E+02  0.00000000000E+00 0. -1.
        -12    1    6    6    0    0 -0.17314566396E+02 -0.28225241485E+02  0.26070402783E+03  0.26279849427E+03  0.00000000000E+00 0.  1.
</event>
<event>
12    1  0.1565987E-001  0.1777299E+03  0.7818608E-02  0.1170265E+00
         21   -1    0    0  503  502  0.00000000000E+00  0.00000000000E+00  0.77867887734E+03  0.77867887734E+03  0.00000000000E+00 0.  1.
         21   -1    0    0  501  503 -0.00000000000E+00 -0.00000000000E+00 -0.12764908899E+03  0.12764908899E+03  0.00000000000E+00 0.  1.
          6    2    1    2  501    0  0.14776617073E+02  0.32458476114E+02 -0.49559989083E+02  0.18354587206E+03  0.17309244220E+03 0.  0.
         24    2    3    3    0    0  0.39638395839E+02  0.59630190495E+02 -0.81874504239E+02  0.13432465716E+03  0.78820790624E+02 0.  0.
         -6    2    1    2    0  502 -0.14776617073E+02 -0.32458476114E+02  0.70058977744E+03  0.72278209427E+03  0.17411495760E+03 0.  0.
        -24    2    5    5    0    0 -0.60785734618E+02 -0.63343078242E+02  0.41316471075E+03  0.43002629756E+03  0.80686351325E+02 0.  0.
          5    1    3    3  501    0 -0.24861778767E+02 -0.27171714380E+02  0.32314515156E+02  0.49221214893E+02  0.47000000000E+01 0. -1.
        -13    1    4    4    0    0  0.35123907125E+02  0.53855296346E+02 -0.13678322931E+02  0.65735670031E+02  0.00000000000E+00 0.  1.
         14    1    4    4    0    0  0.45144887146E+01  0.57748941484E+01 -0.68196181309E+02  0.68588987132E+02  0.00000000000E+00 0. -1.
         -5    1    5    5    0  502  0.46009117546E+02  0.30884602128E+02  0.28742506669E+03  0.29275579672E+03  0.47000000000E+01 0.  1.
         11    1    6    6    0    0 -0.64171991715E+02 -0.29218750717E+02  0.16403599476E+03  0.17854855780E+03  0.00000000000E+00 0. -1.
        -12    1    6    6    0    0  0.33862570968E+01 -0.34124327525E+02  0.24912871599E+03  0.25147773976E+03  0.00000000000E+00 0.  1.
</event>
<event>
12    1  0.1565987E-001  0.1955654E+03  0.7818608E-02  0.1154045E+00
         21   -1    0    0  503  502  0.00000000000E+00  0.00000000000E+00  0.25986758432E+03  0.25986758432E+03  0.00000000000E+00 0. -1.
         21   -1    0    0  501  503 -0.00000000000E+00 -0.00000000000E+00 -0.57028742671E+03  0.57028742671E+03  0.00000000000E+00 0. -1.
          6    2    1    2  501    0 -0.53989551777E+01  0.88576766495E+02 -0.51371162913E+03  0.54967761553E+03  0.17427234673E+03 0.  0.
         24    2    3    3    0    0 -0.19113756697E+02  0.12618849190E+03 -0.43399983098E+03  0.46035349542E+03  0.85326527369E+02 0.  0.
         -6    2    1    2    0  502  0.53989551777E+01 -0.88576766495E+02  0.20329178674E+03  0.28047739550E+03  0.17165379852E+03 0.  0.
        -24    2    5    5    0    0  0.61306218258E+02 -0.52722753542E+02  0.17410367367E+03  0.20777823281E+03  0.79508261883E+02 0.  0.
          5    1    3    3  501    0  0.13714801519E+02 -0.37611725409E+02 -0.79711798151E+02  0.89324120110E+02  0.47000000000E+01 0. -1.
        -13    1    4    4    0    0 -0.34531796303E+02  0.16468476594E+02 -0.16603468556E+03  0.17038536465E+03  0.00000000000E+00 0.  1.
         14    1    4    4    0    0  0.15418039606E+02  0.10972001531E+03 -0.26796514542E+03  0.28996813078E+03  0.00000000000E+00 0. -1.
         -5    1    5    5    0  502 -0.55907263080E+02 -0.35854012953E+02  0.29188113075E+02  0.72699162683E+02  0.47000000000E+01 0.  1.
         11    1    6    6    0    0  0.10737847476E+02 -0.58991168061E+02  0.11537332857E+03  0.13002409093E+03  0.00000000000E+00 0. -1.
        -12    1    6    6    0    0  0.50568370781E+02  0.62684145197E+01  0.58730345103E+02  0.77754141883E+02  0.00000000000E+00 0.  1.
</event>
<event>
12    1  0.1565987E-001  0.1989736E+03  0.7818608E-02  0.1150749E+00
         21   -1    0    0  501  502  0.00000000000E+00  0.00000000000E+00  0.12480684080E+03  0.12480684080E+03  0.00000000000E+00 0. -1.
         21   -1    0    0  502  503 -0.00000000000E+00 -0.00000000000E+00 -0.31620032809E+03  0.31620032809E+03  0.00000000000E+00 0. -1.
         -6    2    1    2    0  503  0.99334427189E+02  0.17314333823E+01 -0.98524525999E+02  0.22203053167E+03  0.17239532617E+03 0.  0.
        -24    2    3    3    0    0  0.13091128151E+03 -0.13715725415E+02 -0.10415393113E+03  0.18612102533E+03  0.80418343357E+02 0.  0.
          6    2    1    2  501    0 -0.99334427189E+02 -0.17314333823E+01 -0.92868961294E+02  0.21897663721E+03  0.17162691335E+03 0.  0.
         24    2    5    5    0    0 -0.39069573748E+02 -0.31081022246E+02  0.10948660470E+02  0.95309990475E+02  0.80446625670E+02 0.  0.
          5    1    5    5  501    0 -0.60264853441E+02  0.29349588863E+02 -0.10381762176E+03  0.12366664674E+03  0.47000000000E+01 0. -1.
        -11    1    6    6    0    0  0.21390889489E+02 -0.10304490803E+02  0.19610908524E+02  0.30795136255E+02  0.00000000000E+00 0.  1.
         12    1    6    6    0    0 -0.60460463237E+02 -0.20776531442E+02 -0.86622480540E+01  0.64514854220E+02  0.00000000000E+00 0. -1.
         -5    1    3    3    0  503 -0.31576854322E+02  0.15447158797E+02  0.56294051326E+01  0.35909506344E+02  0.47000000000E+01 0.  1.
         11    1    4    4    0    0  0.13062370372E+03 -0.30819757685E+02 -0.10261689601E+03  0.16894566222E+03  0.00000000000E+00 0. -1.
        -12    1    4    4    0    0  0.28757779264E+00  0.17104032270E+02 -0.15370351234E+01  0.17175363107E+02  0.00000000000E+00 0.  1.
</event>
<event>
12    1  0.1565987E-001  0.1976623E+03  0.7818608E-02  0.1152875E+00
         21   -1    0    0  503  502  0.00000000000E+00  0.00000000000E+00  0.25534623922E+03  0.25534623922E+03  0.00000000000E+00 0.  1.
         21   -1    0    0  501  503 -0.00000000000E+00 -0.00000000000E+00 -0.15193460742E+03  0.15193460742E+03  0.00000000000E+00 0.  1.
          6    2    1    2  501    0 -0.77124463206E+02  0.38419490960E+02  0.22451425226E+02  0.19368089434E+03  0.17199994833E+03 0.  0.
         24    2    3    3    0    0 -0.71024325927E+02  0.73777713215E+02 -0.26548407336E+02  0.13276710980E+03  0.80216467578E+02 0.  0.
         -6    2    1    2    0  502  0.77124463206E+02 -0.38419490960E+02  0.80960206574E+02  0.21359995230E+03  0.17789363244E+03 0.  0.
        -24    2    5    5    0    0  0.11491707171E+03 -0.60300550304E+02  0.67089214877E+02  0.16753959596E+03  0.82015021336E+02 0.  0.
          5    1    3    3  501    0 -0.61001372795E+01 -0.35358222256E+02  0.48999832562E+02  0.60913784540E+02  0.47000000000E+01 0. -1.
        -13    1    4    4    0    0 -0.17607694764E+02  0.74408583969E+02 -0.19259894296E+02  0.78851834548E+02  0.00000000000E+00 0.  1.
         14    1    4    4    0    0 -0.53416631163E+02 -0.63087075389E+00 -0.72885130399E+01  0.53915275248E+02  0.00000000000E+00 0. -1.
         -5    1    5    5    0  502 -0.37792608501E+02  0.21881059345E+02  0.13870991697E+02  0.46060356338E+02  0.47000000000E+01 0.  1.
         11    1    6    6    0    0  0.64040330101E+02 -0.40279781584E+01 -0.30259448417E+01  0.64238188250E+02  0.00000000000E+00 0. -1.
        -12    1    6    6    0    0  0.50876741606E+02 -0.56272572146E+02  0.70115159719E+02  0.10330140771E+03  0.00000000000E+00 0.  1.
</event>
<event>
12    1  0.1565987E-001  0.2542827E+03  0.7818608E-02  0.1110730E+00
         21   -1    0    0  503  502  0.00000000000E+00  0.00000000000E+00  0.22164753021E+03  0.22164753021E+03  0.00000000000E+00 0. -1.
         21   -1    0    0  501  503 -0.00000000000E+00 -0.00000000000E+00 -0.29471115759E+03  0.29471115759E+03  0.00000000000E+00 0.  1.
          6    2    1    2  501    0 -0.16225293631E+03 -0.93793890601E+02 -0.65579382202E+02  0.26196583086E+03  0.17088631283E+03 0.  0.
         24    2    3    3    0    0 -0.85636346596E+02 -0.93552602294E+02 -0.97674274676E+02  0.17876527700E+03  0.79568128496E+02 0.  0.
         -6    2    1    2    0  502  0.16225293631E+03  0.93793890601E+02 -0.74842451786E+01  0.25439285694E+03  0.17186157942E+03 0.  0.
        -24    2    5    5    0    0  0.14751770738E+03  0.93769919633E+02  0.46863671811E+02  0.19788698443E+03  0.80054875276E+02 0.  0.
          5    1    3    3  501    0 -0.76616589718E+02 -0.24128830692E+00  0.32094892474E+02  0.83200553862E+02  0.47000000000E+01 0. -1.
        -11    1    4    4    0    0 -0.25503117876E+01 -0.18885353268E+02 -0.56639802239E+02  0.59759751137E+02  0.00000000000E+00 0.  1.
         12    1    4    4    0    0 -0.83086034808E+02 -0.74667249027E+02 -0.41034472438E+02  0.11900552586E+03  0.00000000000E+00 0. -1.
         -5    1    5    5    0  502  0.14735228938E+02  0.23970968199E-01 -0.54347916989E+02  0.56505872505E+02  0.47000000000E+01 0.  1.
         13    1    6    6    0    0  0.34063978758E+02  0.21876334878E+02  0.48993482586E+02  0.63555408995E+02  0.00000000000E+00 0. -1.
        -14    1    6    6    0    0  0.11345372862E+03  0.71893584755E+02 -0.21298107754E+01  0.13433157544E+03  0.00000000000E+00 0.  1.
</event>
<event>
12    1  0.1565987E-001  0.1881577E+03  0.7818608E-02  0.1160634E+00
         21   -1    0    0  503  502  0.00000000000E+00  0.00000000000E+00  0.50867853260E+03  0.50867853260E+03  0.00000000000E+00 0.  1.
         21   -1    0    0  501  503 -0.00000000000E+00 -0.00000000000E+00 -0.12651068490E+03  0.12651068490E+03  0.00000000000E+00 0.  1.
          6    2    1    2  501    0  0.49069321101E+02  0.51467566949E+02 -0.24033832341E+02  0.18752515887E+03  0.17184688356E+03 0.  0.
         24    2    3    3    0    0  0.66167741128E+02  0.14500576328E+02 -0.64672159115E+02  0.12979754012E+03  0.89869219299E+02 0.  0.
         -6    2    1    2    0  502 -0.49069321101E+02 -0.51467566949E+02  0.40620168005E+03  0.44766405863E+03  0.17420274336E+03 0.  0.
        -24    2    5    5    0    0 -0.64422501187E+02 -0.52277758656E+02  0.41381023724E+03  0.42987763988E+03  0.81686290859E+02 0.  0.
          5    1    3    3  501    0 -0.17098420027E+02  0.36966990621E+02  0.40638326774E+02  0.57727618745E+02  0.47000000000E+01 0. -1.
        -11    1    4    4    0    0 -0.88288310805E+01  0.31230972305E+02 -0.57353840581E+01  0.32957799072E+02  0.00000000000E+00 0.  1.
         12    1    4    4    0    0  0.74996572208E+02 -0.16730395977E+02 -0.58936775057E+02  0.96839741050E+02  0.00000000000E+00 0. -1.
         -5    1    5    5    0  502  0.15353180086E+02  0.81019170663E+00 -0.76085571940E+01  0.17786418750E+02  0.47000000000E+01 0.  1.
         11    1    6    6    0    0  0.19726132569E+02 -0.10037642359E+02  0.87388265011E+02  0.90147564758E+02  0.00000000000E+00 0. -1.
        -12    1    6    6    0    0 -0.84148633756E+02 -0.42240116297E+02  0.32642197223E+03  0.33973007512E+03  0.00000000000E+00 0.  1.
</event>
<event>
12    1  0.1565987E-001  0.2190795E+03  0.7818608E-02  0.1134721E+00
         21   -1    0    0  503  502  0.00000000000E+00  0.00000000000E+00  0.44752771901E+03  0.44752771901E+03  0.00000000000E+00 0. -1.
         21   -1    0    0  501  503 -0.00000000000E+00 -0.00000000000E+00 -0.11027699108E+03  0.11027699108E+03  0.00000000000E+00 0. -1.
          6    2    1    2  501    0  0.11865119740E+03 -0.66607475818E+02  0.21805381685E+03  0.30910079371E+03  0.17170081872E+03 0.  0.
         24    2    3    3    0    0  0.46498428590E+02 -0.10135210232E+03  0.16249253566E+03  0.21151822823E+03  0.76823070896E+02 0.  0.
         -6    2    1    2    0  502 -0.11865119740E+03  0.66607475818E+02  0.11919691108E+03  0.24870391639E+03  0.17067827025E+03 0.  0.
        -24    2    5    5    0    0 -0.13837274787E+03  0.92478965657E+02  0.11287806957E+03  0.21523316353E+03  0.76710362075E+02 0.  0.
          5    1    3    3  501    0  0.72152768815E+02  0.34744626500E+02  0.55561281189E+02  0.97582565480E+02  0.47000000000E+01 0. -1.
        -11    1    4    4    0    0 -0.14323764235E+02 -0.32425187268E+01  0.35990627043E+01  0.15120760626E+02  0.00000000000E+00 0.  1.
         12    1    4    4    0    0  0.60822192826E+02 -0.98109583591E+02  0.15889347296E+03  0.19639746760E+03  0.00000000000E+00 0. -1.
         -5    1    5    5    0  502  0.19721550462E+02 -0.25871489839E+02  0.63188415040E+01  0.33470752861E+02  0.47000000000E+01 0.  1.
         11    1    6    6    0    0 -0.76345784426E+02  0.18953203590E+02  0.83350220501E+02  0.11460873432E+03  0.00000000000E+00 0. -1.
        -12    1    6    6    0    0 -0.62026963441E+02  0.73525762067E+02  0.29527849071E+02  0.10062442920E+03  0.00000000000E+00 0.  1.
</event>
<event>
12    1  0.1565987E-001  0.1887782E+03  0.7818608E-02  0.1159694E+00
         21   -1    0    0  503  502  0.00000000000E+00  0.00000000000E+00  0.20661691134E+03  0.20661691134E+03  0.00000000000E+00 0. -1.
         21   -1    0    0  501  503 -0.00000000000E+00 -0.00000000000E+00 -0.19060480605E+03  0.19060480605E+03  0.00000000000E+00 0. -1.
          6    2    1    2  501    0 -0.65142353320E+02  0.41621013076E+02 -0.54079087336E+02  0.19637148819E+03  0.17222479136E+03 0.  0.
         24    2    3    3    0    0 -0.95567955295E+01  0.85754347344E+02 -0.34331460442E+02  0.12255032458E+03  0.79967446181E+02 0.  0.
         -6    2    1    2    0  502  0.65142353320E+02 -0.41621013076E+02  0.70091192619E+02  0.20085022920E+03  0.17161644549E+03 0.  0.
        -24    2    5    5    0    0  0.10678707021E+03 -0.18919279962E+02  0.60442949437E+02  0.15222071422E+03  0.88070302492E+02 0.  0.
          5    1    3    3  501    0 -0.55585557791E+02 -0.44133334268E+02 -0.19747626894E+02  0.73821163608E+02  0.47000000000E+01 0. -1.
        -13    1    4    4    0    0 -0.25382372909E+02  0.90225826050E+02 -0.43926293664E+02  0.10351079082E+03  0.00000000000E+00 0.  1.
         14    1    4    4    0    0  0.15825577379E+02 -0.44714787056E+01  0.95948332218E+01  0.19039533759E+02  0.00000000000E+00 0. -1.
         -5    1    5    5    0  502 -0.41644716892E+02 -0.22701733114E+02  0.96482431816E+01  0.48629514987E+02  0.47000000000E+01 0.  1.
         13    1    6    6    0    0  0.69993973907E+02  0.13770193263E+02  0.72328912615E+02  0.10158861258E+03  0.00000000000E+00 0. -1.
        -14    1    6    6    0    0  0.36793096304E+02 -0.32689473226E+02 -0.11885963178E+02  0.50632101636E+02  0.00000000000E+00 0.  1.
</event>
<event>
12    1  0.1565987E-001  0.2251332E+03  0.7818608E-02  0.1130250E+00
         21   -1    0    0  501  502  0.00000000000E+00  0.00000000000E+00  0.13716047341E+03  0.13716047341E+03  0.00000000000E+00 0.  1.
         21   -1    0    0  502  503 -0.00000000000E+00 -0.00000000000E+00 -0.38178692589E+03  0.38178692589E+03  0.00000000000E+00 0. -1.
         -6    2    1    2    0  503 -0.70271820616E+01 -0.14489075837E+03 -0.17130354790E+03  0.28289553780E+03  0.17216929644E+03 0.  0.
        -24    2    3    3    0    0 -0.15644396062E+02 -0.80202775011E+02 -0.18474585851E+03  0.21610049844E+03  0.76753898538E+02 0.  0.
          6    2    1    2  501    0  0.70271820616E+01  0.14489075837E+03 -0.73322904588E+02  0.23605186150E+03  0.17117686710E+03 0.  0.
         24    2    5    5    0    0 -0.38498466029E+02  0.32796194532E+02 -0.57001096229E+02  0.11387875764E+03  0.84625789265E+02 0.  0.
          5    1    5    5  501    0  0.45525648091E+02  0.11209456384E+03 -0.16321808359E+02  0.12217310385E+03  0.47000000000E+01 0. -1.
        -13    1    6    6    0    0  0.27861649730E+01  0.31011388954E+01  0.20644615180E+02  0.21061336938E+02  0.00000000000E+00 0.  1.
         14    1    6    6    0    0 -0.41284631002E+02  0.29695055636E+02 -0.77645711408E+02  0.92817420705E+02  0.00000000000E+00 0. -1.
         -5    1    3    3    0  503  0.86172140008E+01 -0.64687983363E+02  0.13442310614E+02  0.66795039362E+02  0.47000000000E+01 0.  1.
         13    1    4    4    0    0 -0.10724521072E+02 -0.19806636948E+02 -0.13731134226E+03  0.13914640826E+03  0.00000000000E+00 0. -1.
        -14    1    4    4    0    0 -0.49198749906E+01 -0.60396138063E+02 -0.47434516254E+02  0.76954090178E+02  0.00000000000E+00 0.  1.
</event>
<event>
12    1  0.1565987E-001  0.1859739E+03  0.7818608E-02  0.1162331E+00
         21   -1    0    0  503  502  0.00000000000E+00  0.00000000000E+00  0.52052622265E+02  0.52052622265E+02  0.00000000000E+00 0. -1.
         21   -1    0    0  501  503 -0.00000000000E+00 -0.00000000000E+00 -0.85585640244E+03  0.85585640244E+03  0.00000000000E+00 0. -1.
          6    2    1    2  501    0 -0.39226612916E+01  0.70456139452E+02 -0.61751558756E+03  0.64467984580E+03  0.17119330548E+03 0.  0.
         24    2    3    3    0    0  0.26033418265E+02 -0.56062785289E+01 -0.16541837289E+03  0.18522708474E+03  0.78972562365E+02 0.  0.
         -6    2    1    2    0  502  0.39226612916E+01 -0.70456139452E+02 -0.18628819261E+03  0.26322917890E+03  0.17206642630E+03 0.  0.
        -24    2    5    5    0    0  0.43492043838E+02 -0.86474888569E+02 -0.76815278847E+02  0.14563349358E+03  0.77065317474E+02 0.  0.
          5    1    3    3  501    0 -0.29956079556E+02  0.76062417981E+02 -0.45209721468E+03  0.45945276106E+03  0.47000000000E+01 0. -1.
        -11    1    4    4    0    0  0.51780111434E+02 -0.15064146691E+02 -0.89325111067E+02  0.10434118996E+03  0.00000000000E+00 0.  1.
         12    1    4    4    0    0 -0.25746693169E+02  0.94578681616E+01 -0.76093261819E+02  0.80885894775E+02  0.00000000000E+00 0. -1.
         -5    1    5    5    0  502 -0.39569382546E+02  0.16018749116E+02 -0.10947291377E+03  0.11759568532E+03  0.47000000000E+01 0.  1.
         11    1    6    6    0    0  0.26324992678E+02  0.80307303356E+01 -0.14148934756E+02  0.30946570472E+02  0.00000000000E+00 0. -1.
        -12    1    6    6    0    0  0.17167051160E+02 -0.94505618904E+02 -0.62666344091E+02  0.11468692311E+03  0.00000000000E+00 0.  1.
</event>
<event>
12    1  0.1565987E-001  0.1737273E+03  0.7818608E-02  0.1174195E+00
         21   -1    0    0  501  502  0.00000000000E+00  0.00000000000E+00  0.19846738866E+02  0.19846738866E+02  0.00000000000E+00 0. -1.
         21   -1    0    0  502  503 -0.00000000000E+00 -0.00000000000E+00 -0.17410704898E+04  0.17410704898E+04  0.00000000000E+00 0. -1.
         -6    2    1    2    0  503  0.14736613673E+02  0.99939901585E+01 -0.11797120276E+04  0.11924351703E+04  0.17281238232E+03 0.  0.
        -24    2    3    3    0    0 -0.14240198608E+02  0.26077726948E+02 -0.11254255851E+04  0.11286586065E+04  0.80029190738E+02 0.  0.
          6    2    1    2  501    0 -0.14736613673E+02 -0.99939901585E+01 -0.54151172326E+03  0.56848205837E+03  0.17210420287E+03 0.  0.
         24    2    5    5    0    0 -0.33428499668E+02  0.33487438695E+02 -0.16415007705E+03  0.18813494943E+03  0.78807602798E+02 0.  0.
          5    1    5    5  501    0  0.18691885995E+02 -0.43481428854E+02 -0.37736164621E+03  0.38034710895E+03  0.47000000000E+01 0. -1.
        -11    1    6    6    0    0  0.52932300040E+01  0.51695889889E+01 -0.12762949039E+03  0.12784377088E+03  0.00000000000E+00 0.  1.
         12    1    6    6    0    0 -0.38721729672E+02  0.28317849707E+02 -0.36520586659E+02  0.60291178548E+02  0.00000000000E+00 0. -1.
         -5    1    3    3    0  503  0.28976812281E+02 -0.16083736789E+02 -0.54286442564E+02  0.63776563763E+02  0.47000000000E+01 0.  1.
         11    1    4    4    0    0 -0.27438041401E+02 -0.21793688607E+02 -0.53660483677E+03  0.53774767486E+03  0.00000000000E+00 0. -1.
        -12    1    4    4    0    0  0.13197842793E+02  0.47871415555E+02 -0.58882074831E+03  0.59091093163E+03  0.00000000000E+00 0.  1.
</event>
<event>
12    1  0.1565987E-001  0.2003935E+03  0.7818608E-02  0.1149515E+00
         21   -1    0    0  503  502  0.00000000000E+00  0.00000000000E+00  0.32386413811E+03  0.32386413811E+03  0.00000000000E+00 0.  1.
         21   -1    0    0  501  503 -0.00000000000E+00 -0.00000000000E+00 -0.14164067536E+03  0.14164067536E+03  0.00000000000E+00 0. -1.
          6    2    1    2  501    0  0.48328172805E+02 -0.85679913924E+02  0.81283944469E+01  0.20004925994E+03  0.17400280362E+03 0.  0.
         24    2    3    3    0    0  0.92653934398E+02 -0.36128325225E+02  0.29692501382E+02  0.12999760905E+03  0.78279794830E+02 0.  0.
         -6    2    1    2    0  502 -0.48328172805E+02  0.85679913924E+02  0.17409506831E+03  0.26545555354E+03  0.17458779499E+03 0.  0.
        -24    2    5    5    0    0 -0.31888297863E+02  0.12282249460E+03  0.97546287284E+02  0.17867049340E+03  0.79408049520E+02 0.  0.
          5    1    3    3  501    0 -0.44325761593E+02 -0.49551588698E+02 -0.21564106935E+02  0.70051650881E+02  0.47000000000E+01 0. -1.
        -13    1    4    4    0    0  0.13879179472E+02 -0.27206064853E+02  0.39701316319E+02  0.50089880266E+02  0.00000000000E+00 0.  1.
         14    1    4    4    0    0  0.78774754926E+02 -0.89222603719E+01 -0.10008814937E+02  0.79907728789E+02  0.00000000000E+00 0. -1.
         -5    1    5    5    0  502 -0.16439874942E+02 -0.37142580677E+02  0.76548781022E+02  0.86785060139E+02  0.47000000000E+01 0.  1.
         11    1    6    6    0    0  0.12119434058E+02  0.95802843926E+02  0.51289347437E+02  0.10934195328E+03  0.00000000000E+00 0. -1.
        -12    1    6    6    0    0 -0.44007731922E+02  0.27019650675E+02  0.46256939846E+02  0.69328540122E+02  0.00000000000E+00 0.  1.
</event>
<event>
12    1  0.1565987E-001  0.2046499E+03  0.7818608E-02  0.1145938E+00
         21   -1    0    0  503  502  0.00000000000E+00  0.00000000000E+00  0.18020053959E+03  0.18020053959E+03  0.00000000000E+00 0.  1.
         21   -1    0    0  501  503 -0.00000000000E+00 -0.00000000000E+00 -0.25487317054E+03  0.25487317054E+03  0.00000000000E+00 0.  1.
          6    2    1    2  501    0  0.21707321930E+02  0.10810386040E+03 -0.10238640606E+03  0.22855579778E+03  0.17203814721E+03 0.  0.
         24    2    3    3    0    0 -0.60555096911E+01 -0.10402021234E+02 -0.60926190865E+02  0.99887782156E+02  0.78234883826E+02 0.  0.
         -6    2    1    2    0  502 -0.21707321930E+02 -0.10810386040E+03  0.27713775110E+02  0.20651791235E+03  0.17240632916E+03 0.  0.
        -24    2    5    5    0    0 -0.40010987817E+01 -0.57090250011E+01  0.60030297529E+02  0.97592891006E+02  0.76629850551E+02 0.  0.
          5    1    3    3  501    0  0.27762831621E+02  0.11850588163E+03 -0.41460215196E+02  0.12866801563E+03  0.47000000000E+01 0. -1.
        -11    1    4    4    0    0  0.31668475358E+02  0.13553455632E+02 -0.25381090005E+02  0.42787711096E+02  0.00000000000E+00 0.  1.
         12    1    4    4    0    0 -0.37723985049E+02 -0.23955476865E+02 -0.35545100860E+02  0.57100071059E+02  0.00000000000E+00 0. -1.
         -5    1    5    5    0  502 -0.17706223148E+02 -0.10239483540E+03 -0.32316522418E+02  0.10892502135E+03  0.47000000000E+01 0.  1.
         13    1    6    6    0    0  0.35178827659E+02  0.62119749613E+00  0.17072040071E+02  0.39107420702E+02  0.00000000000E+00 0. -1.
        -14    1    6    6    0    0 -0.39179926441E+02 -0.63302224972E+01  0.42958257458E+02  0.58485470303E+02  0.00000000000E+00 0.  1.
</event>
<event>
12    1  0.1565987E-001  0.1775698E+03  0.7818608E-02  0.1171129E+00
         21   -1    0    0  503  502  0.00000000000E+00  0.00000000000E+00  0.79748832666E+02  0.79748832666E+02  0.00000000000E+00 0.  1.
         21   -1    0    0  501  503 -0.00000000000E+00 -0.00000000000E+00 -0.48033995893E+03  0.48033995893E+03  0.00000000000E+00 0.  1.
          6    2    1    2  501    0  0.38059370098E+02  0.29457811921E+02 -0.32204371911E+03  0.36592206764E+03  0.16694467416E+03 0.  0.
         24    2    3    3    0    0  0.39163769738E+02 -0.26646180557E+02 -0.28087402709E+03  0.29616598395E+03  0.81118747262E+02 0.  0.
         -6    2    1    2    0  502 -0.38059370098E+02 -0.29457811921E+02 -0.78547407152E+02  0.19416672396E+03  0.17092320845E+03 0.  0.
        -24    2    5    5    0    0 -0.14242716928E+02  0.12061383293E+02 -0.10962977693E+03  0.13690172373E+03  0.79843985490E+02 0.  0.
          5    1    3    3  501    0 -0.11043996402E+01  0.56103992478E+02 -0.41169692021E+02  0.69756083689E+02  0.47000000000E+01 0. -1.
        -11    1    4    4    0    0 -0.23394327967E+02 -0.20433816912E+02 -0.94814464569E+02  0.99772832705E+02  0.00000000000E+00 0.  1.
         12    1    4    4    0    0  0.62558097705E+02 -0.62123636453E+01 -0.18605956252E+03  0.19639315125E+03  0.00000000000E+00 0. -1.
         -5    1    5    5    0  502 -0.23816653170E+02 -0.41519195214E+02  0.31082369779E+02  0.57265000223E+02  0.47000000000E+01 0.  1.
         13    1    6    6    0    0 -0.40013965052E+02 -0.15530297424E+02 -0.70417183825E+02  0.82467492475E+02  0.00000000000E+00 0. -1.
        -14    1    6    6    0    0  0.25771248124E+02  0.27591680717E+02 -0.39212593105E+02  0.54434231259E+02  0.00000000000E+00 0.  1.
</event>
<event>
12    1  0.1565987E-001  0.1830871E+03  0.7818608E-02  0.1167074E+00
         21   -1    0    0  501  502  0.00000000000E+00  0.00000000000E+00  0.30078549474E+03  0.30078549474E+03  0.00000000000E+00 0.  1.
         21   -1    0    0  502  503 -0.00000000000E+00 -0.00000000000E+00 -0.12856317796E+03  0.12856317796E+03  0.00000000000E+00 0.  1.
         -6    2    1    2    0  503  0.62008466366E+02  0.10501596010E+02 -0.20894126047E+01  0.18309900529E+03  0.17194634824E+03 0.  0.
        -24    2    3    3    0    0  0.55774935180E+01  0.49090306983E+02  0.40782692341E+02  0.10226800447E+03  0.79715431813E+02 0.  0.
          6    2    1    2  501    0 -0.62008466366E+02 -0.10501596010E+02  0.17431172939E+03  0.24624966742E+03  0.16216962194E+03 0.  0.
         24    2    5    5    0    0 -0.74209198900E+02 -0.44638801085E+02  0.17835245266E+03  0.20947162928E+03  0.67595401767E+02 0.  0.
          5    1    5    5  501    0  0.12200732534E+02  0.34137205075E+02 -0.40407232665E+01  0.36778038137E+02  0.47000000000E+01 0. -1.
        -13    1    6    6    0    0 -0.48375613421E+02  0.82107438643E+01  0.10103917478E+03  0.11232333297E+03  0.00000000000E+00 0.  1.
         14    1    6    6    0    0 -0.25833585479E+02 -0.52849544949E+02  0.77313277879E+02  0.97148296313E+02  0.00000000000E+00 0. -1.
         -5    1    3    3    0  503  0.56430972848E+02 -0.38588710973E+02 -0.42872104946E+02  0.80831000820E+02  0.47000000000E+01 0.  1.
         11    1    4    4    0    0  0.36726960900E+02  0.44741556292E+02  0.40795724992E+02  0.70816436609E+02  0.00000000000E+00 0. -1.
        -12    1    4    4    0    0 -0.31149467382E+02  0.43487506908E+01 -0.13032650647E-01  0.31451567856E+02  0.00000000000E+00 0.  1.
</event>
<event>
12    1  0.1565987E-001  0.1935631E+03  0.7818608E-02  0.1158350E+00
         21   -1    0    0  501  502  0.00000000000E+00  0.00000000000E+00  0.20831151688E+03  0.20831151688E+03  0.00000000000E+00 0. -1.
         21   -1    0    0  502  503 -0.00000000000E+00 -0.00000000000E+00 -0.17462305134E+03  0.17462305134E+03  0.00000000000E+00 0.  1.
         -6    2    1    2    0  503 -0.97398970883E+01 -0.47528164472E+02 -0.22035208785E+02  0.18151011700E+03  0.17351247832E+03 0.  0.
        -24    2    3    3    0    0 -0.34017956697E+02  0.44385933042E+02 -0.11499308619E+02  0.85746237104E+02  0.63975390963E+02 0.  0.
          6    2    1    2  501    0  0.97398970883E+01  0.47528164472E+02  0.55723674332E+02  0.20142445122E+03  0.18738433674E+03 0.  0.
         24    2    5    5    0    0  0.28256054312E+02 -0.39646797409E+02  0.76594652553E+02  0.10977288392E+03  0.61750077682E+02 0.  0.
          5    1    5    5  501    0 -0.18516157224E+02  0.87174961880E+02 -0.20870978221E+02  0.91651567303E+02  0.47000000000E+01 0. -1.
        -11    1    6    6    0    0 -0.15042422233E+02 -0.18344717028E+02  0.48357782806E+02  0.53863515179E+02  0.00000000000E+00 0.  1.
         12    1    6    6    0    0  0.43298476545E+02 -0.21302080380E+02  0.28236869747E+02  0.55909368738E+02  0.00000000000E+00 0. -1.
         -5    1    3    3    0  503  0.24278059609E+02 -0.91914097513E+02 -0.10535900166E+02  0.95763879894E+02  0.47000000000E+01 0.  1.
         13    1    4    4    0    0 -0.24341442033E+02  0.36121157811E+02 -0.37061958531E+02  0.57191193483E+02  0.00000000000E+00 0. -1.
        -14    1    4    4    0    0 -0.96765146649E+01  0.82647752305E+01  0.25562649912E+02  0.28555043621E+02  0.00000000000E+00 0.  1.
</event>
<event>
12    1  0.1565987E-001  0.2053540E+03  0.7818608E-02  0.1148091E+00
         21   -1    0    0  503  502  0.00000000000E+00  0.00000000000E+00  0.44453358614E+02  0.44453358614E+02  0.00000000000E+00 0. -1.
         21   -1    0    0  501  503 -0.00000000000E+00 -0.00000000000E+00 -0.89320018348E+03  0.89320018348E+03  0.00000000000E+00 0. -1.
          6    2    1    2  501    0 -0.67771554829E+02 -0.87646990331E+02 -0.37653869411E+03  0.42272560144E+03  0.15697314227E+03 0.  0.
         24    2    3    3    0    0 -0.72461988343E+02 -0.88990619398E+02 -0.19084071501E+03  0.23690408776E+03  0.80828820331E+02 0.  0.
         -6    2    1    2    0  502  0.67771554829E+02  0.87646990331E+02 -0.47220813076E+03  0.51492794065E+03  0.17290253542E+03 0.  0.
        -24    2    5    5    0    0 -0.73564344514E+01  0.54246744732E+02 -0.37617406516E+03  0.38841935227E+03  0.79786211073E+02 0.  0.
          5    1    3    3  501    0  0.46904335135E+01  0.13436290667E+01 -0.18569797910E+03  0.18582151368E+03  0.47000000000E+01 0. -1.
        -11    1    4    4    0    0 -0.36903333914E+02  0.63615870653E+01 -0.65531594120E+02  0.75476590225E+02  0.00000000000E+00 0.  1.
         12    1    4    4    0    0 -0.35558654428E+02 -0.95352206463E+02 -0.12530912089E+03  0.16142749754E+03  0.00000000000E+00 0. -1.
         -5    1    5    5    0  502  0.75127989281E+02  0.33400245599E+02 -0.96034065596E+02  0.12650858838E+03  0.47000000000E+01 0.  1.
         13    1    6    6    0    0 -0.59035182133E+01  0.73887012418E+02 -0.25135727999E+03  0.26205843687E+03  0.00000000000E+00 0. -1.
        -14    1    6    6    0    0 -0.14529162381E+01 -0.19640267686E+02 -0.12481678517E+03  0.12636091540E+03  0.00000000000E+00 0.  1.
</event>
<event>
12    1  0.1565987E-001  0.2109347E+03  0.7818608E-02  0.1141115E+00
         21   -1    0    0  503  502  0.00000000000E+00  0.00000000000E+00  0.16058656009E+03  0.16058656009E+03  0.00000000000E+00 0.  1.
         21   -1    0    0  501  503 -0.00000000000E+00 -0.00000000000E+00 -0.50393794700E+03  0.50393794700E+03  0.00000000000E+00 0.  1.
          6    2    1    2  501    0 -0.12047107857E+03 -0.14512759287E+02 -0.39586861122E+03  0.44855923706E+03  0.17253849091E+03 0.  0.
         24    2    3    3    0    0 -0.98459532221E+02  0.52993331804E+02 -0.22480299728E+03  0.26328345672E+03  0.79241518752E+02 0.  0.
         -6    2    1    2    0  502  0.12047107857E+03  0.14512759287E+02  0.52517224319E+02  0.21596527003E+03  0.17076017702E+03 0.  0.
        -24    2    5    5    0    0  0.98664124211E+02 -0.19095814051E+02  0.10062275692E+03  0.15318540282E+03  0.56934777663E+02 0.  0.
          5    1    3    3  501    0 -0.22011546349E+02 -0.67506091091E+02 -0.17106561394E+03  0.18527578034E+03  0.47000000000E+01 0. -1.
        -11    1    4    4    0    0 -0.41217567729E+02 -0.82884661379E+01 -0.13041847869E+03  0.13702761088E+03  0.00000000000E+00 0.  1.
         12    1    4    4    0    0 -0.57241964492E+02  0.61281797942E+02 -0.94384518589E+02  0.12625584583E+03  0.00000000000E+00 0. -1.
         -5    1    5    5    0  502  0.21806954360E+02  0.33608573338E+02 -0.48105532600E+02  0.62779867211E+02  0.47000000000E+01 0.  1.
         11    1    6    6    0    0  0.40713056382E+02 -0.24070477245E+02  0.77087215874E+02  0.90439923076E+02  0.00000000000E+00 0. -1.
        -12    1    6    6    0    0  0.57951067829E+02  0.49746631943E+01  0.23535541045E+02  0.62745479747E+02  0.00000000000E+00 0.  1.
</event>
<event>
12    1  0.1565987E-001  0.1989020E+03  0.7818608E-02  0.1151081E+00
         21   -1    0    0  503  502  0.00000000000E+00  0.00000000000E+00  0.35116765858E+03  0.35116765858E+03  0.00000000000E+00 0. -1.
         21   -1    0    0  501  503 -0.00000000000E+00 -0.00000000000E+00 -0.64629814778E+03  0.64629814778E+03  0.00000000000E+00 0. -1.
          6    2    1    2  501    0  0.63086881552E+02  0.72710991805E+02 -0.60133670377E+03  0.63337810386E+03  0.17405501484E+03 0.  0.
         24    2    3    3    0    0  0.45566632242E+02  0.57084999796E+02 -0.17239453799E+03  0.20376827815E+03  0.80415292539E+02 0.  0.
         -6    2    1    2    0  502 -0.63086881552E+02 -0.72710991805E+02  0.30620621457E+03  0.36408770251E+03  0.17184518127E+03 0.  0.
        -24    2    5    5    0    0 -0.86826379886E+02 -0.69065312176E+02  0.31020079891E+03  0.33929049570E+03  0.81145962544E+02 0.  0.
          5    1    3    3  501    0  0.17520249310E+02  0.15625992009E+02 -0.42894216578E+03  0.42960982571E+03  0.47000000000E+01 0. -1.
        -11    1    4    4    0    0  0.29172874865E+02 -0.15794257420E+02 -0.42354897949E+02  0.53800116873E+02  0.00000000000E+00 0.  1.
         12    1    4    4    0    0  0.16393757377E+02  0.72879257217E+02 -0.13003964004E+03  0.14996816127E+03  0.00000000000E+00 0. -1.
         -5    1    5    5    0  502  0.23739498334E+02 -0.36456796291E+01 -0.39945843494E+01  0.24797206803E+02  0.47000000000E+01 0.  1.
         11    1    6    6    0    0 -0.41798744032E+02  0.11371807090E+02  0.12738090734E+03  0.13454496852E+03  0.00000000000E+00 0. -1.
        -12    1    6    6    0    0 -0.45027635853E+02 -0.80437119266E+02  0.18281989158E+03  0.20474552719E+03  0.00000000000E+00 0.  1.
</event>
<event>
12    1  0.1565987E-001  0.3940491E+03  0.7818608E-02  0.1045886E+00
         21   -1    0    0  503  502  0.00000000000E+00  0.00000000000E+00  0.15546017913E+04  0.15546017913E+04  0.00000000000E+00 0. -1.
         21   -1    0    0  501  503 -0.00000000000E+00 -0.00000000000E+00 -0.10036389367E+03  0.10036389367E+03  0.00000000000E+00 0.  1.
          6    2    1    2  501    0  0.24565232788E+03 -0.25534173973E+03  0.66574063289E+03  0.77361829381E+03  0.17242448778E+03 0.  0.
         24    2    3    3    0    0  0.69442742344E+02 -0.35179259077E+02  0.17708731877E+03  0.20941488428E+03  0.80217208592E+02 0.  0.
         -6    2    1    2    0  502 -0.24565232788E+03  0.25534173973E+03  0.78849726479E+03  0.88134739121E+03  0.17175801921E+03 0.  0.
        -24    2    5    5    0    0 -0.17381760012E+03  0.24614489774E+03  0.70392932174E+03  0.76990845274E+03  0.80266224552E+02 0.  0.
          5    1    3    3  501    0  0.17620958553E+03 -0.22016248066E+03  0.48865331412E+03  0.56420340953E+03  0.47000000000E+01 0. -1.
        -13    1    4    4    0    0  0.83890533710E+02 -0.42991094832E+02  0.13913159366E+03  0.16805789549E+03  0.00000000000E+00 0.  1.
         14    1    4    4    0    0 -0.14447791366E+02  0.78118357552E+01  0.37955725111E+02  0.41356988792E+02  0.00000000000E+00 0. -1.
         -5    1    5    5    0  502 -0.71834727754E+02  0.91968419952E+01  0.84567943051E+02  0.11143893846E+03  0.47000000000E+01 0.  1.
         13    1    6    6    0    0 -0.10452475953E+02  0.48064689676E+02  0.17769840537E+03  0.18438056275E+03  0.00000000000E+00 0. -1.
        -14    1    6    6    0    0 -0.16336512417E+03  0.19808020806E+03  0.52623091637E+03  0.58552789000E+03  0.00000000000E+00 0.  1.
</event>
<event>
12    1  0.1565987E-001  0.2323520E+03  0.7818608E-02  0.1127165E+00
         21   -1    0    0  503  502  0.00000000000E+00  0.00000000000E+00  0.17281183150E+03  0.17281183150E+03  0.00000000000E+00 0. -1.
         21   -1    0    0  501  503 -0.00000000000E+00 -0.00000000000E+00 -0.64560743006E+03  0.64560743006E+03  0.00000000000E+00 0.  1.
          6    2    1    2  501    0 -0.11329545054E+03 -0.77781066109E+02 -0.53443960196E+03  0.57802910773E+03  0.17206454568E+03 0.  0.
         24    2    3    3    0    0 -0.51295508708E+02  0.83580473203E+01 -0.13710113461E+03  0.16673373056E+03  0.79387213228E+02 0.  0.
         -6    2    1    2    0  502  0.11329545054E+03  0.77781066109E+02  0.61644003399E+02  0.24039015383E+03  0.18735444896E+03 0.  0.
        -24    2    5    5    0    0  0.75692804389E+02  0.12198288371E+03  0.72380518088E+02  0.18118607944E+03  0.83547779322E+02 0.  0.
          5    1    3    3  501    0 -0.61999941835E+02 -0.86139113430E+02 -0.39733846735E+03  0.41129537717E+03  0.47000000000E+01 0. -1.
        -11    1    4    4    0    0 -0.72298200433E+02  0.10164540343E+02 -0.96727859363E+02  0.12118839236E+03  0.00000000000E+00 0.  1.
         12    1    4    4    0    0  0.21002691725E+02 -0.18064930227E+01 -0.40373275251E+02  0.45545338194E+02  0.00000000000E+00 0. -1.
         -5    1    5    5    0  502  0.37602646154E+02 -0.44201817601E+02 -0.10736514689E+02  0.59204074393E+02  0.47000000000E+01 0.  1.
         13    1    6    6    0    0  0.25675208854E+02  0.40613239016E+02  0.70917302326E+02  0.85661632615E+02  0.00000000000E+00 0. -1.
        -14    1    6    6    0    0  0.50017595535E+02  0.81369644695E+02  0.14632157616E+01  0.95524446825E+02  0.00000000000E+00 0.  1.
</event>
<event>
12    1  0.1565987E-001  0.2065349E+03  0.7818608E-02  0.1145312E+00
         21   -1    0    0  503  502  0.00000000000E+00  0.00000000000E+00  0.10453991749E+03  0.10453991749E+03  0.00000000000E+00 0.  1.
         21   -1    0    0  501  503 -0.00000000000E+00 -0.00000000000E+00 -0.40101990281E+03  0.40101990281E+03  0.00000000000E+00 0. -1.
          6    2    1    2  501    0 -0.71588442604E+02  0.85354565559E+02 -0.13080621202E+03  0.24447278549E+03  0.17391483768E+03 0.  0.
         24    2    3    3    0    0  0.28465550578E+02  0.23106223728E+02 -0.44305357528E+02  0.98219083177E+02  0.79623102488E+02 0.  0.
         -6    2    1    2    0  502  0.71588442604E+02 -0.85354565559E+02 -0.16567377329E+03  0.26108703481E+03  0.16825080568E+03 0.  0.
        -24    2    5    5    0    0  0.10492754277E+03 -0.48281903806E+02 -0.83371237707E+02  0.16474558364E+03  0.82761178015E+02 0.  0.
          5    1    3    3  501    0 -0.10005399318E+03  0.62248341830E+02 -0.86500854497E+02  0.14625370232E+03  0.47000000000E+01 0. -1.
        -13    1    4    4    0    0 -0.82059191607E+01 -0.17605983339E+02 -0.38495861376E+02  0.43118894950E+02  0.00000000000E+00 0.  1.
         14    1    4    4    0    0  0.36671469739E+02  0.40712207068E+02 -0.58094961518E+01  0.55100188227E+02  0.00000000000E+00 0. -1.
         -5    1    5    5    0  502 -0.33339100165E+02 -0.37072661753E+02 -0.82302535582E+02  0.96341451165E+02  0.47000000000E+01 0.  1.
         11    1    6    6    0    0 -0.66717405429E+01  0.10865320898E+02 -0.19269344345E+02  0.23105734171E+02  0.00000000000E+00 0. -1.
        -12    1    6    6    0    0  0.11159928331E+03 -0.59147224704E+02 -0.64101893363E+02  0.14163984947E+03  0.00000000000E+00 0.  1.
</event>
<event>
12    1  0.1565987E-001  0.1938660E+03  0.7818608E-02  0.1155049E+00
         21   -1    0    0  501  502  0.00000000000E+00  0.00000000000E+00  0.24106686358E+03  0.24106686358E+03  0.00000000000E+00 0.  1.
         21   -1    0    0  502  503 -0.00000000000E+00 -0.00000000000E+00 -0.18584057408E+03  0.18584057408E+03  0.00000000000E+00 0.  1.
         -6    2    1    2    0  503  0.35593842944E+02 -0.84242523238E+02 -0.58211147808E+02  0.20229204410E+03  0.17079171233E+03 0.  0.
        -24    2    3    3    0    0 -0.39230851128E+01 -0.11112643717E+03 -0.67813880240E+02  0.15331618371E+03  0.80886675040E+02 0.  0.
          6    2    1    2  501    0 -0.35593842944E+02  0.84242523238E+02  0.11343743731E+03  0.22461539356E+03  0.17093945848E+03 0.  0.
         24    2    5    5    0    0 -0.69784776079E+01 -0.33798114920E+01  0.26117921641E+01  0.80390131220E+02  0.79972679484E+02 0.  0.
          5    1    5    5  501    0 -0.28615365336E+02  0.87622334730E+02  0.11082564514E+03  0.14422526234E+03  0.47000000000E+01 0. -1.
        -13    1    6    6    0    0  0.23636263653E+02  0.48265825681E+01  0.30003063144E+02  0.38498735781E+02  0.00000000000E+00 0.  1.
         14    1    6    6    0    0 -0.30614741261E+02 -0.82063940602E+01 -0.27391270980E+02  0.41891395439E+02  0.00000000000E+00 0. -1.
         -5    1    3    3    0  503  0.39516928057E+02  0.26883913928E+02  0.96027324322E+01  0.48975860394E+02  0.47000000000E+01 0.  1.
         13    1    4    4    0    0  0.35833496310E+02 -0.32701660896E+02 -0.15141617307E+02  0.50820337050E+02  0.00000000000E+00 0. -1.
        -14    1    4    4    0    0 -0.39756581423E+02 -0.78424776269E+02 -0.52672262933E+02  0.10249584666E+03  0.00000000000E+00 0.  1.
</event>
<event>
12    1  0.1565987E-001  0.2292702E+03  0.7818608E-02  0.1127227E+00
         21   -1    0    0  503  502  0.00000000000E+00  0.00000000000E+00  0.14427853239E+03  0.14427853239E+03  0.00000000000E+00 0. -1.
         21   -1    0    0  501  503 -0.00000000000E+00 -0.00000000000E+00 -0.39768413730E+03  0.39768413730E+03  0.00000000000E+00 0. -1.
          6    2    1    2  501    0  0.11929941414E+03 -0.93480308867E+02 -0.20583717009E+03  0.30780973314E+03  0.17148461407E+03 0.  0.
         24    2    3    3    0    0  0.11443409535E+03 -0.64376487044E+01 -0.11226427171E+03  0.17983288630E+03  0.81240351991E+02 0.  0.
         -6    2    1    2    0  502 -0.11929941414E+03  0.93480308867E+02 -0.47568434821E+02  0.23415293655E+03  0.17202884452E+03 0.  0.
        -24    2    5    5    0    0 -0.14191018985E+03  0.35499202311E+02 -0.34618629618E+02  0.17041249923E+03  0.80270013261E+02 0.  0.
          5    1    3    3  501    0  0.48653187870E+01 -0.87042660163E+02 -0.93572898377E+02  0.12797684683E+03  0.47000000000E+01 0. -1.
        -11    1    4    4    0    0 -0.67579731090E+01  0.15735969381E+02 -0.11005589690E+02  0.20357159363E+02  0.00000000000E+00 0.  1.
         12    1    4    4    0    0  0.12119206846E+03 -0.22173618085E+02 -0.10125868202E+03  0.15947572694E+03  0.00000000000E+00 0. -1.
         -5    1    5    5    0  502  0.22610775708E+02  0.57981106557E+02 -0.12949805203E+02  0.63740437326E+02  0.47000000000E+01 0.  1.
         11    1    6    6    0    0 -0.69592648863E+02  0.36444367458E+02  0.18464787392E+02  0.80698680712E+02  0.00000000000E+00 0. -1.
        -12    1    6    6    0    0 -0.72317540986E+02 -0.94516514700E+00 -0.53083417009E+02  0.89713818517E+02  0.00000000000E+00 0.  1.
</event>
<event>
12    1  0.1565987E-001  0.1987125E+03  0.7818608E-02  0.1150926E+00
         21   -1    0    0  501  502  0.00000000000E+00  0.00000000000E+00  0.35276358108E+03  0.35276358108E+03  0.00000000000E+00 0. -1.
         21   -1    0    0  502  503 -0.00000000000E+00 -0.00000000000E+00 -0.14965088290E+03  0.14965088290E+03  0.00000000000E+00 0. -1.
         -6    2    1    2    0  503  0.12501387987E+02 -0.10063260521E+03 -0.24892392113E+02  0.20026555825E+03  0.17089018901E+03 0.  0.
        -24    2    3    3    0    0 -0.51572520673E+02 -0.89342374988E+02 -0.16893329973E+02  0.13454638247E+03  0.84708674770E+02 0.  0.
          6    2    1    2  501    0 -0.12501387987E+02  0.10063260521E+03  0.22800509029E+03  0.30214890573E+03  0.17036558954E+03 0.  0.
         24    2    5    5    0    0  0.55686524050E+02  0.34116436064E+02  0.10996009858E+03  0.15039020853E+03  0.79126932021E+02 0.  0.
          5    1    5    5  501    0 -0.68187912037E+02  0.66516169148E+02  0.11804499172E+03  0.15175869720E+03  0.47000000000E+01 0. -1.
        -11    1    6    6    0    0  0.10763370102E+01 -0.35805885821E+01 -0.11441402668E+02  0.12036810664E+02  0.00000000000E+00 0.  1.
         12    1    6    6    0    0  0.54610187040E+02  0.37697024646E+02  0.12140150124E+03  0.13835339786E+03  0.00000000000E+00 0. -1.
         -5    1    3    3    0  503  0.64073908660E+02 -0.11290230224E+02 -0.79990621402E+01  0.65719175776E+02  0.47000000000E+01 0.  1.
         11    1    4    4    0    0  0.76465045860E+01 -0.59210707718E+02 -0.30009310952E+02  0.66820174234E+02  0.00000000000E+00 0. -1.
        -12    1    4    4    0    0 -0.59219025259E+02 -0.30131667270E+02  0.13115980979E+02  0.67726208237E+02  0.00000000000E+00 0.  1.
</event>
<event>
12    1  0.1565987E-001  0.2030175E+03  0.7818608E-02  0.1147378E+00
         21   -1    0    0  503  502  0.00000000000E+00  0.00000000000E+00  0.25460468390E+03  0.25460468390E+03  0.00000000000E+00 0. -1.
         21   -1    0    0  501  503 -0.00000000000E+00 -0.00000000000E+00 -0.17360113162E+03  0.17360113162E+03  0.00000000000E+00 0. -1.
          6    2    1    2  501    0  0.10677402223E+03  0.15680198734E+02  0.97637778632E+02  0.22527590146E+03  0.17195794691E+03 0.  0.
         24    2    3    3    0    0  0.70829493701E+02  0.53317408518E+02  0.82548526446E+01  0.12173863209E+03  0.83021615987E+02 0.  0.
         -6    2    1    2    0  502 -0.10677402223E+03 -0.15680198734E+02 -0.16634226350E+02  0.20292991406E+03  0.17104763102E+03 0.  0.
        -24    2    5    5    0    0 -0.95469167941E+02  0.18331112852E+02 -0.66022072653E+02  0.14172682256E+03  0.79228697014E+02 0.  0.
          5    1    3    3  501    0  0.35944528532E+02 -0.37637209784E+02  0.89382925987E+02  0.10353726938E+03  0.47000000000E+01 0. -1.
        -13    1    4    4    0    0  0.84978387369E+02  0.41654149768E+02 -0.10849937165E+02  0.95258152666E+02  0.00000000000E+00 0.  1.
         14    1    4    4    0    0 -0.14148893668E+02  0.11663258750E+02  0.19104789809E+02  0.26480479421E+02  0.00000000000E+00 0. -1.
         -5    1    5    5    0  502 -0.11304854292E+02 -0.34011311585E+02  0.49387846303E+02  0.61203091497E+02  0.47000000000E+01 0.  1.
         13    1    6    6    0    0 -0.21943333936E+02  0.42097069258E+02 -0.32290146907E+02  0.57413645866E+02  0.00000000000E+00 0. -1.
        -14    1    6    6    0    0 -0.73525834005E+02 -0.23765956407E+02 -0.33731925746E+02  0.84313176696E+02  0.00000000000E+00 0.  1.
</event>
<event>
12    1  0.1565987E-001  0.1839159E+03  0.7818608E-02  0.1166006E+00
         21   -1    0    0  501  502  0.00000000000E+00  0.00000000000E+00  0.13417462332E+03  0.13417462332E+03  0.00000000000E+00 0. -1.
         21   -1    0    0  502  503 -0.00000000000E+00 -0.00000000000E+00 -0.45516855366E+03  0.45516855366E+03  0.00000000000E+00 0. -1.
         -6    2    1    2    0  503  0.59197126611E+02  0.20453479320E+02 -0.36061051989E+03  0.40120887457E+03  0.16433493043E+03 0.  0.
        -24    2    3    3    0    0  0.30488784400E+02  0.66720149557E+02 -0.30154633748E+03  0.32073874761E+03  0.81006211150E+02 0.  0.
          6    2    1    2  501    0 -0.59197126611E+02 -0.20453479320E+02  0.39616589558E+02  0.18813430242E+03  0.17292309551E+03 0.  0.
         24    2    5    5    0    0 -0.74518659322E+02 -0.50709963378E+02 -0.16120000664E+02  0.12272129391E+03  0.81707591967E+02 0.  0.
          5    1    5    5  501    0  0.15321532711E+02  0.30256484057E+02  0.55736590222E+02  0.65413008505E+02  0.47000000000E+01 0. -1.
        -11    1    6    6    0    0 -0.59232316441E+02 -0.17511167108E+01 -0.34102570407E+02  0.68370454358E+02  0.00000000000E+00 0.  1.
         12    1    6    6    0    0 -0.15286342880E+02 -0.48958846667E+02  0.17982569743E+02  0.54350839554E+02  0.00000000000E+00 0. -1.
         -5    1    3    3    0  503  0.28708342211E+02 -0.46266670236E+02 -0.59064182417E+02  0.80470126953E+02  0.47000000000E+01 0.  1.
         13    1    4    4    0    0  0.15073130292E+02  0.92138646993E+01 -0.21480930961E+03  0.21553453101E+03  0.00000000000E+00 0. -1.
        -14    1    4    4    0    0  0.15415654107E+02  0.57506284857E+02 -0.86737027863E+02  0.10520421661E+03  0.00000000000E+00 0.  1.
</event>
<event>
12    1  0.1565987E-001  0.2343570E+03  0.7818608E-02  0.1126706E+00
         21   -1    0    0  501  502  0.00000000000E+00  0.00000000000E+00  0.15596529528E+03  0.15596529528E+03  0.00000000000E+00 0. -1.
         21   -1    0    0  502  503 -0.00000000000E+00 -0.00000000000E+00 -0.63558437195E+03  0.63558437195E+03  0.00000000000E+00 0. -1.
         -6    2    1    2    0  503 -0.27443606156E+02  0.12919725755E+03 -0.52036596788E+03  0.57070478767E+03  0.19359269426E+03 0.  0.
        -24    2    3    3    0    0  0.90298496772E+01  0.11817610859E+03 -0.51165024532E+03  0.53133687530E+03  0.80534282720E+02 0.  0.
          6    2    1    2  501    0  0.27443606156E+02 -0.12919725755E+03  0.40746891202E+02  0.22084487956E+03  0.17224130982E+03 0.  0.
         24    2    5    5    0    0 -0.49178086444E+02 -0.95247374374E+02  0.12152247482E+02  0.13217006919E+03  0.76359043733E+02 0.  0.
          5    1    5    5  501    0  0.76621692600E+02 -0.33949883172E+02  0.28594643720E+02  0.88674810368E+02  0.47000000000E+01 0. -1.
        -13    1    6    6    0    0 -0.10689145766E+02  0.23128826245E+01 -0.19725475766E+02  0.22554415476E+02  0.00000000000E+00 0.  1.
         14    1    6    6    0    0 -0.38488940678E+02 -0.97560256998E+02  0.31877723249E+02  0.10961565372E+03  0.00000000000E+00 0. -1.
         -5    1    3    3    0  503 -0.36473455833E+02  0.11021148960E+02 -0.87157225593E+01  0.39367912372E+02  0.47000000000E+01 0.  1.
         13    1    4    4    0    0  0.43990076915E+02  0.74347615038E+02 -0.33775574133E+03  0.34862821964E+03  0.00000000000E+00 0. -1.
        -14    1    4    4    0    0 -0.34960227238E+02  0.43828493547E+02 -0.17389450399E+03  0.18270865566E+03  0.00000000000E+00 0.  1.
</event>
<event>
12    1  0.1565987E-001  0.2152864E+03  0.7818608E-02  0.1137512E+00
         21   -1    0    0  501  502  0.00000000000E+00  0.00000000000E+00  0.48044550817E+02  0.48044550817E+02  0.00000000000E+00 0. -1.
         21   -1    0    0  502  503 -0.00000000000E+00 -0.00000000000E+00 -0.24105241901E+04  0.24105241901E+04  0.00000000000E+00 0. -1.
         -6    2    1    2    0  503  0.41881222316E+02 -0.12267654005E+03 -0.21341475504E+04  0.21449787852E+04  0.17188557710E+03 0.  0.
        -24    2    3    3    0    0  0.43855060000E+02 -0.34587537705E+02 -0.16476097817E+04  0.16505046618E+04  0.80175317675E+02 0.  0.
          6    2    1    2  501    0 -0.41881222316E+02  0.12267654005E+03 -0.22833208881E+03  0.31358995569E+03  0.17146296180E+03 0.  0.
         24    2    5    5    0    0  0.34064049816E+01  0.61903022549E+02 -0.35689579485E+02  0.10652084642E+03  0.78926274728E+02 0.  0.
          5    1    5    5  501    0 -0.45287627298E+02  0.60773517503E+02 -0.19264250932E+03  0.20706910927E+03  0.47000000000E+01 0. -1.
        -11    1    6    6    0    0  0.19746076247E+00 -0.18892745548E+02 -0.11509617607E+02  0.22123429268E+02  0.00000000000E+00 0.  1.
         12    1    6    6    0    0  0.32089442192E+01  0.80795768097E+02 -0.24179961878E+02  0.84397417151E+02  0.00000000000E+00 0. -1.
         -5    1    3    3    0  503 -0.19738376843E+01 -0.88089002346E+02 -0.48653776870E+03  0.49447412343E+03  0.47000000000E+01 0.  1.
         13    1    4    4    0    0  0.54311359481E+02  0.92356853762E+00 -0.67159697064E+03  0.67379007690E+03  0.00000000000E+00 0. -1.
        -14    1    4    4    0    0 -0.10456299481E+02 -0.35511106243E+02 -0.97601281110E+03  0.97671458486E+03  0.00000000000E+00 0.  1.
</event>
<event>
12    1  0.1565987E-001  0.2567090E+03  0.7818608E-02  0.1109960E+00
         21   -1    0    0  501  502  0.00000000000E+00  0.00000000000E+00  0.90941388434E+03  0.90941388434E+03  0.00000000000E+00 0. -1.
         21   -1    0    0  502  503 -0.00000000000E+00 -0.00000000000E+00 -0.11998582831E+03  0.11998582831E+03  0.00000000000E+00 0. -1.
         -6    2    1    2    0  503 -0.66145030583E+02  0.17406829168E+03  0.63292952716E+02  0.25922329793E+03  0.16886617508E+03 0.  0.
        -24    2    3    3    0    0 -0.51601902723E+02  0.22071231932E+02  0.28432748470E+02  0.10253273478E+03  0.80960761307E+02 0.  0.
          6    2    1    2  501    0  0.66145030583E+02 -0.17406829168E+03  0.72613510332E+03  0.77017641472E+03  0.17670479982E+03 0.  0.
         24    2    5    5    0    0  0.31109574455E+01 -0.12351543740E+02  0.17991747159E+03  0.19702600501E+03  0.79288784686E+02 0.  0.
          5    1    5    5  501    0  0.63034073138E+02 -0.16171674794E+03  0.54621763173E+03  0.57315040971E+03  0.47000000000E+01 0. -1.
        -11    1    6    6    0    0 -0.28818315809E+02 -0.26595624194E+02  0.56668480390E+02  0.68913998738E+02  0.00000000000E+00 0.  1.
         12    1    6    6    0    0  0.31929273255E+02  0.14244080454E+02  0.12324899120E+03  0.12811200627E+03  0.00000000000E+00 0. -1.
         -5    1    3    3    0  503 -0.14543127860E+02  0.15199705975E+03  0.34860204245E+02  0.15669056315E+03  0.47000000000E+01 0.  1.
         11    1    4    4    0    0  0.90305769898E+01  0.26468751350E+02 -0.11021388387E+02  0.30060224896E+02  0.00000000000E+00 0. -1.
        -12    1    4    4    0    0 -0.60632479713E+02 -0.43975194183E+01  0.39454136858E+02  0.72472509880E+02  0.00000000000E+00 0.  1.
</event>
<event>
12    1  0.1565987E-001  0.2238801E+03  0.7818608E-02  0.1131282E+00
         21   -1    0    0  501  502  0.00000000000E+00  0.00000000000E+00  0.27289850270E+02  0.27289850270E+02  0.00000000000E+00 0. -1.
         21   -1    0    0  502  503 -0.00000000000E+00 -0.00000000000E+00 -0.19323635277E+04  0.19323635277E+04  0.00000000000E+00 0. -1.
         -6    2    1    2    0  503  0.11221373729E+03 -0.83943629546E+02 -0.11862771790E+04  0.12072182264E+04  0.17459623460E+03 0.  0.
        -24    2    3    3    0    0  0.50081403138E+02 -0.11928314766E+03 -0.77327735141E+03  0.78805208271E+03  0.79571393135E+02 0.  0.
          6    2    1    2  501    0 -0.11221373729E+03  0.83943629546E+02 -0.71879649848E+03  0.75243515154E+03  0.17277672087E+03 0.  0.
         24    2    5    5    0    0 -0.13433114105E+03  0.24074606677E+02 -0.51551449801E+03  0.53931748179E+03  0.80521465207E+02 0.  0.
          5    1    5    5  501    0  0.22117403757E+02  0.59869022868E+02 -0.20328200047E+03  0.21311766976E+03  0.47000000000E+01 0. -1.
        -11    1    6    6    0    0 -0.15018638596E+02 -0.25208477444E+02 -0.99013287779E+02  0.10326983101E+03  0.00000000000E+00 0.  1.
         12    1    6    6    0    0 -0.11931250245E+03  0.49283084121E+02 -0.41650121023E+03  0.43604765077E+03  0.00000000000E+00 0. -1.
         -5    1    3    3    0  503  0.62132334152E+02  0.35339518117E+02 -0.41299982754E+03  0.41916614372E+03  0.47000000000E+01 0.  1.
         13    1    4    4    0    0  0.68667605434E+01 -0.19071346376E+02 -0.36120748365E+03  0.36177577986E+03  0.00000000000E+00 0. -1.
        -14    1    4    4    0    0  0.43214642594E+02 -0.10021180129E+03 -0.41206986776E+03  0.42627630285E+03  0.00000000000E+00 0.  1.
</event>
<event>
12    1  0.1565987E-001  0.2279329E+03  0.7818608E-02  0.1128127E+00
         21   -1    0    0  501  502  0.00000000000E+00  0.00000000000E+00  0.47471231512E+03  0.47471231512E+03  0.00000000000E+00 0.  1.
         21   -1    0    0  502  503 -0.00000000000E+00 -0.00000000000E+00 -0.11155912072E+03  0.11155912072E+03  0.00000000000E+00 0.  1.
         -6    2    1    2    0  503 -0.14349252114E+03 -0.43185878250E+02  0.22262920668E+03  0.31861756305E+03  0.17175058694E+03 0.  0.
        -24    2    3    3    0    0 -0.69536411488E+02  0.40951848919E+02  0.83805701503E+02  0.14017228046E+03  0.78182518204E+02 0.  0.
          6    2    1    2  501    0  0.14349252114E+03  0.43185878250E+02  0.14052398772E+03  0.26765387279E+03  0.17157062916E+03 0.  0.
         24    2    5    5    0    0  0.10279137889E+03  0.42877150059E+02  0.16881226907E+03  0.21786436430E+03  0.81010995999E+02 0.  0.
          5    1    5    5  501    0  0.40701142248E+02  0.30872819186E+00 -0.28288281352E+02  0.49789508485E+02  0.47000000000E+01 0. -1.
        -13    1    6    6    0    0  0.23543481394E+02  0.15983525696E+02 -0.10820454666E+01  0.28476998300E+02  0.00000000000E+00 0.  1.
         14    1    6    6    0    0  0.79247897496E+02  0.26893624362E+02  0.16989431454E+03  0.18938736600E+03  0.00000000000E+00 0. -1.
         -5    1    3    3    0  503 -0.73956109649E+02 -0.84137727169E+02  0.13882350518E+03  0.17844528259E+03  0.47000000000E+01 0.  1.
         13    1    4    4    0    0  0.97613884425E+01 -0.10620685199E+02  0.10067836279E+01  0.14460196116E+02  0.00000000000E+00 0. -1.
        -14    1    4    4    0    0 -0.79297799931E+02  0.51572534118E+02  0.82798917875E+02  0.12571208435E+03  0.00000000000E+00 0.  1.
</event>
<event>
12    1  0.1565987E-001  0.5534437E+03  0.7818608E-02  0.1000708E+00
         21   -1    0    0  501  502  0.00000000000E+00  0.00000000000E+00  0.21968854011E+03  0.21968854011E+03  0.00000000000E+00 0. -1.
         21   -1    0    0  502  503 -0.00000000000E+00 -0.00000000000E+00 -0.14992237996E+04  0.14992237996E+04  0.00000000000E+00 0.  1.
         -6    2    1    2    0  503 -0.50684862626E+03 -0.14007587544E+03 -0.41203934374E+03  0.68998288633E+03  0.17257804558E+03 0.  0.
        -24    2    3    3    0    0 -0.42099815784E+03 -0.14547168873E+03 -0.27943268851E+03  0.53184992727E+03  0.79876508470E+02 0.  0.
          6    2    1    2  501    0  0.50684862626E+03  0.14007587544E+03 -0.86749591572E+03  0.10289294534E+04  0.17213330698E+03 0.  0.
         24    2    5    5    0    0  0.27594239051E+03  0.79920248885E+02 -0.60151288385E+03  0.67157045689E+03  0.81594608058E+02 0.  0.
          5    1    5    5  501    0  0.23090623575E+03  0.60155626553E+02 -0.26598303187E+03  0.35735899647E+03  0.47000000000E+01 0. -1.
        -13    1    6    6    0    0  0.24224357322E+03  0.39950666069E+02 -0.47550322059E+03  0.53514607097E+03  0.00000000000E+00 0.  1.
         14    1    6    6    0    0  0.33698817286E+02  0.39969582816E+02 -0.12600966326E+03  0.13642438591E+03  0.00000000000E+00 0. -1.
         -5    1    3    3    0  503 -0.85850468416E+02  0.53958132916E+01 -0.13260665522E+03  0.15813295905E+03  0.47000000000E+01 0.  1.
         11    1    4    4    0    0 -0.21948223430E+03 -0.55095579637E+02 -0.10048602520E+03  0.24759930397E+03  0.00000000000E+00 0. -1.
        -12    1    4    4    0    0 -0.20151592354E+03 -0.90376109092E+02 -0.17894666331E+03  0.28425062330E+03  0.00000000000E+00 0.  1.
</event>
<event>
12    1  0.1565987E-001  0.2051719E+03  0.7818608E-02  0.1145900E+00
         21   -1    0    0  501  502  0.00000000000E+00  0.00000000000E+00  0.41480145990E+03  0.41480145990E+03  0.00000000000E+00 0. -1.
         21   -1    0    0  502  503 -0.00000000000E+00 -0.00000000000E+00 -0.16637830669E+03  0.16637830669E+03  0.00000000000E+00 0. -1.
         -6    2    1    2    0  503  0.97790988559E+02  0.49768955029E+02 -0.59191779743E+02  0.21141974954E+03  0.17074723242E+03 0.  0.
        -24    2    3    3    0    0  0.84022818088E+02  0.54254274340E+02 -0.10370635435E+03  0.16437383623E+03  0.79122625475E+02 0.  0.
          6    2    1    2  501    0 -0.97790988559E+02 -0.49768955029E+02  0.30761493295E+03  0.36976001705E+03  0.17336521250E+03 0.  0.
         24    2    5    5    0    0 -0.10504805768E+03  0.12302198390E+02  0.14937915535E+03  0.19956558573E+03  0.79535227711E+02 0.  0.
          5    1    5    5  501    0  0.72570691232E+01 -0.62071153419E+02  0.15823577760E+03  0.17019443132E+03  0.47000000000E+01 0. -1.
        -11    1    6    6    0    0 -0.73730207044E+02  0.25213958279E+02  0.45346131153E+02  0.90156301684E+02  0.00000000000E+00 0.  1.
         12    1    6    6    0    0 -0.31317850638E+02 -0.12911759889E+02  0.10403302420E+03  0.10940928405E+03  0.00000000000E+00 0. -1.
         -5    1    3    3    0  503  0.13768170471E+02 -0.44853193112E+01  0.44514574603E+02  0.47045913313E+02  0.47000000000E+01 0.  1.
         11    1    4    4    0    0  0.68930688784E+02  0.11063471343E+02 -0.26586541785E+02  0.74703978866E+02  0.00000000000E+00 0. -1.
        -12    1    4    4    0    0  0.15092129304E+02  0.43190802997E+02 -0.77119812561E+02  0.89669857365E+02  0.00000000000E+00 0.  1.
</event>
<event>
12    1  0.1565987E-001  0.2271592E+03  0.7818608E-02  0.1129026E+00
         21   -1    0    0  501  502  0.00000000000E+00  0.00000000000E+00  0.23257330279E+03  0.23257330279E+03  0.00000000000E+00 0.  1.
         21   -1    0    0  502  503 -0.00000000000E+00 -0.00000000000E+00 -0.69273548677E+03  0.69273548677E+03  0.00000000000E+00 0.  1.
         -6    2    1    2    0  503  0.80730522315E+02 -0.12076751696E+03 -0.61199556521E+03  0.65207869001E+03  0.17194718881E+03 0.  0.
        -24    2    3    3    0    0  0.11101856105E+03 -0.66217356841E+02 -0.31377091089E+03  0.34736059126E+03  0.74144026032E+02 0.  0.
          6    2    1    2  501    0 -0.80730522315E+02  0.12076751696E+03  0.15183338123E+03  0.27323009955E+03  0.17463991886E+03 0.  0.
         24    2    5    5    0    0 -0.33258409176E+02  0.10647398417E+03  0.17013330644E+03  0.22017462039E+03  0.84194360985E+02 0.  0.
          5    1    5    5  501    0 -0.47472113139E+02  0.14293532793E+02 -0.18299925209E+02  0.53055479153E+02  0.47000000000E+01 0. -1.
        -11    1    6    6    0    0 -0.42842796186E+02  0.37530390726E+02  0.31594767869E+02  0.65132670525E+02  0.00000000000E+00 0.  1.
         12    1    6    6    0    0  0.95843870096E+01  0.68943593441E+02  0.13853853857E+03  0.15504194987E+03  0.00000000000E+00 0. -1.
         -5    1    3    3    0  503 -0.30288038736E+02 -0.54550160119E+02 -0.29822465432E+03  0.30471809875E+03  0.47000000000E+01 0.  1.
         11    1    4    4    0    0  0.98166222364E+02 -0.46424007787E+02 -0.30211766143E+03  0.32104030442E+03  0.00000000000E+00 0. -1.
        -12    1    4    4    0    0  0.12852338686E+02 -0.19793349054E+02 -0.11653249455E+02  0.26320286839E+02  0.00000000000E+00 0.  1.
</event>
<event>
12    1  0.1565987E-001  0.1935933E+03  0.7818608E-02  0.1155509E+00
         21   -1    0    0  503  502  0.00000000000E+00  0.00000000000E+00  0.13255694458E+03  0.13255694458E+03  0.00000000000E+00 0. -1.
         21   -1    0    0  501  503 -0.00000000000E+00 -0.00000000000E+00 -0.28267824393E+03  0.28267824393E+03  0.00000000000E+00 0.  1.
          6    2    1    2  501    0  0.72972686551E+02 -0.56108875475E+02 -0.90850252306E+02  0.21385073689E+03  0.17030898518E+03 0.  0.
         24    2    3    3    0    0 -0.17039309157E+02  0.11371598709E+02 -0.24693020282E+02  0.83257310113E+02  0.76826968721E+02 0.  0.
         -6    2    1    2    0  502 -0.72972686551E+02  0.56108875475E+02 -0.59271047037E+02  0.20138445162E+03  0.16902491369E+03 0.  0.
        -24    2    5    5    0    0  0.23057763223E+01  0.52219558992E+02 -0.76061758633E+02  0.12401526040E+03  0.82838365140E+02 0.  0.
          5    1    3    3  501    0  0.90011995707E+02 -0.67480474184E+02 -0.66157232025E+02  0.13059342677E+03  0.47000000000E+01 0. -1.
        -11    1    4    4    0    0 -0.19592964385E+02 -0.30831347885E+02 -0.59608550154E+01  0.37013349731E+02  0.00000000000E+00 0.  1.
         12    1    4    4    0    0  0.25536552290E+01  0.42202946594E+02 -0.18732165266E+02  0.46243960382E+02  0.00000000000E+00 0. -1.
         -5    1    5    5    0  502 -0.75278462873E+02  0.38893164828E+01  0.16790711596E+02  0.77369191227E+02  0.47000000000E+01 0.  1.
         11    1    6    6    0    0  0.22358677686E+02 -0.97416229882E+01 -0.68108414904E+00  0.24398228664E+02  0.00000000000E+00 0. -1.
        -12    1    6    6    0    0 -0.20052901364E+02  0.61961181980E+02 -0.75380674484E+02  0.99617031732E+02  0.00000000000E+00 0.  1.
</event>
<event>
12    1  0.1565987E-001  0.3952624E+03  0.7818608E-02  0.1045485E+00
         21   -1    0    0  503  502  0.00000000000E+00  0.00000000000E+00  0.33294898880E+03  0.33294898880E+03  0.00000000000E+00 0.  1.
         21   -1    0    0  501  503 -0.00000000000E+00 -0.00000000000E+00 -0.46889889406E+03  0.46889889406E+03  0.00000000000E+00 0. -1.
          6    2    1    2  501    0  0.32625032084E+03  0.14100128537E+03 -0.56878581684E+02  0.39933387810E+03  0.17295010499E+03 0.  0.
         24    2    3    3    0    0  0.73790746697E+02  0.41289915961E+02 -0.53362003012E+02  0.12783314128E+03  0.79648460036E+02 0.  0.
         -6    2    1    2    0  502 -0.32625032084E+03 -0.14100128537E+03 -0.79071323583E+02  0.40251400476E+03  0.17159433408E+03 0.  0.
        -24    2    5    5    0    0 -0.21502236906E+03 -0.77921368591E+02 -0.11681636900E+03  0.26910669007E+03  0.80411365471E+02 0.  0.
          5    1    3    3  501    0  0.25245957415E+03  0.99711369406E+02 -0.35165786720E+01  0.27150073682E+03  0.47000000000E+01 0. -1.
        -13    1    4    4    0    0  0.20374564443E+02 -0.22266723417E+02 -0.20882399266E+01  0.30253769913E+02  0.00000000000E+00 0.  1.
         14    1    4    4    0    0  0.53416182253E+02  0.63556639378E+02 -0.51273763086E+02  0.97579371367E+02  0.00000000000E+00 0. -1.
         -5    1    5    5    0  502 -0.11122795178E+03 -0.63079916776E+02  0.37745045418E+02  0.13340731469E+03  0.47000000000E+01 0.  1.
         13    1    6    6    0    0 -0.31483303180E+02 -0.46383982732E+02 -0.30945086491E+02  0.64033355457E+02  0.00000000000E+00 0. -1.
        -14    1    6    6    0    0 -0.18353906588E+03 -0.31537385859E+02 -0.85871282510E+02  0.20507333462E+03  0.00000000000E+00 0.  1.
</event>
<event>
12    1  0.1565987E-001  0.2465511E+03  0.7818608E-02  0.1115705E+00
         21   -1    0    0  501  502  0.00000000000E+00  0.00000000000E+00  0.35972060751E+03  0.35972060751E+03  0.00000000000E+00 0. -1.
         21   -1    0    0  502  503 -0.00000000000E+00 -0.00000000000E+00 -0.19455604395E+03  0.19455604395E+03  0.00000000000E+00 0. -1.
         -6    2    1    2    0  503 -0.67039284495E+02 -0.16321310588E+03  0.18489973025E+03  0.30818074926E+03  0.17220534361E+03 0.  0.
        -24    2    3    3    0    0 -0.67238864780E+02 -0.16356167032E+03  0.86055226978E+02  0.20922375275E+03  0.71383413282E+02 0.  0.
          6    2    1    2  501    0  0.67039284495E+02  0.16321310588E+03 -0.19735166691E+02  0.24609590221E+03  0.17041400377E+03 0.  0.
         24    2    5    5    0    0  0.96932992710E+02  0.15223966469E+03  0.18026747707E+02  0.19647632561E+03  0.75531862900E+02 0.  0.
          5    1    5    5  501    0 -0.29893708215E+02  0.10973441196E+02 -0.37761914398E+02  0.49619576596E+02  0.47000000000E+01 0. -1.
        -13    1    6    6    0    0  0.19077992148E+02  0.38421254152E+02  0.37790133549E+02  0.57168669292E+02  0.00000000000E+00 0.  1.
         14    1    6    6    0    0  0.77855000563E+02  0.11381841053E+03 -0.19763385842E+02  0.13930765632E+03  0.00000000000E+00 0. -1.
         -5    1    3    3    0  503  0.19958028505E+00  0.34856443680E+00  0.98844503273E+02  0.98956996502E+02  0.47000000000E+01 0.  1.
         11    1    4    4    0    0 -0.60235290222E+02 -0.15164055899E+03  0.98524864389E+02  0.19060508446E+03  0.00000000000E+00 0. -1.
        -12    1    4    4    0    0 -0.70035745585E+01 -0.11921111331E+02 -0.12469637411E+02  0.18618668296E+02  0.00000000000E+00 0.  1.
</event>
<event>
12    1  0.1565987E-001  0.1870045E+03  0.7818608E-02  0.1161360E+00
         21   -1    0    0  503  502  0.00000000000E+00  0.00000000000E+00  0.13629545159E+03  0.13629545159E+03  0.00000000000E+00 0.  1.
         21   -1    0    0  501  503 -0.00000000000E+00 -0.00000000000E+00 -0.38447622809E+03  0.38447622809E+03  0.00000000000E+00 0.  1.
          6    2    1    2  501    0  0.57827364127E+02 -0.43201339578E+02 -0.27469506598E+03  0.33189690310E+03  0.17172016546E+03 0.  0.
         24    2    3    3    0    0  0.77469560923E+02 -0.83538152945E+02 -0.22341127659E+03  0.26359616033E+03  0.81179932054E+02 0.  0.
         -6    2    1    2    0  502 -0.57827364127E+02  0.43201339578E+02  0.26514289485E+02  0.18887477658E+03  0.17251177901E+03 0.  0.
        -24    2    5    5    0    0  0.88209469590E+01  0.64874522440E+02  0.49319791595E+02  0.11502421698E+03  0.80694583972E+02 0.  0.
          5    1    3    3  501    0 -0.19642196796E+02  0.40336813367E+02 -0.51283789398E+02  0.68300742768E+02  0.47000000000E+01 0. -1.
        -11    1    4    4    0    0  0.24766548135E+02 -0.37470588116E+02 -0.16919886940E+03  0.17505908799E+03  0.00000000000E+00 0.  1.
         12    1    4    4    0    0  0.52703012788E+02 -0.46067564829E+02 -0.54212407181E+02  0.88537072340E+02  0.00000000000E+00 0. -1.
         -5    1    5    5    0  502 -0.66648311086E+02 -0.21673182862E+02 -0.22805502110E+02  0.73850559595E+02  0.47000000000E+01 0.  1.
         11    1    6    6    0    0  0.20997518282E+02  0.16179664835E+02 -0.17268614189E+02  0.31636724928E+02  0.00000000000E+00 0. -1.
        -12    1    6    6    0    0 -0.12176571323E+02  0.48694857605E+02  0.66588405783E+02  0.83387492054E+02  0.00000000000E+00 0.  1.
</event>
<event>
12    1  0.1565987E-001  0.1833683E+03  0.7818608E-02  0.1164718E+00
         21   -1    0    0  501  502  0.00000000000E+00  0.00000000000E+00  0.11857452239E+04  0.11857452239E+04  0.00000000000E+00 0.  1.
         21   -1    0    0  502  503 -0.00000000000E+00 -0.00000000000E+00 -0.29836129935E+02  0.29836129935E+02  0.00000000000E+00 0.  1.
         -6    2    1    2    0  503  0.26557997918E+02 -0.57094283598E+02  0.43947827802E+03  0.47619857469E+03  0.17221742425E+03 0.  0.
        -24    2    3    3    0    0  0.78050681194E+01  0.37063806344E+02  0.19534040921E+03  0.21381944582E+03  0.78270269667E+02 0.  0.
          6    2    1    2  501    0 -0.26557997918E+02  0.57094283598E+02  0.71643081594E+03  0.73938277913E+03  0.17160622245E+03 0.  0.
         24    2    5    5    0    0 -0.88806661452E+01 -0.34120699965E+02  0.40612923094E+03  0.41543552272E+03  0.80016454051E+02 0.  0.
          5    1    5    5  501    0 -0.17677331773E+02  0.91214983563E+02  0.31030158500E+03  0.32394725641E+03  0.47000000000E+01 0. -1.
        -13    1    6    6    0    0 -0.13282387918E+02  0.23088025889E+02  0.80570381383E+02  0.84859089816E+02  0.00000000000E+00 0.  1.
         14    1    6    6    0    0  0.44017217728E+01 -0.57208725854E+02  0.32555884955E+03  0.33057643290E+03  0.00000000000E+00 0. -1.
         -5    1    3    3    0  503  0.18752929799E+02 -0.94158089942E+02  0.24413786881E+03  0.26237912887E+03  0.47000000000E+01 0.  1.
         13    1    4    4    0    0  0.45991589782E+01  0.39947430420E+02  0.34677725748E+02  0.53098908873E+02  0.00000000000E+00 0. -1.
        -14    1    4    4    0    0  0.32059091412E+01 -0.28836240757E+01  0.16066268346E+03  0.16072053695E+03  0.00000000000E+00 0.  1.
</event>
<event>
12    1  0.1565987E-001  0.1981760E+03  0.7818608E-02  0.1151340E+00
         21   -1    0    0  503  502  0.00000000000E+00  0.00000000000E+00  0.10833725468E+03  0.10833725468E+03  0.00000000000E+00 0.  1.
         21   -1    0    0  501  503 -0.00000000000E+00 -0.00000000000E+00 -0.51625114245E+03  0.51625114245E+03  0.00000000000E+00 0.  1.
          6    2    1    2  501    0  0.98856844876E+02 -0.71536459048E+01 -0.37472013377E+03  0.42389729642E+03  0.17160969910E+03 0.  0.
         24    2    3    3    0    0  0.38794798449E+02 -0.63928876066E+02 -0.26164799607E+03  0.28376066842E+03  0.80427019808E+02 0.  0.
         -6    2    1    2    0  502 -0.98856844876E+02  0.71536459048E+01 -0.33193754003E+02  0.20069110071E+03  0.17132204228E+03 0.  0.
        -24    2    5    5    0    0 -0.10254650722E+03 -0.50991426552E+02 -0.25120384713E+02  0.14168489468E+03  0.79546614805E+02 0.  0.
          5    1    3    3  501    0  0.60062046426E+02  0.56775230161E+02 -0.11307213770E+03  0.14013662799E+03  0.47000000000E+01 0. -1.
        -13    1    4    4    0    0  0.60453545005E+02 -0.25469100338E+02 -0.15101335477E+03  0.16464610379E+03  0.00000000000E+00 0.  1.
         14    1    4    4    0    0 -0.21658746555E+02 -0.38459775728E+02 -0.11063464130E+03  0.11911456463E+03  0.00000000000E+00 0. -1.
         -5    1    5    5    0  502  0.36896623434E+01  0.58145072456E+02 -0.80733692907E+01  0.59006206037E+02  0.47000000000E+01 0.  1.
         11    1    6    6    0    0 -0.13827193164E+02 -0.33608567823E+02 -0.35353919510E+02  0.50701348371E+02  0.00000000000E+00 0. -1.
        -12    1    6    6    0    0 -0.88719314055E+02 -0.17382858729E+02  0.10233534797E+02  0.90983546306E+02  0.00000000000E+00 0.  1.
</event>
<event>
12    1  0.1565987E-001  0.1861898E+03  0.7818608E-02  0.1162128E+00
         21   -1    0    0  501  502  0.00000000000E+00  0.00000000000E+00  0.11815730214E+04  0.11815730214E+04  0.00000000000E+00 0.  1.
         21   -1    0    0  502  503 -0.00000000000E+00 -0.00000000000E+00 -0.50348508801E+02  0.50348508801E+02  0.00000000000E+00 0.  1.
         -6    2    1    2    0  503 -0.39255534488E+02  0.61021360304E+02  0.16583693957E+03  0.24874311227E+03  0.17060668795E+03 0.  0.
        -24    2    3    3    0    0 -0.61750578622E+02  0.78840342608E+01  0.39012555574E+02  0.10932963801E+03  0.80967266830E+02 0.  0.
          6    2    1    2  501    0  0.39255534488E+02 -0.61021360304E+02  0.96538757298E+03  0.98317841789E+03  0.17147020711E+03 0.  0.
         24    2    5    5    0    0 -0.26180430519E+02  0.70043278389E+01  0.32839466902E+03  0.33921303880E+03  0.80547821199E+02 0.  0.
          5    1    5    5  501    0  0.65435965008E+02 -0.68025688143E+02  0.63699290397E+03  0.64396537909E+03  0.47000000000E+01 0. -1.
        -11    1    6    6    0    0 -0.37398024932E+02 -0.63161818852E+00  0.32208222599E+03  0.32424677563E+03  0.00000000000E+00 0.  1.
         12    1    6    6    0    0  0.11217594412E+02  0.76359460274E+01  0.63124430306E+01  0.14966263166E+02  0.00000000000E+00 0. -1.
         -5    1    3    3    0  503  0.22495044134E+02  0.53137326043E+02  0.12682438399E+03  0.13941347426E+03  0.47000000000E+01 0.  1.
         11    1    4    4    0    0 -0.14403837168E+02 -0.25870958598E+02 -0.12026685271E+02  0.31959633643E+02  0.00000000000E+00 0. -1.
        -12    1    4    4    0    0 -0.47346741454E+02  0.33754992859E+02  0.51039240845E+02  0.77370004364E+02  0.00000000000E+00 0.  1.
</event>
<event>
12    1  0.1565987E-001  0.1962439E+03  0.7818608E-02  0.1153013E+00
         21   -1    0    0  503  502  0.00000000000E+00  0.00000000000E+00  0.15631446263E+03  0.15631446263E+03  0.00000000000E+00 0. -1.
         21   -1    0    0  501  503 -0.00000000000E+00 -0.00000000000E+00 -0.46101692460E+03  0.46101692460E+03  0.00000000000E+00 0.  1.
          6    2    1    2  501    0 -0.20621338048E+02 -0.91253281689E+02 -0.36321614027E+03  0.41284090786E+03  0.17250869443E+03 0.  0.
         24    2    3    3    0    0 -0.67763315371E+02 -0.77243733573E+02 -0.32612439075E+03  0.35106290736E+03  0.79558691502E+02 0.  0.
         -6    2    1    2    0  502  0.20621338048E+02  0.91253281689E+02  0.58513678298E+02  0.20449047937E+03  0.17216301752E+03 0.  0.
        -24    2    5    5    0    0 -0.48298717886E+02  0.69422914018E+02  0.63813939375E+02  0.13184943153E+03  0.78484053140E+02 0.  0.
          5    1    3    3  501    0  0.47141977322E+02 -0.14009548115E+02 -0.37091749512E+02  0.61778000502E+02  0.47000000000E+01 0. -1.
        -13    1    4    4    0    0 -0.79745444199E+01 -0.30616790004E+02 -0.24390037637E+02  0.39948155461E+02  0.00000000000E+00 0.  1.
         14    1    4    4    0    0 -0.59788770951E+02 -0.46626943570E+02 -0.30173435312E+03  0.31111475190E+03  0.00000000000E+00 0. -1.
         -5    1    5    5    0  502  0.68920055934E+02  0.21830367671E+02 -0.53002610771E+01  0.72641047832E+02  0.47000000000E+01 0.  1.
         13    1    6    6    0    0 -0.34960976802E+02  0.86425988294E+02  0.46633476264E+02  0.10424203787E+03  0.00000000000E+00 0. -1.
        -14    1    6    6    0    0 -0.13337741084E+02 -0.17003074276E+02  0.17180463111E+02  0.27607393661E+02  0.00000000000E+00 0.  1.
</event>
<event>
12    1  0.1565987E-001  0.1981727E+03  0.7818608E-02  0.1151457E+00
         21   -1    0    0  501  502  0.00000000000E+00  0.00000000000E+00  0.71659628083E+03  0.71659628083E+03  0.00000000000E+00 0. -1.
         21   -1    0    0  502  503 -0.00000000000E+00 -0.00000000000E+00 -0.61414017135E+02  0.61414017135E+02  0.00000000000E+00 0. -1.
         -6    2    1    2    0  503 -0.50507755577E+02 -0.83976906499E+02  0.19848319092E+03  0.28047814169E+03  0.17224766092E+03 0.  0.
        -24    2    3    3    0    0 -0.76061504670E+02 -0.94660041911E+01  0.15453210951E+03  0.19015286166E+03  0.80018624096E+02 0.  0.
          6    2    1    2  501    0  0.50507755577E+02  0.83976906499E+02  0.45669907278E+03  0.49753215627E+03  0.17135066165E+03 0.  0.
         24    2    5    5    0    0  0.11080118725E+02  0.10688390170E+03  0.22921168941E+03  0.26547210247E+03  0.79940610176E+02 0.  0.
          5    1    5    5  501    0  0.39427636852E+02 -0.22906995198E+02  0.22748738337E+03  0.23206005380E+03  0.47000000000E+01 0. -1.
        -11    1    6    6    0    0  0.29606036919E+01  0.38490729691E+02  0.17097027209E+03  0.17527445731E+03  0.00000000000E+00 0.  1.
         12    1    6    6    0    0  0.81195150336E+01  0.68393172007E+02  0.58241417322E+02  0.90197645165E+02  0.00000000000E+00 0. -1.
         -5    1    3    3    0  503  0.25553749093E+02 -0.74510902308E+02  0.43951081407E+02  0.90325280029E+02  0.47000000000E+01 0.  1.
         11    1    4    4    0    0  0.48491350560E+01  0.23046649023E+02  0.30433747583E+02  0.38482140454E+02  0.00000000000E+00 0. -1.
        -12    1    4    4    0    0 -0.80910639726E+02 -0.32512653214E+02  0.12409836193E+03  0.15167072121E+03  0.00000000000E+00 0.  1.
</event>
<event>
12    1  0.1565987E-001  0.1844433E+03  0.7818608E-02  0.1163906E+00
         21   -1    0    0  503  502  0.00000000000E+00  0.00000000000E+00  0.21435830482E+03  0.21435830482E+03  0.00000000000E+00 0.  1.
         21   -1    0    0  501  503 -0.00000000000E+00 -0.00000000000E+00 -0.15862991085E+03  0.15862991085E+03  0.00000000000E+00 0.  1.
          6    2    1    2  501    0 -0.25700766136E+02 -0.55238032667E+02  0.12092678970E+02  0.18483931602E+03  0.17409069542E+03 0.  0.
         24    2    3    3    0    0  0.51284623200E+02 -0.13773271655E+02 -0.39297802630E+01  0.95817488494E+02  0.79660105069E+02 0.  0.
         -6    2    1    2    0  502  0.25700766136E+02  0.55238032667E+02  0.43635714997E+02  0.18814889964E+03  0.17258088880E+03 0.  0.
        -24    2    5    5    0    0 -0.14165233226E+02  0.88061043173E+02  0.58683295356E+02  0.13415660761E+03  0.81233398647E+02 0.  0.
          5    1    3    3  501    0 -0.76985389336E+02 -0.41464761011E+02  0.16022459233E+02  0.89021827530E+02  0.47000000000E+01 0. -1.
        -11    1    4    4    0    0  0.47427165441E+02  0.27027854157E+02  0.54679543287E+00  0.54590657693E+02  0.00000000000E+00 0.  1.
         12    1    4    4    0    0  0.38574577586E+01 -0.40801125813E+02 -0.44765756959E+01  0.41226830801E+02  0.00000000000E+00 0. -1.
         -5    1    5    5    0  502  0.39865999362E+02 -0.32823010506E+02 -0.15047580359E+02  0.53992292029E+02  0.47000000000E+01 0.  1.
         13    1    6    6    0    0  0.24706115652E+02  0.63531324628E+02  0.55817374183E+02  0.88103351925E+02  0.00000000000E+00 0. -1.
        -14    1    6    6    0    0 -0.38871348878E+02  0.24529718544E+02  0.28659211723E+01  0.46053255690E+02  0.00000000000E+00 0.  1.
</event>
<event>
12    1  0.1565987E-001  0.2002761E+03  0.7818608E-02  0.1151218E+00
         21   -1    0    0  503  502  0.00000000000E+00  0.00000000000E+00  0.13091942673E+03  0.13091942673E+03  0.00000000000E+00 0.  1.
         21   -1    0    0  501  503 -0.00000000000E+00 -0.00000000000E+00 -0.31023796631E+03  0.31023796631E+03  0.00000000000E+00 0. -1.
          6    2    1    2  501    0  0.10056610054E+03 -0.12742571866E+02 -0.13788265622E+03  0.23663977140E+03  0.16343451534E+03 0.  0.
         24    2    3    3    0    0  0.55417018262E+02  0.41730977709E+02 -0.12664088831E+03  0.16484649470E+03  0.79523152647E+02 0.  0.
         -6    2    1    2    0  502 -0.10056610054E+03  0.12742571866E+02 -0.41435883360E+02  0.20451762164E+03  0.17272698520E+03 0.  0.
        -24    2    5    5    0    0 -0.54081060362E+02  0.48840030077E+02 -0.80173827912E+02  0.13390173251E+03  0.78687493672E+02 0.  0.
          5    1    3    3  501    0  0.45149082276E+02 -0.54473549575E+02 -0.11241767909E+02  0.71793276700E+02  0.47000000000E+01 0. -1.
        -11    1    4    4    0    0  0.47700184004E+02  0.15799034816E+02 -0.18778837132E+02  0.53642909869E+02  0.00000000000E+00 0.  1.
         12    1    4    4    0    0  0.77168342577E+01  0.25931942893E+02 -0.10786205118E+03  0.11120358483E+03  0.00000000000E+00 0. -1.
         -5    1    5    5    0  502 -0.46485040176E+02 -0.36097458211E+02  0.38737944552E+02  0.70615889130E+02  0.47000000000E+01 0.  1.
         13    1    6    6    0    0  0.12402745832E+02  0.26212452538E+02 -0.49277783271E+02  0.57177099405E+02  0.00000000000E+00 0. -1.
        -14    1    6    6    0    0 -0.66483806194E+02  0.22627577539E+02 -0.30896044641E+02  0.76724633109E+02  0.00000000000E+00 0.  1.
</event>
<event>
12    1  0.1565987E-001  0.2476434E+03  0.7818608E-02  0.1114832E+00
         21   -1    0    0  501  502  0.00000000000E+00  0.00000000000E+00  0.80610936403E+03  0.80610936403E+03  0.00000000000E+00 0.  1.
         21   -1    0    0  502  503 -0.00000000000E+00 -0.00000000000E+00 -0.15257367470E+03  0.15257367470E+03  0.00000000000E+00 0.  1.
         -6    2    1    2    0  503 -0.91516672001E+02  0.15285048969E+03 -0.12704125052E+02  0.24796902255E+03  0.17201356893E+03 0.  0.
        -24    2    3    3    0    0  0.16353302208E+02  0.93914778684E+02  0.50255916995E+01  0.12368796114E+03  0.78651376413E+02 0.  0.
          6    2    1    2  501    0  0.91516672001E+02 -0.15285048969E+03  0.66623981438E+03  0.71071401618E+03  0.17175665657E+03 0.  0.
         24    2    5    5    0    0  0.62063895309E+02 -0.24387757800E+02  0.17509404945E+03  0.20217061395E+03  0.75949596193E+02 0.  0.
          5    1    5    5  501    0  0.29452776692E+02 -0.12846273189E+03  0.49114576493E+03  0.50854340222E+03  0.47000000000E+01 0. -1.
        -13    1    6    6    0    0  0.54491756919E+02  0.18362225814E+02  0.10521227851E+03  0.11990056905E+03  0.00000000000E+00 0.  1.
         14    1    6    6    0    0  0.75721383899E+01 -0.42749983615E+02  0.69881770946E+02  0.82270044909E+02  0.00000000000E+00 0. -1.
         -5    1    3    3    0  503 -0.10786997421E+03  0.58935711009E+02 -0.17729716752E+02  0.12428106141E+03  0.47000000000E+01 0.  1.
         11    1    4    4    0    0  0.36128509492E+01  0.10556700613E+03 -0.26847279087E+00  0.10562915106E+03  0.00000000000E+00 0. -1.
        -12    1    4    4    0    0  0.12740451258E+02 -0.11652227450E+02  0.52940644903E+01  0.18058810084E+02  0.00000000000E+00 0.  1.
</event>
<event>
12    1  0.1565987E-001  0.2553589E+03  0.7818608E-02  0.1112378E+00
         21   -1    0    0  503  502  0.00000000000E+00  0.00000000000E+00  0.12614385504E+03  0.12614385504E+03  0.00000000000E+00 0. -1.
         21   -1    0    0  501  503 -0.00000000000E+00 -0.00000000000E+00 -0.48787338005E+03  0.48787338005E+03  0.00000000000E+00 0.  1.
          6    2    1    2  501    0 -0.74188810016E+02  0.15200987042E+03 -0.15987740266E+03  0.28851385110E+03  0.17049480390E+03 0.  0.
         24    2    3    3    0    0 -0.68382115678E+02  0.28290104917E+02 -0.38956764785E+02  0.11535441953E+03  0.79451675894E+02 0.  0.
         -6    2    1    2    0  502  0.74188810016E+02 -0.15200987042E+03 -0.20185212235E+03  0.32550338399E+03  0.19130392953E+03 0.  0.
        -24    2    5    5    0    0 -0.37081814376E+02 -0.10159305671E+03 -0.85720317184E+02  0.15688638269E+03  0.74626765743E+02 0.  0.
          5    1    3    3  501    0 -0.58066943388E+01  0.12371976550E+03 -0.12092063788E+03  0.17315943156E+03  0.47000000000E+01 0. -1.
        -13    1    4    4    0    0 -0.10950536721E+02 -0.94151724301E+01 -0.44153597390E+02  0.46455353716E+02  0.00000000000E+00 0.  1.
         14    1    4    4    0    0 -0.57431578956E+02  0.37705277348E+02  0.51968326051E+01  0.68899065816E+02  0.00000000000E+00 0. -1.
         -5    1    5    5    0  502  0.11127062439E+03 -0.50416813707E+02 -0.11613180516E+03  0.16861700130E+03  0.47000000000E+01 0.  1.
         11    1    6    6    0    0 -0.12342995537E+02  0.42724900466E+01 -0.34139999495E+02  0.36553293635E+02  0.00000000000E+00 0. -1.
        -12    1    6    6    0    0 -0.24738818839E+02 -0.10586554676E+03 -0.51580317688E+02  0.12033308905E+03  0.00000000000E+00 0.  1.
</event>
<event>
12    1  0.1565987E-001  0.2366062E+03  0.7818608E-02  0.1122212E+00
         21   -1    0    0  501  502  0.00000000000E+00  0.00000000000E+00  0.43049474708E+03  0.43049474708E+03  0.00000000000E+00 0. -1.
         21   -1    0    0  502  503 -0.00000000000E+00 -0.00000000000E+00 -0.20724550714E+03  0.20724550714E+03  0.00000000000E+00 0. -1.
         -6    2    1    2    0  503 -0.14087493920E+03  0.80482942735E+02 -0.83435722351E+02  0.25088644908E+03  0.17221857624E+03 0.  0.
        -24    2    3    3    0    0 -0.60461829589E+01  0.49717079372E+02 -0.66304823007E+02  0.11145585857E+03  0.74281454924E+02 0.  0.
          6    2    1    2  501    0  0.14087493920E+03 -0.80482942735E+02  0.30668496229E+03  0.38685380515E+03  0.17110507852E+03 0.  0.
         24    2    5    5    0    0  0.61827338892E+02  0.21308894503E+02  0.16709969022E+03  0.19681107463E+03  0.80843081375E+02 0.  0.
          5    1    5    5  501    0  0.79047600308E+02 -0.10179183724E+03  0.13958527207E+03  0.19004273051E+03  0.47000000000E+01 0. -1.
        -11    1    6    6    0    0  0.19729358664E+01  0.26917969230E+02  0.10311585258E+02  0.28892876872E+02  0.00000000000E+00 0.  1.
         12    1    6    6    0    0  0.59854403025E+02 -0.56090747273E+01  0.15678810497E+03  0.16791819776E+03  0.00000000000E+00 0. -1.
         -5    1    3    3    0  503 -0.13482875624E+03  0.30765863363E+02 -0.17130899344E+02  0.13943059051E+03  0.47000000000E+01 0.  1.
         11    1    4    4    0    0 -0.33323725976E+02  0.83596061515E+01 -0.86297966075E+01  0.35423539030E+02  0.00000000000E+00 0. -1.
        -12    1    4    4    0    0  0.27277543017E+02  0.41357473221E+02 -0.57675026399E+02  0.76032319539E+02  0.00000000000E+00 0.  1.
</event>
<event>
12    1  0.1565987E-001  0.3008225E+03  0.7818608E-02  0.1084845E+00
         21   -1    0    0  501  502  0.00000000000E+00  0.00000000000E+00  0.36393632336E+03  0.36393632336E+03  0.00000000000E+00 0.  1.
         21   -1    0    0  502  503 -0.00000000000E+00 -0.00000000000E+00 -0.50736007281E+03  0.50736007281E+03  0.00000000000E+00 0. -1.
         -6    2    1    2    0  503  0.87378889575E+02  0.23032883589E+03 -0.38284912989E+03  0.48682446870E+03  0.17244756909E+03 0.  0.
        -24    2    3    3    0    0  0.11508648488E+03  0.22253251067E+03 -0.37271932752E+03  0.45595058944E+03  0.78775793215E+02 0.  0.
          6    2    1    2  501    0 -0.87378889575E+02 -0.23032883589E+03  0.23942538044E+03  0.38447192747E+03  0.17264908696E+03 0.  0.
         24    2    5    5    0    0 -0.12700598049E+03 -0.20138446733E+03  0.20870059675E+03  0.32638419091E+03  0.79274701089E+02 0.  0.
          5    1    5    5  501    0  0.39627090914E+02 -0.28944368554E+02  0.30724783697E+02  0.58087736558E+02  0.47000000000E+01 0. -1.
        -11    1    6    6    0    0 -0.66361729775E+02 -0.84424825506E+02  0.45458979696E+02  0.11661024473E+03  0.00000000000E+00 0.  1.
         12    1    6    6    0    0 -0.60644250714E+02 -0.11695964183E+03  0.16324161705E+03  0.20977394619E+03  0.00000000000E+00 0. -1.
         -5    1    3    3    0  503 -0.27707595308E+02  0.77963252146E+01 -0.10129802376E+02  0.30873879264E+02  0.47000000000E+01 0.  1.
         13    1    4    4    0    0  0.29616175737E+02  0.13788337072E+03 -0.17840150723E+03  0.22741160826E+03  0.00000000000E+00 0. -1.
        -14    1    4    4    0    0  0.85470309146E+02  0.84649139948E+02 -0.19431782028E+03  0.22853898118E+03  0.00000000000E+00 0.  1.
</event>
<event>
12    1  0.1565987E-001  0.2075121E+03  0.7818608E-02  0.1146642E+00
         21   -1    0    0  501  502  0.00000000000E+00  0.00000000000E+00  0.35768688744E+03  0.35768688744E+03  0.00000000000E+00 0.  1.
         21   -1    0    0  502  503 -0.00000000000E+00 -0.00000000000E+00 -0.11965774877E+03  0.11965774877E+03  0.00000000000E+00 0. -1.
         -6    2    1    2    0  503 -0.10938774468E+03  0.18939809621E+02  0.62661671959E+02  0.21676662775E+03  0.17531939625E+03 0.  0.
        -24    2    3    3    0    0 -0.18093718661E+02 -0.44000682543E+02  0.45801847034E+02  0.10450600047E+03  0.80995383968E+02 0.  0.
          6    2    1    2  501    0  0.10938774468E+03 -0.18939809621E+02  0.17536746671E+03  0.26057800846E+03  0.15755238824E+03 0.  0.
         24    2    5    5    0    0  0.88879445394E+02  0.17448895139E+01  0.19190719349E+03  0.22675346590E+03  0.81768960673E+02 0.  0.
          5    1    5    5  501    0  0.20508299285E+02 -0.20684699135E+02 -0.16539726782E+02  0.33824542567E+02  0.47000000000E+01 0. -1.
        -13    1    6    6    0    0  0.10417476851E+02  0.34160731228E+02  0.51357576157E+02  0.62554616222E+02  0.00000000000E+00 0.  1.
         14    1    6    6    0    0  0.78461968543E+02 -0.32415841714E+02  0.14054961733E+03  0.16419884967E+03  0.00000000000E+00 0. -1.
         -5    1    3    3    0  503 -0.91294026018E+02  0.62940492164E+02  0.16859824925E+02  0.11226062728E+03  0.47000000000E+01 0.  1.
         13    1    4    4    0    0 -0.30046162023E+02 -0.20435114131E+02 -0.14145860556E+02  0.38993218804E+02  0.00000000000E+00 0. -1.
        -14    1    4    4    0    0  0.11952443362E+02 -0.23565568412E+02  0.59947707589E+02  0.65512781670E+02  0.00000000000E+00 0.  1.
</event>
<event>
12    1  0.1565987E-001  0.2027422E+03  0.7818608E-02  0.1147708E+00
         21   -1    0    0  503  502  0.00000000000E+00  0.00000000000E+00  0.24339853282E+03  0.24339853282E+03  0.00000000000E+00 0.  1.
         21   -1    0    0  501  503 -0.00000000000E+00 -0.00000000000E+00 -0.20937800421E+03  0.20937800421E+03  0.00000000000E+00 0.  1.
          6    2    1    2  501    0 -0.92672747814E+02  0.51225717286E+02 -0.83795272942E+02  0.21937653765E+03  0.17289333477E+03 0.  0.
         24    2    3    3    0    0 -0.12095703281E+03  0.33825935447E+02 -0.10304341912E+03  0.18070698481E+03  0.79134508525E+02 0.  0.
         -6    2    1    2    0  502  0.92672747814E+02 -0.51225717286E+02  0.11781580155E+03  0.23339999938E+03  0.17141378100E+03 0.  0.
        -24    2    5    5    0    0  0.87669600793E+02  0.24236852630E+02  0.42919782122E+02  0.12685829550E+03  0.77314523292E+02 0.  0.
          5    1    3    3  501    0  0.28284284996E+02  0.17399781839E+02  0.19248146180E+02  0.38669552844E+02  0.47000000000E+01 0. -1.
        -11    1    4    4    0    0 -0.77806138514E+02  0.57367185768E+02 -0.83748989634E+02  0.12790106512E+03  0.00000000000E+00 0.  1.
         12    1    4    4    0    0 -0.43150894296E+02 -0.23541250321E+02 -0.19294429488E+02  0.52805919692E+02  0.00000000000E+00 0. -1.
         -5    1    5    5    0  502  0.50031470201E+01 -0.75462569916E+02  0.74896019426E+02  0.10654170387E+03  0.47000000000E+01 0.  1.
         11    1    6    6    0    0 -0.13958907295E+02  0.68191637857E+01  0.10577808231E+02  0.18794736353E+02  0.00000000000E+00 0. -1.
        -12    1    6    6    0    0  0.10162850809E+03  0.17417688845E+02  0.32341973891E+02  0.10806355915E+03  0.00000000000E+00 0.  1.
</event>
<event>
12    1  0.1565987E-001  0.1843368E+03  0.7818608E-02  0.1164402E+00
         21   -1    0    0  503  502  0.00000000000E+00  0.00000000000E+00  0.22611140566E+03  0.22611140566E+03  0.00000000000E+00 0.  1.
         21   -1    0    0  501  503 -0.00000000000E+00 -0.00000000000E+00 -0.36398459130E+03  0.36398459130E+03  0.00000000000E+00 0.  1.
          6    2    1    2  501    0 -0.50548183382E+02  0.22224432821E+02 -0.29609789511E+03  0.34716576630E+03  0.17262983967E+03 0.  0.
         24    2    3    3    0    0 -0.82655345638E+02  0.42988816391E+01 -0.11879968128E+03  0.16603337858E+03  0.81260888404E+02 0.  0.
         -6    2    1    2    0  502  0.50548183382E+02 -0.22224432821E+02  0.15822470947E+03  0.24293023066E+03  0.17587209563E+03 0.  0.
        -24    2    5    5    0    0 -0.36011554208E+01 -0.69275167738E+02  0.76016792519E+02  0.13372329792E+03  0.85389404936E+02 0.  0.
          5    1    3    3  501    0  0.32107162256E+02  0.17925551182E+02 -0.17729821383E+03  0.18113238772E+03  0.47000000000E+01 0. -1.
        -11    1    4    4    0    0 -0.29912767706E+02  0.41606218872E+02 -0.48464536181E+02  0.70531286589E+02  0.00000000000E+00 0.  1.
         12    1    4    4    0    0 -0.52742577932E+02 -0.37307337233E+02 -0.70335145100E+02  0.95502091991E+02  0.00000000000E+00 0. -1.
         -5    1    5    5    0  502  0.54149338803E+02  0.47050734917E+02  0.82207916950E+02  0.10920693274E+03  0.47000000000E+01 0.  1.
         11    1    6    6    0    0 -0.11077547470E+02  0.15300095280E+02 -0.12401876202E+01  0.18929950841E+02  0.00000000000E+00 0. -1.
        -12    1    6    6    0    0  0.74763920487E+01 -0.84575263018E+02  0.77256980139E+02  0.11479334708E+03  0.00000000000E+00 0.  1.
</event>
<event>
12    1  0.1565987E-001  0.2172602E+03  0.7818608E-02  0.1136027E+00
         21   -1    0    0  503  502  0.00000000000E+00  0.00000000000E+00  0.14706827187E+03  0.14706827187E+03  0.00000000000E+00 0. -1.
         21   -1    0    0  501  503 -0.00000000000E+00 -0.00000000000E+00 -0.78335287556E+03  0.78335287556E+03  0.00000000000E+00 0.  1.
          6    2    1    2  501    0  0.12588405684E+03 -0.37752759202E+02 -0.67568383279E+03  0.70961739585E+03  0.17244170034E+03 0.  0.
         24    2    3    3    0    0  0.11177478333E+03 -0.71173517398E+02 -0.63948939429E+03  0.65815725540E+03  0.81639547151E+02 0.  0.
         -6    2    1    2    0  502 -0.12588405684E+03  0.37752759202E+02  0.39399229097E+02  0.22080375157E+03  0.17300269032E+03 0.  0.
        -24    2    5    5    0    0  0.73417994091E+00 -0.23328460125E+02  0.16908866656E+02  0.78357271642E+02  0.72864231112E+02 0.  0.
          5    1    3    3  501    0  0.14109273510E+02  0.33420758196E+02 -0.36194438495E+02  0.51460140452E+02  0.47000000000E+01 0. -1.
        -13    1    4    4    0    0  0.94863481066E+01  0.13619112347E+02 -0.15141630286E+03  0.15232323458E+03  0.00000000000E+00 0.  1.
         14    1    4    4    0    0  0.10228843523E+03 -0.84792629745E+02 -0.48807309143E+03  0.50583402082E+03  0.00000000000E+00 0. -1.
         -5    1    5    5    0  502 -0.12661823678E+03  0.61081219328E+02  0.22490362441E+02  0.14244647993E+03  0.47000000000E+01 0.  1.
         13    1    6    6    0    0 -0.10882277036E+02  0.25962268094E+01  0.40133539803E+02  0.41663717600E+02  0.00000000000E+00 0. -1.
        -14    1    6    6    0    0  0.11616456977E+02 -0.25924686935E+02 -0.23224673147E+02  0.36693554041E+02  0.00000000000E+00 0.  1.
</event>
<event>
12    1  0.1565987E-001  0.2175391E+03  0.7818608E-02  0.1135945E+00
         21   -1    0    0  503  502  0.00000000000E+00  0.00000000000E+00  0.19367755232E+03  0.19367755232E+03  0.00000000000E+00 0.  1.
         21   -1    0    0  501  503 -0.00000000000E+00 -0.00000000000E+00 -0.24383729459E+03  0.24383729459E+03  0.00000000000E+00 0.  1.
          6    2    1    2  501    0  0.11695769797E+03 -0.64207745559E+02 -0.37256073073E+02  0.21959336402E+03  0.17038630472E+03 0.  0.
         24    2    3    3    0    0  0.14845345533E+03 -0.46439834746E+02 -0.47442651365E+02  0.18173127528E+03  0.81119446478E+02 0.  0.
         -6    2    1    2    0  502 -0.11695769797E+03  0.64207745559E+02 -0.12903669198E+02  0.21792148290E+03  0.17181830614E+03 0.  0.
        -24    2    5    5    0    0 -0.38979522235E+02  0.86652431189E+02 -0.42870783676E+02  0.13129309405E+03  0.79824341318E+02 0.  0.
          5    1    3    3  501    0 -0.31495757357E+02 -0.17767910813E+02  0.10186578292E+02  0.37862088736E+02  0.47000000000E+01 0. -1.
        -13    1    4    4    0    0  0.99442266919E+02 -0.69410835336E+02 -0.31216742964E+02  0.12522425306E+03  0.00000000000E+00 0.  1.
         14    1    4    4    0    0  0.49011188410E+02  0.22971000590E+02 -0.16225908401E+02  0.56507022227E+02  0.00000000000E+00 0. -1.
         -5    1    5    5    0  502 -0.77978175737E+02 -0.22444685630E+02  0.29967114478E+02  0.86628388848E+02  0.47000000000E+01 0.  1.
         11    1    6    6    0    0 -0.45932915243E+01  0.56749107599E+02 -0.59903729054E+02  0.82643912630E+02  0.00000000000E+00 0. -1.
        -12    1    6    6    0    0 -0.34386230711E+02  0.29903323590E+02  0.17032945378E+02  0.48649181417E+02  0.00000000000E+00 0.  1.
</event>
<event>
12    1  0.1565987E-001  0.2087085E+03  0.7818608E-02  0.1142766E+00
         21   -1    0    0  503  502  0.00000000000E+00  0.00000000000E+00  0.11321865108E+04  0.11321865108E+04  0.00000000000E+00 0. -1.
         21   -1    0    0  501  503 -0.00000000000E+00 -0.00000000000E+00 -0.49245556059E+02  0.49245556059E+02  0.00000000000E+00 0.  1.
          6    2    1    2  501    0 -0.10487387870E+03 -0.44122164977E+02  0.26228741248E+03  0.33465495921E+03  0.17393665254E+03 0.  0.
         24    2    3    3    0    0  0.15265548450E+02 -0.68823975638E+01  0.11662231442E+03  0.14214341922E+03  0.79520959762E+02 0.  0.
         -6    2    1    2    0  502  0.10487387870E+03  0.44122164977E+02  0.82065354229E+03  0.84677710768E+03  0.17496839071E+03 0.  0.
        -24    2    5    5    0    0  0.10033388661E+03 -0.16794394553E+02  0.37316053198E+03  0.39510961602E+03  0.80708646076E+02 0.  0.
          5    1    3    3  501    0 -0.12013942715E+03 -0.37239767414E+02  0.14566509807E+03  0.19251153999E+03  0.47000000000E+01 0. -1.
        -11    1    4    4    0    0  0.18466188383E+02 -0.34645965453E+02  0.25458260805E+02  0.46791730880E+02  0.00000000000E+00 0.  1.
         12    1    4    4    0    0 -0.32006399329E+01  0.27763567889E+02  0.91164053613E+02  0.95351688339E+02  0.00000000000E+00 0. -1.
         -5    1    5    5    0  502  0.45399920973E+01  0.60916559531E+02  0.44749301031E+03  0.45166749166E+03  0.47000000000E+01 0.  1.
         13    1    6    6    0    0  0.94154139341E+01 -0.28891217515E+02  0.16297370525E+03  0.16578233039E+03  0.00000000000E+00 0. -1.
        -14    1    6    6    0    0  0.90918472673E+02  0.12096822962E+02  0.21018682673E+03  0.22932728562E+03  0.00000000000E+00 0.  1.
</event>
<event>
12    1  0.1565987E-001  0.2539294E+03  0.7818608E-02  0.1110923E+00
         21   -1    0    0  501  502  0.00000000000E+00  0.00000000000E+00  0.52143121166E+02  0.52143121166E+02  0.00000000000E+00 0.  1.
         21   -1    0    0  502  503 -0.00000000000E+00 -0.00000000000E+00 -0.14727542278E+04  0.14727542278E+04  0.00000000000E+00 0.  1.
         -6    2    1    2    0  503  0.17566772228E+03 -0.62990330151E+02 -0.10165914827E+04  0.10477055709E+04  0.17146950227E+03 0.  0.
        -24    2    3    3    0    0  0.12869148959E+03 -0.28757161663E+01 -0.43081141259E+03  0.45695950548E+03  0.81509184692E+02 0.  0.
          6    2    1    2  501    0 -0.17566772228E+03  0.62990330151E+02 -0.40401962388E+03  0.47719177804E+03  0.17220106329E+03 0.  0.
         24    2    5    5    0    0 -0.70432787149E+02 -0.37430534388E+01 -0.27994225619E+03  0.30127981360E+03  0.86180457928E+02 0.  0.
          5    1    5    5  501    0 -0.10523493513E+03  0.66733383590E+02 -0.12407736770E+03  0.17591196444E+03  0.47000000000E+01 0. -1.
        -13    1    6    6    0    0 -0.83232327988E+02  0.18724036961E+02 -0.22208320325E+03  0.23790577788E+03  0.00000000000E+00 0.  1.
         14    1    6    6    0    0  0.12799540839E+02 -0.22467090399E+02 -0.57859052934E+02  0.63374035717E+02  0.00000000000E+00 0. -1.
         -5    1    3    3    0  503  0.46976232693E+02 -0.60114613985E+02 -0.58578007013E+03  0.59074606543E+03  0.47000000000E+01 0.  1.
         13    1    4    4    0    0  0.32391008894E+02  0.20837222800E+02 -0.48170834471E+02  0.61674926873E+02  0.00000000000E+00 0. -1.
        -14    1    4    4    0    0  0.96300480697E+02 -0.23712938966E+02 -0.38264057812E+03  0.39528457860E+03  0.00000000000E+00 0.  1.
</event>
<event>
12    1  0.1565987E-001  0.2672851E+03  0.7818608E-02  0.1102868E+00
         21   -1    0    0  503  502  0.00000000000E+00  0.00000000000E+00  0.99732087605E+02  0.99732087605E+02  0.00000000000E+00 0. -1.
         21   -1    0    0  501  503 -0.00000000000E+00 -0.00000000000E+00 -0.71614499747E+03  0.71614499747E+03  0.00000000000E+00 0.  1.
          6    2    1    2  501    0  0.80342790872E+02 -0.18775603994E+03 -0.30057156930E+03  0.40222453082E+03  0.17243552518E+03 0.  0.
         24    2    3    3    0    0 -0.15069314381E+01 -0.11676442844E+03 -0.97314265899E+02  0.17184482831E+03  0.80152205691E+02 0.  0.
         -6    2    1    2    0  502 -0.80342790872E+02  0.18775603994E+03 -0.31584134056E+03  0.41365255425E+03  0.17217836289E+03 0.  0.
        -24    2    5    5    0    0 -0.29062191049E+02  0.95741217271E+02 -0.26856708050E+03  0.29809575794E+03  0.81986660724E+02 0.  0.
          5    1    3    3  501    0  0.81849722310E+02 -0.70991611505E+02 -0.20325730340E+03  0.23037970252E+03  0.47000000000E+01 0. -1.
        -11    1    4    4    0    0  0.12598316054E+02  0.23053377571E+01 -0.33829755823E+02  0.36172980643E+02  0.00000000000E+00 0.  1.
         12    1    4    4    0    0 -0.14105247492E+02 -0.11906976620E+03 -0.63484510076E+02  0.13567184766E+03  0.00000000000E+00 0. -1.
         -5    1    5    5    0  502 -0.51280599823E+02  0.92014822673E+02 -0.47274260062E+02  0.11555679631E+03  0.47000000000E+01 0.  1.
         11    1    6    6    0    0 -0.36973869335E+02  0.97170610517E+01 -0.12322181643E+03  0.12901590729E+03  0.00000000000E+00 0. -1.
        -12    1    6    6    0    0  0.79116782867E+01  0.86024156219E+02 -0.14534526407E+03  0.16907985064E+03  0.00000000000E+00 0.  1.
</event>
<event>
12    1  0.1565987E-001  0.1997342E+03  0.7818608E-02  0.1149986E+00
         21   -1    0    0  501  502  0.00000000000E+00  0.00000000000E+00  0.20768401828E+03  0.20768401828E+03  0.00000000000E+00 0. -1.
         21   -1    0    0  502  503 -0.00000000000E+00 -0.00000000000E+00 -0.19201063801E+03  0.19201063801E+03  0.00000000000E+00 0. -1.
         -6    2    1    2    0  503 -0.82030546159E+02 -0.58846851702E+02  0.56490300085E+01  0.19981411558E+03  0.17234212133E+03 0.  0.
        -24    2    3    3    0    0 -0.11972770315E+03 -0.64452248859E+02  0.16558321753E+02  0.15989421116E+03  0.82481303693E+02 0.  0.
          6    2    1    2  501    0  0.82030546159E+02  0.58846851702E+02  0.10024350257E+02  0.19988054071E+03  0.17222015126E+03 0.  0.
         24    2    5    5    0    0  0.36375256418E+02  0.47380457001E+01  0.63605013439E+02  0.11096965367E+03  0.83204915381E+02 0.  0.
          5    1    5    5  501    0  0.45655289741E+02  0.54108806002E+02 -0.53580663182E+02  0.88910887046E+02  0.47000000000E+01 0. -1.
        -11    1    6    6    0    0 -0.23149686919E+02 -0.56821450380E+01  0.85421771463E+00  0.23852137526E+02  0.00000000000E+00 0.  1.
         12    1    6    6    0    0  0.59524943336E+02  0.10420190738E+02  0.62750795724E+02  0.87117516139E+02  0.00000000000E+00 0. -1.
         -5    1    3    3    0  503  0.37697156990E+02  0.56053971577E+01 -0.10909291745E+02  0.39919904418E+02  0.47000000000E+01 0.  1.
         13    1    4    4    0    0 -0.53202342535E+02 -0.23930455486E+02  0.48342809483E+02  0.75763996593E+02  0.00000000000E+00 0. -1.
        -14    1    4    4    0    0 -0.66525360614E+02 -0.40521793373E+02 -0.31784487729E+02  0.84130214568E+02  0.00000000000E+00 0.  1.
</event>
<event>
12    1  0.1565987E-001  0.1853487E+03  0.7818608E-02  0.1163585E+00
         21   -1    0    0  501  502  0.00000000000E+00  0.00000000000E+00  0.13035204050E+03  0.13035204050E+03  0.00000000000E+00 0.  1.
         21   -1    0    0  502  503 -0.00000000000E+00 -0.00000000000E+00 -0.28900587753E+03  0.28900587753E+03  0.00000000000E+00 0.  1.
         -6    2    1    2    0  503 -0.51777457168E+02 -0.14740385659E+02 -0.10366062302E+02  0.18199025260E+03  0.17353620013E+03 0.  0.
        -24    2    3    3    0    0  0.20839866362E+02 -0.41338213184E+02 -0.37147902046E+02  0.10001417655E+03  0.80496714123E+02 0.  0.
          6    2    1    2  501    0  0.51777457168E+02  0.14740385659E+02 -0.14828777474E+03  0.23736766543E+03  0.17735828262E+03 0.  0.
         24    2    5    5    0    0  0.86008789279E+01 -0.55738726461E+02 -0.10554756938E+03  0.14419933761E+03  0.80451095831E+02 0.  0.
          5    1    5    5  501    0  0.43176578240E+02  0.70479112120E+02 -0.42740205359E+02  0.93168327815E+02  0.47000000000E+01 0. -1.
        -13    1    6    6    0    0  0.54563324881E+01 -0.42042627843E+02 -0.11802406466E+03  0.12540747170E+03  0.00000000000E+00 0.  1.
         14    1    6    6    0    0  0.31445464398E+01 -0.13696098618E+02  0.12476495285E+02  0.18791865907E+02  0.00000000000E+00 0. -1.
         -5    1    3    3    0  503 -0.72617323530E+02  0.26597827525E+02  0.26781839744E+02  0.81976076058E+02  0.47000000000E+01 0.  1.
         13    1    4    4    0    0 -0.14772795140E+02 -0.42920980901E+02  0.40050656463E+01  0.45568482843E+02  0.00000000000E+00 0. -1.
        -14    1    4    4    0    0  0.35612661502E+02  0.15827677177E+01 -0.41152967692E+02  0.54445693703E+02  0.00000000000E+00 0.  1.
</event>
<event>
12    1  0.1565987E-001  0.1978346E+03  0.7818608E-02  0.1151613E+00
         21   -1    0    0  503  502  0.00000000000E+00  0.00000000000E+00  0.60402034872E+02  0.60402034872E+02  0.00000000000E+00 0.  1.
         21   -1    0    0  501  503 -0.00000000000E+00 -0.00000000000E+00 -0.68694159099E+03  0.68694159099E+03  0.00000000000E+00 0.  1.
          6    2    1    2  501    0  0.90193568007E+01  0.96091256558E+02 -0.40298664181E+03  0.44892844888E+03  0.17269522389E+03 0.  0.
         24    2    3    3    0    0  0.31854695653E+02  0.76764768160E+02 -0.12881900757E+03  0.17309344835E+03  0.80370727785E+02 0.  0.
         -6    2    1    2    0  502 -0.90193568007E+01 -0.96091256558E+02 -0.22355291431E+03  0.29841517698E+03  0.17251328636E+03 0.  0.
        -24    2    5    5    0    0  0.38965340613E+01  0.81529570807E+01 -0.51581118130E+02  0.96846168958E+02  0.81467263410E+02 0.  0.
          5    1    3    3  501    0 -0.22835338852E+02  0.19326488399E+02 -0.27416763423E+03  0.27583500053E+03  0.47000000000E+01 0. -1.
        -11    1    4    4    0    0  0.52766458118E+02  0.48641898054E+02 -0.11471974113E+03  0.13531796759E+03  0.00000000000E+00 0.  1.
         12    1    4    4    0    0 -0.20911762465E+02  0.28122870106E+02 -0.14099266445E+02  0.37775480760E+02  0.00000000000E+00 0. -1.
         -5    1    5    5    0  502 -0.12915890862E+02 -0.10424421364E+03 -0.17197179618E+03  0.20156900802E+03  0.47000000000E+01 0.  1.
         13    1    6    6    0    0  0.29599278470E+02  0.73113462126E+01 -0.62006428621E+02  0.69096818014E+02  0.00000000000E+00 0. -1.
        -14    1    6    6    0    0 -0.25702744408E+02  0.84161086808E+00  0.10425310492E+02  0.27749350944E+02  0.00000000000E+00 0.  1.
</event>
<event>
12    1  0.1565987E-001  0.2238279E+03  0.7818608E-02  0.1131238E+00
         21   -1    0    0  503  502  0.00000000000E+00  0.00000000000E+00  0.83975864350E+02  0.83975864350E+02  0.00000000000E+00 0. -1.
         21   -1    0    0  501  503 -0.00000000000E+00 -0.00000000000E+00 -0.59510670351E+03  0.59510670351E+03  0.00000000000E+00 0. -1.
          6    2    1    2  501    0  0.13503826880E+02 -0.14131918966E+03 -0.26964547777E+03  0.34981957383E+03  0.17178935894E+03 0.  0.
         24    2    3    3    0    0  0.16718259038E+02 -0.33902349076E+02 -0.20636588330E+03  0.22501930423E+03  0.81350722362E+02 0.  0.
         -6    2    1    2    0  502 -0.13503826880E+02  0.14131918966E+03 -0.24148536139E+03  0.32926299403E+03  0.17304760259E+03 0.  0.
        -24    2    5    5    0    0 -0.10686104333E+02  0.90228765857E+02 -0.25012287981E+03  0.27715860180E+03  0.77459747810E+02 0.  0.
          5    1    3    3  501    0 -0.32144321584E+01 -0.10741684059E+03 -0.63279594469E+02  0.12480026960E+03  0.47000000000E+01 0. -1.
        -11    1    4    4    0    0  0.45670932508E+02 -0.23467067177E+02 -0.16890665768E+03  0.17653893714E+03  0.00000000000E+00 0.  1.
         12    1    4    4    0    0 -0.28952673469E+02 -0.10435281899E+02 -0.37459225622E+02  0.48480367094E+02  0.00000000000E+00 0. -1.
         -5    1    5    5    0  502 -0.28177225464E+01  0.51090423805E+02  0.86375184259E+01  0.52104392228E+02  0.47000000000E+01 0.  1.
         11    1    6    6    0    0  0.21125483533E+02  0.37471992965E+02 -0.42041733410E+02  0.60149344629E+02  0.00000000000E+00 0. -1.
        -12    1    6    6    0    0 -0.31811587866E+02  0.52756772892E+02 -0.20808114640E+03  0.21700925717E+03  0.00000000000E+00 0.  1.
</event>
<event>
12    1  0.1565987E-001  0.1773645E+03  0.7818608E-02  0.1170385E+00
         21   -1    0    0  501  502  0.00000000000E+00  0.00000000000E+00  0.13598002560E+03  0.13598002560E+03  0.00000000000E+00 0.  1.
         21   -1    0    0  502  503 -0.00000000000E+00 -0.00000000000E+00 -0.25913224495E+03  0.25913224495E+03  0.00000000000E+00 0. -1.
         -6    2    1    2    0  503  0.41596418469E+02  0.10089144990E+02 -0.12631803366E+03  0.21774850695E+03  0.17212238023E+03 0.  0.
        -24    2    3    3    0    0 -0.25701168992E+02 -0.63741927571E+01 -0.12126275022E+03  0.14812342053E+03  0.80837569847E+02 0.  0.
          6    2    1    2  501    0 -0.41596418469E+02 -0.10089144990E+02  0.31658143105E+01  0.17736376360E+03  0.17209250239E+03 0.  0.
         24    2    5    5    0    0 -0.75952673605E+02  0.16216522796E+02  0.34877092494E+02  0.12351178509E+03  0.89481647483E+02 0.  0.
          5    1    5    5  501    0  0.34356255136E+02 -0.26305667786E+02 -0.31711278184E+02  0.53851978503E+02  0.47000000000E+01 0. -1.
        -11    1    6    6    0    0 -0.62510541675E+00 -0.28397560965E+02  0.19925079065E+02  0.34696123722E+02  0.00000000000E+00 0.  1.
         12    1    6    6    0    0 -0.75327568189E+02  0.44614083761E+02  0.14952013429E+02  0.88815661370E+02  0.00000000000E+00 0. -1.
         -5    1    3    3    0  503  0.67297587461E+02  0.16463337747E+02 -0.50552834364E+01  0.69625086416E+02  0.47000000000E+01 0.  1.
         11    1    4    4    0    0  0.28194502905E+02 -0.79914026019E+01 -0.58127236337E+02  0.65096606008E+02  0.00000000000E+00 0. -1.
        -12    1    4    4    0    0 -0.53895671897E+02  0.16172098447E+01 -0.63135513883E+02  0.83026814525E+02  0.00000000000E+00 0.  1.
</event>
<event>
12    1  0.1565987E-001  0.1758090E+03  0.7818608E-02  0.1172664E+00
         21   -1    0    0  503  502  0.00000000000E+00  0.00000000000E+00  0.18338113727E+03  0.18338113727E+03  0.00000000000E+00 0.  1.
         21   -1    0    0  501  503 -0.00000000000E+00 -0.00000000000E+00 -0.40145269587E+03  0.40145269587E+03  0.00000000000E+00 0.  1.
          6    2    1    2  501    0  0.37866460228E+02  0.49306233669E+01 -0.33272036745E+03  0.37494538236E+03  0.16859127195E+03 0.  0.
         24    2    3    3    0    0  0.46848570794E+02  0.64280318801E+02 -0.22647808204E+03  0.25282831611E+03  0.79391988353E+02 0.  0.
         -6    2    1    2    0  502 -0.37866460228E+02 -0.49306233669E+01  0.11464880885E+03  0.20988845078E+03  0.17161186597E+03 0.  0.
        -24    2    5    5    0    0  0.10666049860E+02  0.41407866740E+02  0.10805237305E+03  0.14229952294E+03  0.82130766833E+02 0.  0.
          5    1    3    3  501    0 -0.89821105662E+01 -0.59349695434E+02 -0.10624228542E+03  0.12211706625E+03  0.47000000000E+01 0. -1.
        -13    1    4    4    0    0  0.47114787036E+02  0.98220019347E+01 -0.15895227130E+03  0.16607859414E+03  0.00000000000E+00 0.  1.
         14    1    4    4    0    0 -0.26621624223E+00  0.54458316866E+02 -0.67525810737E+02  0.86749721974E+02  0.00000000000E+00 0. -1.
         -5    1    5    5    0  502 -0.48532510088E+02 -0.46338490107E+02  0.65964358053E+01  0.67588927837E+02  0.47000000000E+01 0.  1.
         11    1    6    6    0    0  0.25602900591E+02  0.44546944319E+02  0.23709837670E+02  0.56587058319E+02  0.00000000000E+00 0. -1.
        -12    1    6    6    0    0 -0.14936850731E+02 -0.31390775792E+01  0.84342535376E+02  0.85712464621E+02  0.00000000000E+00 0.  1.
</event>
<event>
12    1  0.1565987E-001  0.1828001E+03  0.7818608E-02  0.1165363E+00
         21   -1    0    0  501  502  0.00000000000E+00  0.00000000000E+00  0.86524357194E+03  0.86524357194E+03  0.00000000000E+00 0.  1.
         21   -1    0    0  502  503 -0.00000000000E+00 -0.00000000000E+00 -0.45989489384E+02  0.45989489384E+02  0.00000000000E+00 0.  1.
         -6    2    1    2    0  503 -0.21116004832E+02  0.56194735962E+02  0.59369512683E+03  0.62090099714E+03  0.17158208129E+03 0.  0.
        -24    2    3    3    0    0 -0.64793230593E+02 -0.70789232737E-01  0.25583633708E+03  0.27558351831E+03  0.79346559168E+02 0.  0.
          6    2    1    2  501    0  0.21116004832E+02 -0.56194735962E+02  0.22555895573E+03  0.29033206419E+03  0.17266189786E+03 0.  0.
         24    2    5    5    0    0  0.60895222687E+00 -0.94242329574E+02  0.10233358686E+03  0.15966171514E+03  0.78343556058E+02 0.  0.
          5    1    5    5  501    0  0.20507052605E+02  0.38047593612E+02  0.12322536887E+03  0.13067034904E+03  0.47000000000E+01 0. -1.
        -11    1    6    6    0    0 -0.35618572922E+02 -0.36258557542E+02  0.25676238288E+02  0.56944138808E+02  0.00000000000E+00 0.  1.
         12    1    6    6    0    0  0.36227525149E+02 -0.57983772032E+02  0.76657348572E+02  0.10271757633E+03  0.00000000000E+00 0. -1.
         -5    1    3    3    0  503  0.43677225761E+02  0.56265525194E+02  0.33785878975E+03  0.34531747884E+03  0.47000000000E+01 0.  1.
         11    1    4    4    0    0 -0.27821544566E+02 -0.14042257029E+00  0.14390162450E+02  0.31323071942E+02  0.00000000000E+00 0. -1.
        -12    1    4    4    0    0 -0.36971686027E+02  0.69633337551E-01  0.24144617463E+03  0.24426044636E+03  0.00000000000E+00 0.  1.
</event>
<event>
12    1  0.1565987E-001  0.1947093E+03  0.7818608E-02  0.1154306E+00
         21   -1    0    0  501  502  0.00000000000E+00  0.00000000000E+00  0.78224036744E+03  0.78224036744E+03  0.00000000000E+00 0.  1.
         21   -1    0    0  502  503 -0.00000000000E+00 -0.00000000000E+00 -0.92527515889E+02  0.92527515889E+02  0.00000000000E+00 0.  1.
         -6    2    1    2    0  503  0.31028820601E+02 -0.83393320268E+02  0.42877863695E+02  0.19926273886E+03  0.17306037770E+03 0.  0.
        -24    2    3    3    0    0  0.59586961666E+02 -0.11551862850E+03  0.33661993435E+02  0.15505159643E+03  0.77541654758E+02 0.  0.
          6    2    1    2  501    0 -0.31028820601E+02  0.83393320268E+02  0.64683498785E+03  0.67550514447E+03  0.17318910220E+03 0.  0.
         24    2    5    5    0    0 -0.32698773670E+02  0.12527092313E+03  0.52061524034E+03  0.54242608140E+03  0.80148682629E+02 0.  0.
          5    1    5    5  501    0  0.16699530691E+01 -0.41877602863E+02  0.12621974751E+03  0.13307906306E+03  0.47000000000E+01 0. -1.
        -13    1    6    6    0    0 -0.54214851645E+02  0.71874507730E+02  0.37922997697E+03  0.38976989421E+03  0.00000000000E+00 0.  1.
         14    1    6    6    0    0  0.21516077975E+02  0.53396415402E+02  0.14138526338E+03  0.15265618720E+03  0.00000000000E+00 0. -1.
         -5    1    3    3    0  503 -0.28558141064E+02  0.32125308232E+02  0.92158702605E+01  0.44211142427E+02  0.47000000000E+01 0.  1.
         13    1    4    4    0    0  0.20843849082E+02 -0.45234685050E+02  0.52760355965E+02  0.72555481789E+02  0.00000000000E+00 0. -1.
        -14    1    4    4    0    0  0.38743112584E+02 -0.70283943451E+02 -0.19098362530E+02  0.82496114642E+02  0.00000000000E+00 0.  1.
</event>
<event>
12    1  0.1565987E-001  0.2896254E+03  0.7818608E-02  0.1090548E+00
         21   -1    0    0  501  502  0.00000000000E+00  0.00000000000E+00  0.69854225155E+03  0.69854225155E+03  0.00000000000E+00 0. -1.
         21   -1    0    0  502  503 -0.00000000000E+00 -0.00000000000E+00 -0.15692468592E+03  0.15692468592E+03  0.00000000000E+00 0.  1.
         -6    2    1    2    0  503  0.22012946610E+03 -0.75466001134E+02  0.63515457395E+02  0.29648168301E+03  0.17238061335E+03 0.  0.
        -24    2    3    3    0    0  0.50088913379E+02 -0.71954491302E+02  0.22684554021E+02  0.12150919105E+03  0.81015717347E+02 0.  0.
          6    2    1    2  501    0 -0.22012946610E+03  0.75466001134E+02  0.47810210823E+03  0.55898525447E+03  0.17242618609E+03 0.  0.
         24    2    5    5    0    0 -0.21261948953E+03  0.26375627408E+02  0.43454890493E+03  0.49276413957E+03  0.89894523868E+02 0.  0.
          5    1    5    5  501    0 -0.75099765656E+01  0.49090373726E+02  0.43553203295E+02  0.66221114894E+02  0.47000000000E+01 0. -1.
        -13    1    6    6    0    0 -0.17350559756E+03  0.36438664124E+02  0.26761196157E+03  0.32101110667E+03  0.00000000000E+00 0.  1.
         14    1    6    6    0    0 -0.39113891968E+02 -0.10063036716E+02  0.16693694336E+03  0.17175303291E+03  0.00000000000E+00 0. -1.
         -5    1    3    3    0  503  0.17004055272E+03 -0.35115098316E+01  0.40830903374E+02  0.17497249195E+03  0.47000000000E+01 0.  1.
         11    1    4    4    0    0  0.21906708018E+02 -0.93488215806E+01  0.43647854629E+02  0.49723631554E+02  0.00000000000E+00 0. -1.
        -12    1    4    4    0    0  0.28182205360E+02 -0.62605669721E+02 -0.20963300608E+02  0.71785559499E+02  0.00000000000E+00 0.  1.
</event>
<event>
12    1  0.1565987E-001  0.1965320E+03  0.7818608E-02  0.1155733E+00
         21   -1    0    0  501  502  0.00000000000E+00  0.00000000000E+00  0.16699624904E+03  0.16699624904E+03  0.00000000000E+00 0.  1.
         21   -1    0    0  502  503 -0.00000000000E+00 -0.00000000000E+00 -0.28558532022E+03  0.28558532022E+03  0.00000000000E+00 0.  1.
         -6    2    1    2    0  503 -0.32806880592E+02  0.60366716569E+01 -0.17282951292E+03  0.26171521707E+03  0.19368035908E+03 0.  0.
        -24    2    3    3    0    0 -0.95018460190E+02  0.82814999370E+01 -0.13359424782E+03  0.18798044971E+03  0.91608598973E+02 0.  0.
          6    2    1    2  501    0  0.32806880592E+02 -0.60366716569E+01  0.54240441748E+02  0.19086635218E+03  0.17993111475E+03 0.  0.
         24    2    5    5    0    0  0.91815852822E+02  0.14857097052E+01  0.45913019493E+02  0.13061619877E+03  0.80747927896E+02 0.  0.
          5    1    5    5  501    0 -0.59008972230E+02 -0.75223813621E+01  0.83274222550E+01  0.60250153414E+02  0.47000000000E+01 0. -1.
        -13    1    6    6    0    0  0.96477805836E+01  0.32545557859E+02  0.76210947938E+01  0.34790431047E+02  0.00000000000E+00 0.  1.
         14    1    6    6    0    0  0.82168072238E+02 -0.31059848154E+02  0.38291924700E+02  0.95825767724E+02  0.00000000000E+00 0. -1.
         -5    1    3    3    0  503  0.62211579598E+02 -0.22448282800E+01 -0.39235265100E+02  0.73734767360E+02  0.47000000000E+01 0.  1.
         13    1    4    4    0    0 -0.18589365910E+02  0.17156991864E+02  0.82527970817E+01  0.26608937491E+02  0.00000000000E+00 0. -1.
        -14    1    4    4    0    0 -0.76429094280E+02 -0.88754919266E+01 -0.14184704490E+03  0.16137151222E+03  0.00000000000E+00 0.  1.
</event>
<event>
12    1  0.1565987E-001  0.2255936E+03  0.7818608E-02  0.1129864E+00
         21   -1    0    0  501  502  0.00000000000E+00  0.00000000000E+00  0.31033425640E+02  0.31033425640E+02  0.00000000000E+00 0. -1.
         21   -1    0    0  502  503 -0.00000000000E+00 -0.00000000000E+00 -0.16747697257E+04  0.16747697257E+04  0.00000000000E+00 0.  1.
         -6    2    1    2    0  503  0.97808432036E+02 -0.10727130894E+03 -0.95150532723E+03  0.97788284436E+03  0.17268134366E+03 0.  0.
        -24    2    3    3    0    0  0.12385461313E+03 -0.46458012965E+02 -0.56659337895E+03  0.58729871969E+03  0.79958845141E+02 0.  0.
          6    2    1    2  501    0 -0.97808432036E+02  0.10727130894E+03 -0.69223097281E+03  0.72792030695E+03  0.17207739673E+03 0.  0.
         24    2    5    5    0    0  0.17314512455E+02  0.29333023476E+02 -0.27320550711E+03  0.28640915241E+03  0.78922334344E+02 0.  0.
          5    1    5    5  501    0 -0.11512294449E+03  0.77938285468E+02 -0.41902546570E+03  0.44151115455E+03  0.47000000000E+01 0. -1.
        -11    1    6    6    0    0  0.16470159950E+02  0.56454256542E+02 -0.18428580658E+03  0.19344148406E+03  0.00000000000E+00 0.  1.
         12    1    6    6    0    0  0.84435250548E+00 -0.27121233066E+02 -0.88919700534E+02  0.92967668343E+02  0.00000000000E+00 0. -1.
         -5    1    3    3    0  503 -0.26046181092E+02 -0.60813295978E+02 -0.38491194829E+03  0.39058412468E+03  0.47000000000E+01 0.  1.
         13    1    4    4    0    0  0.91511605032E+02 -0.46772897976E+02 -0.52308193498E+03  0.53308234687E+03  0.00000000000E+00 0. -1.
        -14    1    4    4    0    0  0.32343008096E+02  0.31488501131E+00 -0.43511443962E+02  0.54216372813E+02  0.00000000000E+00 0.  1.
</event>
<event>
12    1  0.1565987E-001  0.3040839E+03  0.7818608E-02  0.1083671E+00
         21   -1    0    0  501  502  0.00000000000E+00  0.00000000000E+00  0.34318684389E+03  0.34318684389E+03  0.00000000000E+00 0.  1.
         21   -1    0    0  502  503 -0.00000000000E+00 -0.00000000000E+00 -0.34437242543E+03  0.34437242543E+03  0.00000000000E+00 0. -1.
         -6    2    1    2    0  503  0.24332714068E+03  0.24129181008E+02 -0.16439828411E+03  0.34567873311E+03  0.18076691052E+03 0.  0.
        -24    2    3    3    0    0  0.20500908175E+03  0.55162490937E+02 -0.66468682492E+02  0.23593522834E+03  0.78585763447E+02 0.  0.
          6    2    1    2  501    0 -0.24332714068E+03 -0.24129181008E+02  0.16321270257E+03  0.34188053621E+03  0.17450959857E+03 0.  0.
         24    2    5    5    0    0 -0.19700196022E+03  0.45243035474E+02  0.11692703095E+03  0.24636624324E+03  0.78534646199E+02 0.  0.
          5    1    5    5  501    0 -0.46325180460E+02 -0.69372216482E+02  0.46285671617E+02  0.95514292969E+02  0.47000000000E+01 0. -1.
        -11    1    6    6    0    0 -0.10818645424E+03 -0.19570258011E+01  0.93711385778E+02  0.14314315441E+03  0.00000000000E+00 0.  1.
         12    1    6    6    0    0 -0.88815505975E+02  0.47200061275E+02  0.23215645171E+02  0.10322308883E+03  0.00000000000E+00 0. -1.
         -5    1    3    3    0  503  0.38318058929E+02 -0.31033309929E+02 -0.97929601616E+02  0.10974350476E+03  0.47000000000E+01 0.  1.
         13    1    4    4    0    0  0.13633688052E+03  0.72190671121E+02 -0.57408869783E+02  0.16460563877E+03  0.00000000000E+00 0. -1.
        -14    1    4    4    0    0  0.68672201231E+02 -0.17028180183E+02 -0.90598127093E+01  0.71329589573E+02  0.00000000000E+00 0.  1.
</event>
<event>
12    1  0.1565987E-001  0.2892444E+03  0.7818608E-02  0.1090751E+00
         21   -1    0    0  501  502  0.00000000000E+00  0.00000000000E+00  0.35000290497E+02  0.35000290497E+02  0.00000000000E+00 0.  1.
         21   -1    0    0  502  503 -0.00000000000E+00 -0.00000000000E+00 -0.24111809091E+04  0.24111809091E+04  0.00000000000E+00 0. -1.
         -6    2    1    2    0  503 -0.23011541348E+03 -0.36000985148E+02 -0.13030764553E+04  0.13347923240E+04  0.17150255191E+03 0.  0.
        -24    2    3    3    0    0 -0.24761065438E+03 -0.39373092509E+02 -0.12697570000E+04  0.12967169952E+04  0.79566638147E+02 0.  0.
          6    2    1    2  501    0  0.23011541348E+03  0.36000985148E+02 -0.10731041633E+04  0.11113888756E+04  0.17141619855E+03 0.  0.
         24    2    5    5    0    0  0.13653855023E+03  0.78320735697E+02 -0.79933350957E+03  0.81895076001E+03  0.83482779415E+02 0.  0.
          5    1    5    5  501    0  0.93576863254E+02 -0.42319750549E+02 -0.27377065373E+03  0.29243811562E+03  0.47000000000E+01 0. -1.
        -11    1    6    6    0    0  0.65903129159E+02  0.56653152175E+02 -0.25008576791E+03  0.26475591287E+03  0.00000000000E+00 0.  1.
         12    1    6    6    0    0  0.70635421068E+02  0.21667583521E+02 -0.54924774166E+03  0.55419484714E+03  0.00000000000E+00 0. -1.
         -5    1    3    3    0  503  0.17495240904E+02  0.33721073605E+01 -0.33319455297E+02  0.38075328805E+02  0.47000000000E+01 0.  1.
         11    1    4    4    0    0 -0.45012199513E+02  0.23170083731E+02 -0.27360043680E+03  0.27824476617E+03  0.00000000000E+00 0. -1.
        -12    1    4    4    0    0 -0.20259845487E+03 -0.62543176239E+02 -0.99615656325E+03  0.10184722290E+04  0.00000000000E+00 0.  1.
</event>
<event>
12    1  0.1565987E-001  0.3595954E+03  0.7818608E-02  0.1058793E+00
         21   -1    0    0  503  502  0.00000000000E+00  0.00000000000E+00  0.16911185743E+04  0.16911185743E+04  0.00000000000E+00 0. -1.
         21   -1    0    0  501  503 -0.00000000000E+00 -0.00000000000E+00 -0.85665680082E+02  0.85665680082E+02  0.00000000000E+00 0.  1.
          6    2    1    2  501    0 -0.21814215921E+03 -0.22746450363E+03  0.10960436172E+04  0.11535252442E+04  0.17315535298E+03 0.  0.
         24    2    3    3    0    0 -0.93957862144E+02 -0.60033212456E+02  0.59698035381E+03  0.61265445767E+03  0.80795267256E+02 0.  0.
         -6    2    1    2    0  502  0.21814215921E+03  0.22746450363E+03  0.50940927710E+03  0.62325901022E+03  0.17212751143E+03 0.  0.
        -24    2    5    5    0    0  0.57238101542E+02  0.41026470559E+02  0.10883402573E+03  0.15301239624E+03  0.81293152801E+02 0.  0.
          5    1    3    3  501    0 -0.12418429706E+03 -0.16743129117E+03  0.49906326335E+03  0.54087078653E+03  0.47000000000E+01 0. -1.
        -11    1    4    4    0    0 -0.56555252430E+01 -0.48154584320E+02  0.19873017162E+03  0.20455935586E+03  0.00000000000E+00 0.  1.
         12    1    4    4    0    0 -0.88302336901E+02 -0.11878628136E+02  0.39825018219E+03  0.40809510181E+03  0.00000000000E+00 0. -1.
         -5    1    5    5    0  502  0.16090405767E+03  0.18643803307E+03  0.40057525137E+03  0.47024661398E+03  0.47000000000E+01 0.  1.
         13    1    6    6    0    0  0.75552437272E+02  0.42409635854E+02  0.75355603989E+02  0.11482689164E+03  0.00000000000E+00 0. -1.
        -14    1    6    6    0    0 -0.18314335730E+02 -0.13831652949E+01  0.33478421738E+02  0.38185504600E+02  0.00000000000E+00 0.  1.
</event>
<event>
12    1  0.1565987E-001  0.1896670E+03  0.7818608E-02  0.1159092E+00
         21   -1    0    0  503  502  0.00000000000E+00  0.00000000000E+00  0.17207091679E+03  0.17207091679E+03  0.00000000000E+00 0. -1.
         21   -1    0    0  501  503 -0.00000000000E+00 -0.00000000000E+00 -0.22173690389E+03  0.22173690389E+03  0.00000000000E+00 0. -1.
          6    2    1    2  501    0  0.43621658843E+02 -0.64976181777E+02 -0.74705275896E+02  0.20249511510E+03  0.17116845525E+03 0.  0.
         24    2    3    3    0    0 -0.25876763258E+02  0.11373625804E+02 -0.31568593937E+02  0.90503208595E+02  0.79970547092E+02 0.  0.
         -6    2    1    2    0  502 -0.43621658843E+02  0.64976181777E+02  0.25039288798E+02  0.19131270558E+03  0.17276814525E+03 0.  0.
        -24    2    5    5    0    0 -0.25533417428E+02  0.11166259077E+03  0.14774364076E+02  0.13998762455E+03  0.79106027646E+02 0.  0.
          5    1    3    3  501    0  0.69498422101E+02 -0.76349807581E+02 -0.43136681959E+02  0.11199190651E+03  0.47000000000E+01 0. -1.
        -11    1    4    4    0    0 -0.16329617116E+02 -0.27085231253E+02  0.99054007418E+01  0.33141863421E+02  0.00000000000E+00 0.  1.
         12    1    4    4    0    0 -0.95471461415E+01  0.38458857057E+02 -0.41473994679E+02  0.57361345174E+02  0.00000000000E+00 0. -1.
         -5    1    5    5    0  502 -0.18088241415E+02 -0.46686408998E+02  0.10264924721E+02  0.51325081024E+02  0.47000000000E+01 0.  1.
         11    1    6    6    0    0 -0.26285802766E+02  0.58471406426E+02 -0.29695668495E+02  0.70651833124E+02  0.00000000000E+00 0. -1.
        -12    1    6    6    0    0  0.75238533780E+00  0.53191184349E+02  0.44470032571E+02  0.69335791428E+02  0.00000000000E+00 0.  1.
</event>
<event>
12    1  0.1565987E-001  0.2360459E+03  0.7818608E-02  0.1122621E+00
         21   -1    0    0  503  502  0.00000000000E+00  0.00000000000E+00  0.88862936182E+02  0.88862936182E+02  0.00000000000E+00 0.  1.
         21   -1    0    0  501  503 -0.00000000000E+00 -0.00000000000E+00 -0.65601137348E+03  0.65601137348E+03  0.00000000000E+00 0.  1.
          6    2    1    2  501    0  0.43623838066E+02  0.15462460095E+03 -0.20240587785E+03  0.31094342951E+03  0.17293313882E+03 0.  0.
         24    2    3    3    0    0  0.64618641811E+01  0.17504203865E+03 -0.15330702283E+03  0.24589981622E+03  0.79260364522E+02 0.  0.
         -6    2    1    2    0  502 -0.43623838066E+02 -0.15462460095E+03 -0.36474255945E+03  0.43393088015E+03  0.17160147905E+03 0.  0.
        -24    2    5    5    0    0 -0.65246877046E+01 -0.51521289405E+02 -0.66174912491E+02  0.11585640834E+03  0.79665384570E+02 0.  0.
          5    1    3    3  501    0  0.37161973885E+02 -0.20417437704E+02 -0.49098855024E+02  0.65043613292E+02  0.47000000000E+01 0. -1.
        -11    1    4    4    0    0 -0.69750684676E+01  0.12836367928E+03 -0.14950980318E+03  0.19717775480E+03  0.00000000000E+00 0.  1.
         12    1    4    4    0    0  0.13436932649E+02  0.46678359369E+02 -0.37972196490E+01  0.48722061425E+02  0.00000000000E+00 0. -1.
         -5    1    5    5    0  502 -0.37099150362E+02 -0.10310331154E+03 -0.29856764696E+03  0.31807447181E+03  0.47000000000E+01 0.  1.
         11    1    6    6    0    0  0.11970642015E+02  0.76356217832E+01 -0.49749695112E+02  0.51736168721E+02  0.00000000000E+00 0. -1.
        -12    1    6    6    0    0 -0.18495329720E+02 -0.59156911189E+02 -0.16425217379E+02  0.64120239619E+02  0.00000000000E+00 0.  1.
</event>
<event>
12    1  0.1565987E-001  0.1946165E+03  0.7818608E-02  0.1154890E+00
         21   -1    0    0  501  502  0.00000000000E+00  0.00000000000E+00  0.29868072734E+03  0.29868072734E+03  0.00000000000E+00 0. -1.
         21   -1    0    0  502  503 -0.00000000000E+00 -0.00000000000E+00 -0.22233712363E+03  0.22233712363E+03  0.00000000000E+00 0.  1.
         -6    2    1    2    0  503 -0.42401742782E+01  0.88375481863E+02 -0.13410456852E+03  0.23437517542E+03  0.17064431629E+03 0.  0.
        -24    2    3    3    0    0 -0.42047889029E+02  0.11476719186E+03 -0.97836704681E+02  0.17552457135E+03  0.79355661844E+02 0.  0.
          6    2    1    2  501    0  0.42401742782E+01 -0.88375481863E+02  0.21044817224E+03  0.28664267555E+03  0.17334181658E+03 0.  0.
         24    2    5    5    0    0 -0.34704758730E+02 -0.26010902989E+02  0.36063784190E+02  0.97333264001E+02  0.79323265176E+02 0.  0.
          5    1    5    5  501    0  0.38944933009E+02 -0.62364578873E+02  0.17438438805E+03  0.18930941155E+03  0.47000000000E+01 0. -1.
        -13    1    6    6    0    0 -0.45087775161E+02 -0.42578809174E+02  0.71456039446E+01  0.62425332320E+02  0.00000000000E+00 0.  1.
         14    1    6    6    0    0  0.10383016431E+02  0.16567906184E+02  0.28918180245E+02  0.34907931681E+02  0.00000000000E+00 0. -1.
         -5    1    3    3    0  503  0.37807714751E+02 -0.26391709998E+02 -0.36267863842E+02  0.58850604066E+02  0.47000000000E+01 0.  1.
         13    1    4    4    0    0 -0.12086742682E+01 -0.24734934783E+01  0.10436537313E+02  0.10793533923E+02  0.00000000000E+00 0. -1.
        -14    1    4    4    0    0 -0.40839214761E+02  0.11724068534E+03 -0.10827324199E+03  0.16473103743E+03  0.00000000000E+00 0.  1.
</event>
<event>
12    1  0.1565987E-001  0.1903759E+03  0.7818608E-02  0.1158792E+00
         21   -1    0    0  503  502  0.00000000000E+00  0.00000000000E+00  0.54015924042E+03  0.54015924042E+03  0.00000000000E+00 0.  1.
         21   -1    0    0  501  503 -0.00000000000E+00 -0.00000000000E+00 -0.17328446191E+03  0.17328446191E+03  0.00000000000E+00 0.  1.
          6    2    1    2  501    0 -0.54680114619E+02 -0.48743555016E+02 -0.96617783106E+02  0.21349000002E+03  0.17571890908E+03 0.  0.
         24    2    3    3    0    0 -0.21999579929E+02  0.39188421538E+02 -0.63234784948E+02  0.11380768256E+03  0.83269662443E+02 0.  0.
         -6    2    1    2    0  502  0.54680114619E+02  0.48743555016E+02  0.46349256161E+03  0.49995370231E+03  0.17251811699E+03 0.  0.
        -24    2    5    5    0    0  0.30718595613E+02  0.70576351845E+02  0.19500330581E+03  0.22947376610E+03  0.93312734895E+02 0.  0.
          5    1    3    3  501    0 -0.32680534690E+02 -0.87931976554E+02 -0.33382998158E+02  0.99682317461E+02  0.47000000000E+01 0. -1.
        -11    1    4    4    0    0 -0.27745688385E+02 -0.14617562731E+02 -0.10537790901E+01  0.31378445062E+02  0.00000000000E+00 0.  1.
         12    1    4    4    0    0  0.57461084556E+01  0.53805984269E+02 -0.62181005857E+02  0.82429237501E+02  0.00000000000E+00 0. -1.
         -5    1    5    5    0  502  0.23961519006E+02 -0.21832796829E+02  0.26848925580E+03  0.27047993621E+03  0.47000000000E+01 0.  1.
         11    1    6    6    0    0 -0.31897868160E+02  0.14361435210E+02  0.40293690374E+02  0.53360156470E+02  0.00000000000E+00 0. -1.
        -12    1    6    6    0    0  0.62616463773E+02  0.56214916635E+02  0.15470961543E+03  0.17611360963E+03  0.00000000000E+00 0.  1.
</event>
<event>
12    1  0.1565987E-001  0.1914906E+03  0.7818608E-02  0.1157384E+00
         21   -1    0    0  503  502  0.00000000000E+00  0.00000000000E+00  0.14548120702E+04  0.14548120702E+04  0.00000000000E+00 0.  1.
         21   -1    0    0  501  503 -0.00000000000E+00 -0.00000000000E+00 -0.25131374152E+02  0.25131374152E+02  0.00000000000E+00 0. -1.
          6    2    1    2  501    0 -0.83564434175E+02  0.64277893416E+01  0.75414885097E+03  0.77779536906E+03  0.17088246130E+03 0.  0.
         24    2    3    3    0    0 -0.23254947105E+02  0.21875748018E+02  0.17175293290E+03  0.19206252122E+03  0.79809781235E+02 0.  0.
         -6    2    1    2    0  502  0.83564434175E+02 -0.64277893416E+01  0.67553184511E+03  0.70214807532E+03  0.17217524441E+03 0.  0.
        -24    2    5    5    0    0  0.14488956358E+02 -0.56905752003E+02  0.26403620432E+03  0.28182653324E+03  0.79138379936E+02 0.  0.
          5    1    3    3  501    0 -0.60309487069E+02 -0.15447958676E+02  0.58239591807E+03  0.58573284784E+03  0.47000000000E+01 0. -1.
        -11    1    4    4    0    0 -0.36459188530E+02  0.14725141674E+02  0.17260033291E+03  0.17702253287E+03  0.00000000000E+00 0.  1.
         12    1    4    4    0    0  0.13204241425E+02  0.71506063439E+01 -0.84740000474E+00  0.15039988346E+02  0.00000000000E+00 0. -1.
         -5    1    5    5    0  502  0.69075477817E+02  0.50477962661E+02  0.41149564079E+03  0.42032154208E+03  0.47000000000E+01 0.  1.
         13    1    6    6    0    0 -0.90163607382E+01 -0.19877618941E+02  0.99588234253E+01  0.23991512243E+02  0.00000000000E+00 0. -1.
        -14    1    6    6    0    0  0.23505317096E+02 -0.37028133062E+02  0.25407738090E+03  0.25783502100E+03  0.00000000000E+00 0.  1.
</event>
<event>
12    1  0.1565987E-001  0.2385688E+03  0.7818608E-02  0.1120780E+00
         21   -1    0    0  503  502  0.00000000000E+00  0.00000000000E+00  0.41504581289E+03  0.41504581289E+03  0.00000000000E+00 0. -1.
         21   -1    0    0  501  503 -0.00000000000E+00 -0.00000000000E+00 -0.15934231989E+03  0.15934231989E+03  0.00000000000E+00 0.  1.
          6    2    1    2  501    0 -0.14956487448E+03 -0.68890242681E+02  0.20329682635E+02  0.23925249043E+03  0.17237442086E+03 0.  0.
         24    2    3    3    0    0 -0.65593214020E+02 -0.39143605472E+02 -0.55141608164E+02  0.12240169702E+03  0.78146573233E+02 0.  0.
         -6    2    1    2    0  502  0.14956487448E+03  0.68890242681E+02  0.23537381037E+03  0.33513564234E+03  0.17262546436E+03 0.  0.
        -24    2    5    5    0    0  0.27909316459E+02  0.79297741947E+02  0.13056302708E+03  0.17415185082E+03  0.78835913649E+02 0.  0.
          5    1    3    3  501    0 -0.83971660462E+02 -0.29746637209E+02  0.75471290799E+02  0.11685079341E+03  0.47000000000E+01 0. -1.
        -11    1    4    4    0    0 -0.28492109458E+02 -0.16686643432E+02 -0.69313716897E+02  0.76776531052E+02  0.00000000000E+00 0.  1.
         12    1    4    4    0    0 -0.37101104562E+02 -0.22456962040E+02  0.14172108733E+02  0.45625165969E+02  0.00000000000E+00 0. -1.
         -5    1    5    5    0  502  0.12165555802E+03 -0.10407499265E+02  0.10481078330E+03  0.16098379153E+03  0.47000000000E+01 0.  1.
         11    1    6    6    0    0  0.47400826292E+02  0.65512205648E+02  0.12619833671E+03  0.14988231253E+03  0.00000000000E+00 0. -1.
        -12    1    6    6    0    0 -0.19491509833E+02  0.13785536298E+02  0.43646903686E+01  0.24269538286E+02  0.00000000000E+00 0.  1.
</event>
<event>
12    1  0.1565987E-001  0.2006849E+03  0.7818608E-02  0.1149223E+00
         21   -1    0    0  501  502  0.00000000000E+00  0.00000000000E+00  0.15093103344E+04  0.15093103344E+04  0.00000000000E+00 0.  1.
         21   -1    0    0  502  503 -0.00000000000E+00 -0.00000000000E+00 -0.14344163689E+03  0.14344163689E+03  0.00000000000E+00 0.  1.
         -6    2    1    2    0  503  0.26378146028E+02 -0.10012918918E+03 -0.62839493980E+02  0.21001792519E+03  0.17157233397E+03 0.  0.
        -24    2    3    3    0    0  0.19680956455E+02 -0.12932722859E+03 -0.14657610154E+02  0.15308847953E+03  0.78156029366E+02 0.  0.
          6    2    1    2  501    0 -0.26378146028E+02  0.10012918918E+03  0.14287081915E+04  0.14427340461E+04  0.17190919188E+03 0.  0.
         24    2    5    5    0    0  0.25766290457E+02  0.85196049152E+02  0.12581456251E+04  0.12636929335E+04  0.77891898612E+02 0.  0.
          5    1    5    5  501    0 -0.52144436485E+02  0.14933140024E+02  0.17056256643E+03  0.17904111258E+03  0.47000000000E+01 0. -1.
        -11    1    6    6    0    0 -0.20769344398E+02  0.63517335958E+02  0.73871033773E+03  0.74172689091E+03  0.00000000000E+00 0.  1.
         12    1    6    6    0    0  0.46535634855E+02  0.21678713194E+02  0.51943528733E+03  0.52196604261E+03  0.00000000000E+00 0. -1.
         -5    1    3    3    0  503  0.66971895730E+01  0.29198039418E+02 -0.48181883826E+02  0.56929445659E+02  0.47000000000E+01 0.  1.
         11    1    4    4    0    0 -0.26390058202E+02 -0.47109261502E+02 -0.22540674597E+02  0.58513243821E+02  0.00000000000E+00 0. -1.
        -12    1    4    4    0    0  0.46071014657E+02 -0.82217967092E+02  0.78830644425E+01  0.94575235708E+02  0.00000000000E+00 0.  1.
</event>
<event>
12    1  0.1565987E-001  0.1878743E+03  0.7818608E-02  0.1160484E+00
         21   -1    0    0  503  502  0.00000000000E+00  0.00000000000E+00  0.67168180380E+03  0.67168180380E+03  0.00000000000E+00 0. -1.
         21   -1    0    0  501  503 -0.00000000000E+00 -0.00000000000E+00 -0.73330774215E+02  0.73330774215E+02  0.00000000000E+00 0.  1.
          6    2    1    2  501    0 -0.33574709417E+02  0.65756772113E+02  0.10057146837E+03  0.21309944806E+03  0.17275861867E+03 0.  0.
         24    2    3    3    0    0 -0.72041822799E+02  0.25238270007E+02  0.11168132521E+03  0.15594188737E+03  0.77576796354E+02 0.  0.
         -6    2    1    2    0  502  0.33574709417E+02 -0.65756772113E+02  0.49777956122E+03  0.53191312995E+03  0.17232490260E+03 0.  0.
        -24    2    5    5    0    0  0.53901543793E+01 -0.13170592858E+02  0.44426075652E+03  0.45162597128E+03  0.79974245035E+02 0.  0.
          5    1    3    3  501    0  0.38467113383E+02  0.40518502107E+02 -0.11109856840E+02  0.57157560689E+02  0.47000000000E+01 0. -1.
        -13    1    4    4    0    0 -0.15155640058E+02 -0.59320320437E+00 -0.10682222140E+02  0.18551420039E+02  0.00000000000E+00 0.  1.
         14    1    4    4    0    0 -0.56886182741E+02  0.25831473211E+02  0.12236354735E+03  0.13739046734E+03  0.00000000000E+00 0. -1.
         -5    1    5    5    0  502  0.28184555037E+02 -0.52586179255E+02  0.53518804697E+02  0.80287158671E+02  0.47000000000E+01 0.  1.
         13    1    6    6    0    0  0.39415202245E+02  0.92182194027E+01  0.21626550771E+03  0.22002114344E+03  0.00000000000E+00 0. -1.
        -14    1    6    6    0    0 -0.34025047865E+02 -0.22388812261E+02  0.22799524881E+03  0.23160482783E+03  0.00000000000E+00 0.  1.
</event>
<event>
12    1  0.1565987E-001  0.1746416E+03  0.7818608E-02  0.1173136E+00
         21   -1    0    0  501  502  0.00000000000E+00  0.00000000000E+00  0.60657670985E+03  0.60657670985E+03  0.00000000000E+00 0.  1.
         21   -1    0    0  502  503 -0.00000000000E+00 -0.00000000000E+00 -0.18741601894E+03  0.18741601894E+03  0.00000000000E+00 0.  1.
         -6    2    1    2    0  503  0.15680716185E+02  0.27172131101E+02 -0.13004485975E+03  0.21774147175E+03  0.17180067929E+03 0.  0.
        -24    2    3    3    0    0  0.28277537494E+02  0.43298779900E+02 -0.94588421466E+01  0.95341200718E+02  0.79536604102E+02 0.  0.
          6    2    1    2  501    0 -0.15680716185E+02 -0.27172131101E+02  0.54920555066E+03  0.57625125703E+03  0.17162332238E+03 0.  0.
         24    2    5    5    0    0  0.69857052893E+01 -0.78792686469E+02  0.42601960731E+03  0.44069567788E+03  0.80392084010E+02 0.  0.
          5    1    5    5  501    0 -0.22666421474E+02  0.51620555369E+02  0.12318594335E+03  0.13555557915E+03  0.47000000000E+01 0. -1.
        -11    1    6    6    0    0  0.22359915973E+02 -0.25039550005E+00  0.34737685022E+02  0.41312653037E+02  0.00000000000E+00 0.  1.
         12    1    6    6    0    0 -0.15374210684E+02 -0.78542290969E+02  0.39128192229E+03  0.39938302484E+03  0.00000000000E+00 0. -1.
         -5    1    3    3    0  503 -0.12596821309E+02 -0.16126648799E+02 -0.12058601760E+03  0.12240027104E+03  0.47000000000E+01 0.  1.
         11    1    4    4    0    0  0.51220931641E+02  0.33372732450E+02 -0.24842546479E+02  0.65988447662E+02  0.00000000000E+00 0. -1.
        -12    1    4    4    0    0 -0.22943394148E+02  0.99260474503E+01  0.15383704332E+02  0.29352753056E+02  0.00000000000E+00 0.  1.
</event>
<event>
12    1  0.1565987E-001  0.1820684E+03  0.7818608E-02  0.1165941E+00
         21   -1    0    0  501  502  0.00000000000E+00  0.00000000000E+00  0.18901447340E+03  0.18901447340E+03  0.00000000000E+00 0.  1.
         21   -1    0    0  502  503 -0.00000000000E+00 -0.00000000000E+00 -0.20753393536E+03  0.20753393536E+03  0.00000000000E+00 0. -1.
         -6    2    1    2    0  503  0.38369704429E+02  0.44817129966E+02 -0.87926632809E+02  0.20218806133E+03  0.17224433236E+03 0.  0.
        -24    2    3    3    0    0  0.34685160947E+02 -0.28084207909E+02 -0.53370575159E+01  0.91864406240E+02  0.80117425241E+02 0.  0.
          6    2    1    2  501    0 -0.38369704429E+02 -0.44817129966E+02  0.69407170848E+02  0.19436034743E+03  0.17169094306E+03 0.  0.
         24    2    5    5    0    0 -0.64044745028E+01 -0.50351203299E+02 -0.22036141713E+02  0.97219360690E+02  0.79935921738E+02 0.  0.
          5    1    5    5  501    0 -0.31965229926E+02  0.55340733326E+01  0.91443312561E+02  0.97140986736E+02  0.47000000000E+01 0. -1.
        -13    1    6    6    0    0 -0.16468613069E+02 -0.39902382467E+02  0.23694518149E+02  0.49242720611E+02  0.00000000000E+00 0.  1.
         14    1    6    6    0    0  0.10064138566E+02 -0.10448820832E+02 -0.45730659862E+02  0.47976640079E+02  0.00000000000E+00 0. -1.
         -5    1    3    3    0  503  0.36845434821E+01  0.72901337875E+02 -0.82589575293E+02  0.11032365509E+03  0.47000000000E+01 0.  1.
         13    1    4    4    0    0  0.54953213204E+02  0.22958051766E+01 -0.32822397887E+00  0.55002128085E+02  0.00000000000E+00 0. -1.
        -14    1    4    4    0    0 -0.20268052258E+02 -0.30380013086E+02 -0.50088335371E+01  0.36862278155E+02  0.00000000000E+00 0.  1.
</event>
<event>
12    1  0.1565987E-001  0.3077048E+03  0.7818608E-02  0.1081530E+00
         21   -1    0    0  501  502  0.00000000000E+00  0.00000000000E+00  0.44590408506E+03  0.44590408506E+03  0.00000000000E+00 0.  1.
         21   -1    0    0  502  503 -0.00000000000E+00 -0.00000000000E+00 -0.25671959884E+03  0.25671959884E+03  0.00000000000E+00 0. -1.
         -6    2    1    2    0  503  0.17143311339E+03  0.18877436986E+03 -0.52300855839E+02  0.31147487707E+03  0.17104427625E+03 0.  0.
        -24    2    3    3    0    0  0.58998931298E+02  0.14221739164E+03  0.12224322339E+02  0.17365402907E+03  0.79370191981E+02 0.  0.
          6    2    1    2  501    0 -0.17143311339E+03 -0.18877436986E+03  0.24148534206E+03  0.39114880683E+03  0.17221249541E+03 0.  0.
         24    2    5    5    0    0 -0.17510135626E+03 -0.11609022151E+03  0.13446601165E+03  0.26164333009E+03  0.78985437856E+02 0.  0.
          5    1    5    5  501    0  0.36682428713E+01 -0.72684148353E+02  0.10701933040E+03  0.12950547675E+03  0.47000000000E+01 0. -1.
        -11    1    6    6    0    0 -0.15553785252E+03 -0.82867781027E+02  0.13667902113E+03  0.22302521722E+03  0.00000000000E+00 0.  1.
         12    1    6    6    0    0 -0.19563503738E+02 -0.33222440484E+02 -0.22130094760E+01  0.38618112864E+02  0.00000000000E+00 0. -1.
         -5    1    3    3    0  503  0.11243418209E+03  0.46556978222E+02 -0.64525178178E+02  0.13782084800E+03  0.47000000000E+01 0.  1.
         13    1    4    4    0    0  0.14940403583E+02  0.99327534922E+02 -0.22647500910E+02  0.10296642244E+03  0.00000000000E+00 0. -1.
        -14    1    4    4    0    0  0.44058527715E+02  0.42889856719E+02  0.34871823249E+02  0.70687606626E+02  0.00000000000E+00 0.  1.
</event>
<event>
12    1  0.1565987E-001  0.1847584E+03  0.7818608E-02  0.1163491E+00
         21   -1    0    0  503  502  0.00000000000E+00  0.00000000000E+00  0.14844062974E+03  0.14844062974E+03  0.00000000000E+00 0. -1.
         21   -1    0    0  501  503 -0.00000000000E+00 -0.00000000000E+00 -0.61523030175E+03  0.61523030175E+03  0.00000000000E+00 0. -1.
          6    2    1    2  501    0 -0.10095286553E+02  0.67572915282E+02 -0.53578720656E+03  0.56644944037E+03  0.17067227100E+03 0.  0.
         24    2    3    3    0    0  0.14346108317E+02  0.95760798540E+02 -0.26800979991E+03  0.29604461782E+03  0.80232297298E+02 0.  0.
         -6    2    1    2    0  502  0.10095286553E+02 -0.67572915282E+02  0.68997534549E+02  0.19722149112E+03  0.17166141994E+03 0.  0.
        -24    2    5    5    0    0  0.62866743900E+02 -0.61691914618E+02  0.18343485328E+02  0.12368690347E+03  0.84875478306E+02 0.  0.
          5    1    3    3  501    0 -0.24441394870E+02 -0.28187883258E+02 -0.26777740665E+03  0.27040482254E+03  0.47000000000E+01 0. -1.
        -11    1    4    4    0    0 -0.58742385931E+01  0.10306256132E+03 -0.23470800492E+03  0.25640640748E+03  0.00000000000E+00 0.  1.
         12    1    4    4    0    0  0.20220346910E+02 -0.73017627820E+01 -0.33301794996E+02  0.39638210338E+02  0.00000000000E+00 0. -1.
         -5    1    5    5    0  502 -0.52771457346E+02 -0.58810006640E+01  0.50654049220E+02  0.73534587656E+02  0.47000000000E+01 0.  1.
         11    1    6    6    0    0  0.47817252224E+02 -0.14899100944E+02  0.45382513523E+02  0.67587316509E+02  0.00000000000E+00 0. -1.
        -12    1    6    6    0    0  0.15049491675E+02 -0.46792813674E+02 -0.27039028195E+02  0.56099586959E+02  0.00000000000E+00 0.  1.
</event>
<event>
12    1  0.1565987E-001  0.3440617E+03  0.7818608E-02  0.1065178E+00
         21   -1    0    0  503  502  0.00000000000E+00  0.00000000000E+00  0.39502649790E+03  0.39502649790E+03  0.00000000000E+00 0. -1.
         21   -1    0    0  501  503 -0.00000000000E+00 -0.00000000000E+00 -0.31822560599E+03  0.31822560599E+03  0.00000000000E+00 0.  1.
          6    2    1    2  501    0  0.18006577308E+03  0.23646253538E+03  0.12643572479E+03  0.36655752149E+03  0.17332112043E+03 0.  0.
         24    2    3    3    0    0  0.11818950342E+03  0.10198337707E+03  0.13043435304E+03  0.21839748709E+03  0.79466810669E+02 0.  0.
         -6    2    1    2    0  502 -0.18006577308E+03 -0.23646253538E+03 -0.49634832885E+02  0.34669458239E+03  0.17145058633E+03 0.  0.
        -24    2    5    5    0    0 -0.66452905182E+02 -0.13265007408E+03  0.34232846771E+02  0.17136407004E+03  0.78623952716E+02 0.  0.
          5    1    3    3  501    0  0.61876269657E+02  0.13447915831E+03 -0.39986282472E+01  0.14816003440E+03  0.47000000000E+01 0. -1.
        -11    1    4    4    0    0  0.98672040604E+02  0.11059274665E+03  0.92013051054E+02  0.17445150837E+03  0.00000000000E+00 0.  1.
         12    1    4    4    0    0  0.19517462815E+02 -0.86093695823E+01  0.38421301984E+02  0.43945978718E+02  0.00000000000E+00 0. -1.
         -5    1    5    5    0  502 -0.11361286789E+03 -0.10381246130E+03 -0.83867679656E+02  0.17533051235E+03  0.47000000000E+01 0.  1.
         11    1    6    6    0    0 -0.46283333422E+02 -0.90036091447E+02 -0.15977337425E+02  0.10248863365E+03  0.00000000000E+00 0. -1.
        -12    1    6    6    0    0 -0.20169571760E+02 -0.42613982638E+02  0.50210184196E+02  0.68875436393E+02  0.00000000000E+00 0.  1.
</event>
<event>
12    1  0.1565987E-001  0.3067593E+03  0.7818608E-02  0.1081932E+00
         21   -1    0    0  501  502  0.00000000000E+00  0.00000000000E+00  0.43490749447E+03  0.43490749447E+03  0.00000000000E+00 0.  1.
         21   -1    0    0  502  503 -0.00000000000E+00 -0.00000000000E+00 -0.42827971529E+03  0.42827971529E+03  0.00000000000E+00 0. -1.
         -6    2    1    2    0  503  0.12137167179E+03 -0.22285689252E+03 -0.30036741604E+03  0.42932721170E+03  0.17235136445E+03 0.  0.
        -24    2    3    3    0    0 -0.57654246641E+01 -0.10142495084E+03 -0.10272572236E+03  0.16476363364E+03  0.79209975130E+02 0.  0.
          6    2    1    2  501    0 -0.12137167179E+03  0.22285689252E+03  0.30699519522E+03  0.43385999806E+03  0.17202375061E+03 0.  0.
         24    2    5    5    0    0 -0.14373819051E+03  0.22911977525E+03  0.29088336284E+03  0.40520400388E+03  0.80128741184E+02 0.  0.
          5    1    5    5  501    0  0.22366518722E+02 -0.62628827279E+01  0.16111832374E+02  0.28655994177E+02  0.47000000000E+01 0. -1.
        -13    1    6    6    0    0 -0.77504850906E+02  0.74190627807E+02  0.15619245261E+03  0.18949230438E+03  0.00000000000E+00 0.  1.
         14    1    6    6    0    0 -0.66233339608E+02  0.15492914744E+03  0.13469091023E+03  0.21571169950E+03  0.00000000000E+00 0. -1.
         -5    1    3    3    0  503  0.12713709646E+03 -0.12143194168E+03 -0.19764169369E+03  0.26456357806E+03  0.47000000000E+01 0.  1.
         13    1    4    4    0    0  0.13431501262E+02 -0.96242976535E+02 -0.51856538271E+02  0.11014634047E+03  0.00000000000E+00 0. -1.
        -14    1    4    4    0    0 -0.19196925927E+02 -0.51819743094E+01 -0.50869184087E+02  0.54617293163E+02  0.00000000000E+00 0.  1.
</event>
<event>
12    1  0.1565987E-001  0.2603367E+03  0.7818608E-02  0.1107634E+00
         21   -1    0    0  501  502  0.00000000000E+00  0.00000000000E+00  0.11595132470E+03  0.11595132470E+03  0.00000000000E+00 0. -1.
         21   -1    0    0  502  503 -0.00000000000E+00 -0.00000000000E+00 -0.61857868301E+03  0.61857868301E+03  0.00000000000E+00 0.  1.
         -6    2    1    2    0  503  0.54541870317E+02  0.18123275865E+03 -0.35165434086E+03  0.43753394705E+03  0.17875975764E+03 0.  0.
        -24    2    3    3    0    0  0.20181250048E+02  0.14714384589E+03 -0.13581434581E+03  0.21628363708E+03  0.79211621008E+02 0.  0.
          6    2    1    2  501    0 -0.54541870317E+02 -0.18123275865E+03 -0.15097301744E+03  0.29699606066E+03  0.17202813615E+03 0.  0.
         24    2    5    5    0    0 -0.95796893721E+02 -0.12182003036E+03 -0.70644268828E+02  0.18879880056E+03  0.81469072244E+02 0.  0.
          5    1    5    5  501    0  0.41255023404E+02 -0.59412728287E+02 -0.80328748615E+02  0.10819726010E+03  0.47000000000E+01 0. -1.
        -13    1    6    6    0    0 -0.11967452732E+01 -0.94878954715E+01 -0.36891140404E+02  0.38110478874E+02  0.00000000000E+00 0.  1.
         14    1    6    6    0    0 -0.94600148448E+02 -0.11233213489E+03 -0.33753128425E+02  0.15068832169E+03  0.00000000000E+00 0. -1.
         -5    1    3    3    0  503  0.34360620269E+02  0.34088912754E+02 -0.21583999506E+03  0.22125030997E+03  0.47000000000E+01 0.  1.
         13    1    4    4    0    0 -0.29830658438E+02  0.38680999250E+02 -0.41547378433E+02  0.64127003208E+02  0.00000000000E+00 0. -1.
        -14    1    4    4    0    0  0.50011908486E+02  0.10846284665E+03 -0.94266967373E+02  0.15215663387E+03  0.00000000000E+00 0.  1.
</event>
<event>
12    1  0.1565987E-001  0.2073459E+03  0.7818608E-02  0.1146102E+00
         21   -1    0    0  503  502  0.00000000000E+00  0.00000000000E+00  0.10266810274E+04  0.10266810274E+04  0.00000000000E+00 0.  1.
         21   -1    0    0  501  503 -0.00000000000E+00 -0.00000000000E+00 -0.69576669585E+02  0.69576669585E+02  0.00000000000E+00 0.  1.
          6    2    1    2  501    0 -0.11480582890E+03 -0.17813492995E+02  0.12645229624E+03  0.24286315676E+03  0.17174000933E+03 0.  0.
         24    2    3    3    0    0 -0.24340785749E+02  0.23570969437E+02  0.67043489358E+01  0.87112527080E+02  0.79972367906E+02 0.  0.
         -6    2    1    2    0  502  0.11480582890E+03  0.17813492995E+02  0.83065206155E+03  0.85339454020E+03  0.15748553902E+03 0.  0.
        -24    2    5    5    0    0  0.42190129676E+02  0.91917201559E+01  0.20697659839E+03  0.22542913662E+03  0.78195195476E+02 0.  0.
          5    1    3    3  501    0 -0.90465043149E+02 -0.41384462432E+02  0.11974794730E+03  0.15575062968E+03  0.47000000000E+01 0. -1.
        -13    1    4    4    0    0 -0.40241433685E+02 -0.16681649223E+02  0.26166719905E+01  0.43640547409E+02  0.00000000000E+00 0.  1.
         14    1    4    4    0    0  0.15900647936E+02  0.40252618659E+02  0.40876769453E+01  0.43471979671E+02  0.00000000000E+00 0. -1.
         -5    1    5    5    0  502  0.72615699222E+02  0.86217728392E+01  0.62367546316E+03  0.62796540358E+03  0.47000000000E+01 0.  1.
         11    1    6    6    0    0  0.19911815297E+02 -0.28957725716E+02  0.42628578689E+02  0.55246954560E+02  0.00000000000E+00 0. -1.
        -12    1    6    6    0    0  0.22278314379E+02  0.38149445872E+02  0.16434801970E+03  0.17018218206E+03  0.00000000000E+00 0.  1.
</event>
<event>
12    1  0.1565987E-001  0.2057651E+03  0.7818608E-02  0.1145224E+00
         21   -1    0    0  501  502  0.00000000000E+00  0.00000000000E+00  0.15460079050E+03  0.15460079050E+03  0.00000000000E+00 0.  1.
         21   -1    0    0  502  503 -0.00000000000E+00 -0.00000000000E+00 -0.13888357645E+04  0.13888357645E+04  0.00000000000E+00 0.  1.
         -6    2    1    2    0  503 -0.10962951579E+03 -0.12253884188E+02 -0.13094746509E+04  0.13255425798E+04  0.17369652034E+03 0.  0.
        -24    2    3    3    0    0 -0.94477523686E+02 -0.61730633877E+02 -0.72838913410E+03  0.74213877503E+03  0.86501775012E+02 0.  0.
          6    2    1    2  501    0  0.10962951579E+03  0.12253884188E+02  0.75239676902E+02  0.21789397517E+03  0.17218590832E+03 0.  0.
         24    2    5    5    0    0  0.40455357858E+02  0.20517811153E+01  0.10858912029E+03  0.14028326452E+03  0.79037658579E+02 0.  0.
          5    1    5    5  501    0  0.69174157933E+02  0.10202103073E+02 -0.33349443392E+02  0.77610710649E+02  0.47000000000E+01 0. -1.
        -13    1    6    6    0    0 -0.30963791348E+01  0.34014857099E+02  0.34071842659E+02  0.48244051751E+02  0.00000000000E+00 0.  1.
         14    1    6    6    0    0  0.43551736993E+02 -0.31963075983E+02  0.74517277635E+02  0.92039212772E+02  0.00000000000E+00 0. -1.
         -5    1    3    3    0  503 -0.15151992106E+02  0.49476749689E+02 -0.58108551678E+03  0.58340380479E+03  0.47000000000E+01 0.  1.
         11    1    4    4    0    0 -0.42119100624E+02  0.16795450825E+02 -0.17615346004E+03  0.18189597932E+03  0.00000000000E+00 0. -1.
        -12    1    4    4    0    0 -0.52358423061E+02 -0.78526084702E+02 -0.55223567406E+03  0.56024279571E+03  0.00000000000E+00 0.  1.
</event>
<event>
12    1  0.1565987E-001  0.4075300E+03  0.7818608E-02  0.1041245E+00
         21   -1    0    0  501  502  0.00000000000E+00  0.00000000000E+00  0.64582133412E+03  0.64582133412E+03  0.00000000000E+00 0. -1.
         21   -1    0    0  502  503 -0.00000000000E+00 -0.00000000000E+00 -0.28973033799E+03  0.28973033799E+03  0.00000000000E+00 0.  1.
         -6    2    1    2    0  503  0.17603271377E+03  0.32412865758E+03  0.20551228119E+02  0.40804782609E+03  0.17330254590E+03 0.  0.
        -24    2    3    3    0    0  0.16257669562E+03  0.24663852372E+03  0.71319474776E+02  0.31431794751E+03  0.80296707906E+02 0.  0.
          6    2    1    2  501    0 -0.17603271377E+03 -0.32412865758E+03  0.33553976801E+03  0.52750384603E+03  0.17212341119E+03 0.  0.
         24    2    5    5    0    0 -0.37643961264E+02 -0.10718038768E+03  0.17836105450E+03  0.22593256654E+03  0.79549704827E+02 0.  0.
          5    1    5    5  501    0 -0.13838875251E+03 -0.21694826990E+03  0.15717871351E+03  0.30157127949E+03  0.47000000000E+01 0. -1.
        -11    1    6    6    0    0 -0.54195988916E+02 -0.10801049760E+03  0.16565799574E+03  0.20505132128E+03  0.00000000000E+00 0.  1.
         12    1    6    6    0    0  0.16552027653E+02  0.83010991309E+00  0.12703058762E+02  0.20881245265E+02  0.00000000000E+00 0. -1.
         -5    1    3    3    0  503  0.13456018148E+02  0.77490133861E+02 -0.50768246657E+02  0.93729878581E+02  0.47000000000E+01 0.  1.
         11    1    4    4    0    0  0.22618872702E+02  0.34235921927E+02 -0.17885569314E+02  0.44761650352E+02  0.00000000000E+00 0. -1.
        -12    1    4    4    0    0  0.13995782292E+03  0.21240260179E+03  0.89205044091E+02  0.26955629715E+03  0.00000000000E+00 0.  1.
</event>
<event>
12    1  0.1565987E-001  0.2685788E+03  0.7818608E-02  0.1102183E+00
         21   -1    0    0  503  502  0.00000000000E+00  0.00000000000E+00  0.39324116035E+03  0.39324116035E+03  0.00000000000E+00 0.  1.
         21   -1    0    0  501  503 -0.00000000000E+00 -0.00000000000E+00 -0.59841481609E+03  0.59841481609E+03  0.00000000000E+00 0. -1.
          6    2    1    2  501    0  0.79680498448E+02 -0.18884683177E+03 -0.51565391158E+03  0.58112881476E+03  0.17262570814E+03 0.  0.
         24    2    3    3    0    0  0.10136480063E+03 -0.74984950104E+02 -0.33060736666E+03  0.36272769103E+03  0.79828449838E+02 0.  0.
         -6    2    1    2    0  502 -0.79680498448E+02  0.18884683177E+03  0.31048025585E+03  0.41052716169E+03  0.17355821361E+03 0.  0.
        -24    2    5    5    0    0 -0.82100160941E+02  0.20794940583E+03  0.24540745232E+03  0.34250273328E+03  0.84260980483E+02 0.  0.
          5    1    3    3  501    0 -0.21684302178E+02 -0.11386188167E+03 -0.18504654493E+03  0.21840112373E+03  0.47000000000E+01 0. -1.
        -13    1    4    4    0    0  0.73406209678E+02 -0.75113994782E+01 -0.13369123828E+03  0.15270311043E+03  0.00000000000E+00 0.  1.
         14    1    4    4    0    0  0.27958590948E+02 -0.67473550626E+02 -0.19691612838E+03  0.21002458060E+03  0.00000000000E+00 0. -1.
         -5    1    5    5    0  502  0.24196624935E+01 -0.19102574064E+02  0.65072803522E+02  0.68024428411E+02  0.47000000000E+01 0.  1.
         13    1    6    6    0    0 -0.55353151651E+02  0.80052009973E+02  0.15707134123E+03  0.18478014486E+03  0.00000000000E+00 0. -1.
        -14    1    6    6    0    0 -0.26747009290E+02  0.12789739586E+03  0.88336111098E+02  0.15772258842E+03  0.00000000000E+00 0.  1.
</event>
<event>
12    1  0.1565987E-001  0.2048422E+03  0.7818608E-02  0.1146186E+00
         21   -1    0    0  503  502  0.00000000000E+00  0.00000000000E+00  0.90042367577E+03  0.90042367577E+03  0.00000000000E+00 0. -1.
         21   -1    0    0  501  503 -0.00000000000E+00 -0.00000000000E+00 -0.93034253338E+02  0.93034253338E+02  0.00000000000E+00 0. -1.
          6    2    1    2  501    0 -0.10718257329E+03 -0.13256779029E+02  0.49703104876E+02  0.20857010890E+03  0.17136874127E+03 0.  0.
         24    2    3    3    0    0 -0.26513922034E+01  0.30599159927E+02  0.41394694775E+02  0.94810577958E+02  0.79575036716E+02 0.  0.
         -6    2    1    2    0  502  0.10718257329E+03  0.13256779029E+02  0.75768631756E+03  0.78488782021E+03  0.17405886446E+03 0.  0.
        -24    2    5    5    0    0  0.11839655447E+03 -0.41751700571E+02  0.54979543506E+03  0.56949888079E+03  0.79328470252E+02 0.  0.
          5    1    3    3  501    0 -0.10453118109E+03 -0.43855938956E+02  0.83084101004E+01  0.11375953094E+03  0.47000000000E+01 0. -1.
        -11    1    4    4    0    0 -0.25379967507E+02  0.92523242636E-01  0.49760200919E+02  0.55859009181E+02  0.00000000000E+00 0.  1.
         12    1    4    4    0    0  0.22728575304E+02  0.30506636684E+02 -0.83655061438E+01  0.38951568776E+02  0.00000000000E+00 0. -1.
         -5    1    5    5    0  502 -0.11213981185E+02  0.55008479600E+02  0.20789088250E+03  0.21538893943E+03  0.47000000000E+01 0.  1.
         11    1    6    6    0    0  0.16202758163E+02 -0.87574015904E+01  0.25652517475E+03  0.25718551035E+03  0.00000000000E+00 0. -1.
        -12    1    6    6    0    0  0.10219379631E+03 -0.32994298980E+02  0.29327026031E+03  0.31231337043E+03  0.00000000000E+00 0.  1.
</event>
<event>
12    1  0.1565987E-001  0.2892941E+03  0.7818608E-02  0.1090733E+00
         21   -1    0    0  501  502  0.00000000000E+00  0.00000000000E+00  0.91043166563E+02  0.91043166563E+02  0.00000000000E+00 0. -1.
         21   -1    0    0  502  503 -0.00000000000E+00 -0.00000000000E+00 -0.10604440835E+04  0.10604440835E+04  0.00000000000E+00 0.  1.
         -6    2    1    2    0  503 -0.18813636865E+03 -0.13679965694E+03 -0.27425479189E+03  0.39854687884E+03  0.17179780094E+03 0.  0.
        -24    2    3    3    0    0 -0.13743693835E+03 -0.23863986409E+02 -0.11992359172E+03  0.20064511721E+03  0.80114875880E+02 0.  0.
          6    2    1    2  501    0  0.18813636865E+03  0.13679965694E+03 -0.69514612510E+03  0.75294037127E+03  0.17199310483E+03 0.  0.
         24    2    5    5    0    0  0.90615474183E+02  0.13010687066E+03 -0.54720683638E+03  0.57556156365E+03  0.81834160480E+02 0.  0.
          5    1    5    5  501    0  0.97520894468E+02  0.66927862735E+01 -0.14793928872E+03  0.17737880762E+03  0.47000000000E+01 0. -1.
        -11    1    6    6    0    0  0.85725127091E+02  0.11219077908E+03 -0.53504714594E+03  0.55336336769E+03  0.00000000000E+00 0.  1.
         12    1    6    6    0    0  0.48903470914E+01  0.17916091586E+02 -0.12159690437E+02  0.22198195961E+02  0.00000000000E+00 0. -1.
         -5    1    3    3    0  503 -0.50699430299E+02 -0.11293567053E+03 -0.15433120017E+03  0.19790176163E+03  0.47000000000E+01 0.  1.
         13    1    4    4    0    0 -0.46527665313E+02 -0.36246868883E+02 -0.14206906796E+02  0.60667086167E+02  0.00000000000E+00 0. -1.
        -14    1    4    4    0    0 -0.90909273039E+02  0.12382882474E+02 -0.10571668492E+03  0.13997803104E+03  0.00000000000E+00 0.  1.
</event>
<event>
12    1  0.1565987E-001  0.1808266E+03  0.7818608E-02  0.1167530E+00
         21   -1    0    0  501  502  0.00000000000E+00  0.00000000000E+00  0.28848920936E+03  0.28848920936E+03  0.00000000000E+00 0.  1.
         21   -1    0    0  502  503 -0.00000000000E+00 -0.00000000000E+00 -0.12046655280E+03  0.12046655280E+03  0.00000000000E+00 0.  1.
         -6    2    1    2    0  503  0.39176994409E+02 -0.43557434397E+02  0.30241474568E+02  0.18333798615E+03  0.17107361983E+03 0.  0.
        -24    2    3    3    0    0  0.39906234219E+02 -0.33406961467E+02  0.85075821767E+02  0.12736960647E+03  0.79224924108E+02 0.  0.
          6    2    1    2  501    0 -0.39176994409E+02  0.43557434397E+02  0.13778118199E+03  0.22561777601E+03  0.16878281832E+03 0.  0.
         24    2    5    5    0    0  0.22987617595E+02  0.71007008913E+02  0.66325614913E+02  0.12689641969E+03  0.78314674614E+02 0.  0.
          5    1    5    5  501    0 -0.62164612004E+02 -0.27449574516E+02  0.71455567078E+02  0.98721356318E+02  0.47000000000E+01 0. -1.
        -11    1    6    6    0    0 -0.14549303271E+02  0.55422709877E+02  0.64408217539E+02  0.86207757669E+02  0.00000000000E+00 0.  1.
         12    1    6    6    0    0  0.37536920867E+02  0.15584299036E+02  0.19173973737E+01  0.40688662024E+02  0.00000000000E+00 0. -1.
         -5    1    3    3    0  503 -0.72923980981E+00 -0.10150472930E+02 -0.54834347199E+02  0.55968379682E+02  0.47000000000E+01 0.  1.
         13    1    4    4    0    0  0.98141790516E+01  0.25949214351E+02  0.31165679911E+02  0.41725045719E+02  0.00000000000E+00 0. -1.
        -14    1    4    4    0    0  0.30092055167E+02 -0.59356175818E+02  0.53910141856E+02  0.85644560755E+02  0.00000000000E+00 0.  1.
</event>
<event>
12    1  0.1565987E-001  0.1735196E+03  0.7818608E-02  0.1174498E+00
         21   -1    0    0  501  502  0.00000000000E+00  0.00000000000E+00  0.37957394581E+02  0.37957394581E+02  0.00000000000E+00 0.  1.
         21   -1    0    0  502  503 -0.00000000000E+00 -0.00000000000E+00 -0.79995885801E+03  0.79995885801E+03  0.00000000000E+00 0.  1.
         -6    2    1    2    0  503  0.36429215453E+01 -0.13960944766E+02 -0.43259301719E+03  0.46609631488E+03  0.17291870160E+03 0.  0.
        -24    2    3    3    0    0  0.54756153672E+02 -0.50458191291E+02 -0.25909027919E+03  0.28151597574E+03  0.81112307284E+02 0.  0.
          6    2    1    2  501    0 -0.36429215453E+01  0.13960944766E+02 -0.32940844624E+03  0.37181993772E+03  0.17184866241E+03 0.  0.
         24    2    5    5    0    0 -0.64414311556E+02  0.25419787713E+02 -0.24757530195E+03  0.26913975253E+03  0.79669988799E+02 0.  0.
          5    1    5    5  501    0  0.60771390011E+02 -0.11458842948E+02 -0.81833144296E+02  0.10268018519E+03  0.47000000000E+01 0. -1.
        -13    1    6    6    0    0 -0.18389980846E+02 -0.27435528301E+02 -0.54375775083E+02  0.63620944071E+02  0.00000000000E+00 0.  1.
         14    1    6    6    0    0 -0.46024330710E+02  0.52855316014E+02 -0.19319952686E+03  0.20551880845E+03  0.00000000000E+00 0. -1.
         -5    1    3    3    0  503 -0.51113232127E+02  0.36497246525E+02 -0.17350273800E+03  0.18458033914E+03  0.47000000000E+01 0.  1.
         13    1    4    4    0    0 -0.16748544803E+02 -0.22879951487E+02 -0.37273710667E+02  0.46833059263E+02  0.00000000000E+00 0. -1.
        -14    1    4    4    0    0  0.71504698476E+02 -0.27578239804E+02 -0.22181656852E+03  0.23468291647E+03  0.00000000000E+00 0.  1.
</event>
<event>
12    1  0.1565987E-001  0.1901091E+03  0.7818608E-02  0.1158429E+00
         21   -1    0    0  501  502  0.00000000000E+00  0.00000000000E+00  0.54302911318E+03  0.54302911318E+03  0.00000000000E+00 0. -1.
         21   -1    0    0  502  503 -0.00000000000E+00 -0.00000000000E+00 -0.98894192719E+02  0.98894192719E+02  0.00000000000E+00 0. -1.
         -6    2    1    2    0  503 -0.77043373396E+02  0.12950978512E+02  0.38121046352E+02  0.19360561445E+03  0.17299280488E+03 0.  0.
        -24    2    3    3    0    0 -0.95604140104E+01 -0.49696381742E+02  0.22928823509E+01  0.94689544518E+02  0.79998254088E+02 0.  0.
          6    2    1    2  501    0  0.77043373396E+02 -0.12950978512E+02  0.40601387411E+03  0.44831769145E+03  0.17331496552E+03 0.  0.
         24    2    5    5    0    0  0.13094468606E+02  0.23296069605E+02  0.76722634213E+02  0.11088900033E+03  0.75470761404E+02 0.  0.
          5    1    5    5  501    0  0.63948904790E+02 -0.36247048117E+02  0.32929123990E+03  0.33742869112E+03  0.47000000000E+01 0. -1.
        -11    1    6    6    0    0 -0.27642117471E+02  0.49479380199E+01  0.53767328239E+02  0.60658835588E+02  0.00000000000E+00 0.  1.
         12    1    6    6    0    0  0.40736586077E+02  0.18348131585E+02  0.22955305974E+02  0.50230164744E+02  0.00000000000E+00 0. -1.
         -5    1    3    3    0  503 -0.67482959385E+02  0.62647360254E+02  0.35828164002E+02  0.98916069927E+02  0.47000000000E+01 0.  1.
         13    1    4    4    0    0 -0.37955053466E+02 -0.10710027660E+02  0.18830883789E+02  0.43702322139E+02  0.00000000000E+00 0. -1.
        -14    1    4    4    0    0  0.28394639455E+02 -0.38986354082E+02 -0.16538001438E+02  0.50987222379E+02  0.00000000000E+00 0.  1.
</event>
<event>
12    1  0.1565987E-001  0.1765069E+03  0.7818608E-02  0.1171508E+00
         21   -1    0    0  503  502  0.00000000000E+00  0.00000000000E+00  0.81438316983E+02  0.81438316983E+02  0.00000000000E+00 0. -1.
         21   -1    0    0  501  503 -0.00000000000E+00 -0.00000000000E+00 -0.39750515630E+03  0.39750515630E+03  0.00000000000E+00 0. -1.
          6    2    1    2  501    0 -0.22123495713E+02  0.20298608015E+02 -0.20763413374E+03  0.27179055578E+03  0.17279088565E+03 0.  0.
         24    2    3    3    0    0 -0.48393995838E+02  0.28775339786E+02 -0.47182433734E+02  0.10891381651E+03  0.80411680502E+02 0.  0.
         -6    2    1    2    0  502  0.22123495713E+02 -0.20298608015E+02 -0.10843270558E+03  0.20715291751E+03  0.17393446192E+03 0.  0.
        -24    2    5    5    0    0 -0.37136247334E+01 -0.75304767079E+02 -0.43522742878E+02  0.11811007621E+03  0.79819559020E+02 0.  0.
          5    1    3    3  501    0  0.26270500125E+02 -0.84767317710E+01 -0.16045170001E+03  0.16287673927E+03  0.47000000000E+01 0. -1.
        -11    1    4    4    0    0 -0.67731601001E+01  0.32468026531E+02  0.13020614265E+02  0.35631234056E+02  0.00000000000E+00 0.  1.
         12    1    4    4    0    0 -0.41620835738E+02 -0.36926867446E+01 -0.60203047999E+02  0.73282582455E+02  0.00000000000E+00 0. -1.
         -5    1    5    5    0  502  0.25837120447E+02  0.55006159064E+02 -0.64909962698E+02  0.89042841292E+02  0.47000000000E+01 0.  1.
         13    1    6    6    0    0 -0.37220438409E+02 -0.30706671503E+02 -0.39185403081E+02  0.62159122619E+02  0.00000000000E+00 0. -1.
        -14    1    6    6    0    0  0.33506813675E+02 -0.44598095576E+02 -0.43373397973E+01  0.55950953595E+02  0.00000000000E+00 0.  1.
</event>
<event>
12    1  0.1565987E-001  0.1978771E+03  0.7818608E-02  0.1152273E+00
         21   -1    0    0  503  502  0.00000000000E+00  0.00000000000E+00  0.17883295049E+03  0.17883295049E+03  0.00000000000E+00 0. -1.
         21   -1    0    0  501  503 -0.00000000000E+00 -0.00000000000E+00 -0.32693675883E+03  0.32693675883E+03  0.00000000000E+00 0. -1.
          6    2    1    2  501    0  0.84882365928E+02  0.31250800223E+02 -0.22145175232E+03  0.29473587956E+03  0.17218226255E+03 0.  0.
         24    2    3    3    0    0  0.21031190846E+02 -0.47191732007E+02 -0.12873836230E+03  0.15744762037E+03  0.74476953990E+02 0.  0.
         -6    2    1    2    0  502 -0.84882365928E+02 -0.31250800223E+02  0.73347943977E+02  0.21103382975E+03  0.17599354492E+03 0.  0.
        -24    2    5    5    0    0 -0.28434139339E+02 -0.80098266699E+02  0.70967846143E+02  0.13619913104E+03  0.79306591789E+02 0.  0.
          5    1    3    3  501    0  0.63851175082E+02  0.78442532231E+02 -0.92713390026E+02  0.13728825919E+03  0.47000000000E+01 0. -1.
        -11    1    4    4    0    0  0.38796670399E+02 -0.28988187719E+02 -0.12181071913E+03  0.13108526979E+03  0.00000000000E+00 0.  1.
         12    1    4    4    0    0 -0.17765479553E+02 -0.18203544288E+02 -0.69276431704E+01  0.26362350584E+02  0.00000000000E+00 0. -1.
         -5    1    5    5    0  502 -0.56448226589E+02  0.48847466476E+02  0.23800978333E+01  0.74834698715E+02  0.47000000000E+01 0.  1.
         11    1    6    6    0    0 -0.40888626806E+02 -0.19301339060E+02  0.56699129694E+02  0.72520430222E+02  0.00000000000E+00 0. -1.
        -12    1    6    6    0    0  0.12454487467E+02 -0.60796927639E+02  0.14268716450E+02  0.63678700816E+02  0.00000000000E+00 0.  1.
</event>
<event>
12    1  0.1565987E-001  0.2859050E+03  0.7818608E-02  0.1092512E+00
         21   -1    0    0  503  502  0.00000000000E+00  0.00000000000E+00  0.13908487024E+03  0.13908487024E+03  0.00000000000E+00 0. -1.
         21   -1    0    0  501  503 -0.00000000000E+00 -0.00000000000E+00 -0.65454448153E+03  0.65454448153E+03  0.00000000000E+00 0. -1.
          6    2    1    2  501    0 -0.20540574237E+03  0.99065359149E+02 -0.38462284353E+03  0.47924564274E+03  0.17244184509E+03 0.  0.
         24    2    3    3    0    0 -0.20917566872E+03  0.71703954369E+02 -0.38486637260E+03  0.45122764633E+03  0.81168630617E+02 0.  0.
         -6    2    1    2    0  502  0.20540574237E+03 -0.99065359149E+02 -0.13083676776E+03  0.31438370903E+03  0.17237573009E+03 0.  0.
        -24    2    5    5    0    0  0.13747447066E+03 -0.77562561902E+02 -0.15931803794E+03  0.23750522884E+03  0.78174902763E+02 0.  0.
          5    1    3    3  501    0  0.37699263556E+01  0.27361404780E+02  0.24352907306E+00  0.28017996408E+02  0.47000000000E+01 0. -1.
        -13    1    4    4    0    0 -0.22602537044E+02 -0.93124353248E+01 -0.13808358749E+02  0.28076091321E+02  0.00000000000E+00 0.  1.
         14    1    4    4    0    0 -0.18657313168E+03  0.81016389694E+02 -0.37105801385E+03  0.42315155501E+03  0.00000000000E+00 0. -1.
         -5    1    5    5    0  502  0.67931271705E+02 -0.21502797247E+02  0.28481270181E+02  0.76878480188E+02  0.47000000000E+01 0.  1.
         13    1    6    6    0    0  0.13802100957E+03 -0.54880562523E+02 -0.11547221159E+03  0.18813693650E+03  0.00000000000E+00 0. -1.
        -14    1    6    6    0    0 -0.54653890845E+00 -0.22681999379E+02 -0.43845826351E+02  0.49368292344E+02  0.00000000000E+00 0.  1.
</event>
<event>
12    1  0.1565987E-001  0.2380811E+03  0.7818608E-02  0.1121256E+00
         21   -1    0    0  503  502  0.00000000000E+00  0.00000000000E+00  0.10155979893E+03  0.10155979893E+03  0.00000000000E+00 0. -1.
         21   -1    0    0  501  503 -0.00000000000E+00 -0.00000000000E+00 -0.69660642402E+03  0.69660642402E+03  0.00000000000E+00 0.  1.
          6    2    1    2  501    0 -0.10872639372E+03  0.12397426301E+03 -0.47651493989E+03  0.53221064269E+03  0.17026636098E+03 0.  0.
         24    2    3    3    0    0 -0.11703980482E+03  0.10783843372E+03 -0.26006422405E+03  0.31494932497E+03  0.78944492975E+02 0.  0.
         -6    2    1    2    0  502  0.10872639372E+03 -0.12397426301E+03 -0.11853168520E+03  0.26595558026E+03  0.17173107959E+03 0.  0.
        -24    2    5    5    0    0  0.11393185706E+03 -0.12799553303E+03 -0.47626174612E+02  0.19459068067E+03  0.78955404936E+02 0.  0.
          5    1    3    3  501    0  0.83134110994E+01  0.16135829288E+02 -0.21645071584E+03  0.21726131773E+03  0.47000000000E+01 0. -1.
        -11    1    4    4    0    0 -0.10449808131E+03  0.10866740636E+03 -0.26195406355E+03  0.30223895449E+03  0.00000000000E+00 0.  1.
         12    1    4    4    0    0 -0.12541723510E+02 -0.82897263694E+00  0.18898395087E+01  0.12710370475E+02  0.00000000000E+00 0. -1.
         -5    1    5    5    0  502 -0.52054633420E+01  0.40212700210E+01 -0.70905510589E+02  0.71364899587E+02  0.47000000000E+01 0.  1.
         11    1    6    6    0    0  0.34733327379E+02 -0.18770608451E+02  0.19346137772E+02  0.43966041658E+02  0.00000000000E+00 0. -1.
        -12    1    6    6    0    0  0.79198529680E+02 -0.10922492458E+03 -0.66972312383E+02  0.15062463902E+03  0.00000000000E+00 0.  1.
</event>
<event>
12    1  0.1565987E-001  0.2577729E+03  0.7818608E-02  0.1108574E+00
         21   -1    0    0  503  502  0.00000000000E+00  0.00000000000E+00  0.43980201759E+03  0.43980201759E+03  0.00000000000E+00 0. -1.
         21   -1    0    0  501  503 -0.00000000000E+00 -0.00000000000E+00 -0.15780118054E+03  0.15780118054E+03  0.00000000000E+00 0.  1.
          6    2    1    2  501    0 -0.47298565751E+02  0.18611711941E+03  0.20399943866E+03  0.32828727963E+03  0.17111408632E+03 0.  0.
         24    2    3    3    0    0  0.16711899543E+02  0.88745937213E+02  0.25416467035E+02  0.11499767711E+03  0.66508194879E+02 0.  0.
         -6    2    1    2    0  502  0.47298565751E+02 -0.18611711941E+03  0.78001398395E+02  0.26931591850E+03  0.17195961546E+03 0.  0.
        -24    2    5    5    0    0  0.76817258367E+01 -0.19833884450E+02  0.13178733385E+02  0.86439796136E+02  0.82739153115E+02 0.  0.
          5    1    3    3  501    0 -0.64010465294E+02  0.97371182195E+02  0.17858297162E+03  0.21328960252E+03  0.47000000000E+01 0. -1.
        -13    1    4    4    0    0 -0.18550294267E+02  0.67090251835E+02  0.78728775860E+01  0.70051391922E+02  0.00000000000E+00 0.  1.
         14    1    4    4    0    0  0.35262193810E+02  0.21655685378E+02  0.17543589449E+02  0.44946285189E+02  0.00000000000E+00 0. -1.
         -5    1    5    5    0  502  0.39616839914E+02 -0.16628323496E+03  0.64822665010E+02  0.18287612237E+03  0.47000000000E+01 0.  1.
         11    1    6    6    0    0  0.27442186727E+02  0.53957378893E+01  0.37091857959E+02  0.46454208922E+02  0.00000000000E+00 0. -1.
        -12    1    6    6    0    0 -0.19760460890E+02 -0.25229622339E+02 -0.23913124573E+02  0.39985587214E+02  0.00000000000E+00 0.  1.
</event>
<event>
12    1  0.1565987E-001  0.1939075E+03  0.7818608E-02  0.1155299E+00
         21   -1    0    0  501  502  0.00000000000E+00  0.00000000000E+00  0.80935253429E+02  0.80935253429E+02  0.00000000000E+00 0.  1.
         21   -1    0    0  502  503 -0.00000000000E+00 -0.00000000000E+00 -0.48361225486E+03  0.48361225486E+03  0.00000000000E+00 0. -1.
         -6    2    1    2    0  503 -0.17066189343E+02  0.83622061107E+02 -0.26288940172E+03  0.32666643578E+03  0.17411553293E+03 0.  0.
        -24    2    3    3    0    0  0.25526739867E+02  0.72899683283E+02 -0.25950444805E+03  0.28236434874E+03  0.80131695411E+02 0.  0.
          6    2    1    2  501    0  0.17066189343E+02 -0.83622061107E+02 -0.13978759972E+03  0.23788107252E+03  0.17251935458E+03 0.  0.
         24    2    5    5    0    0  0.21063608357E+02 -0.12354200799E+01 -0.94954724422E+01  0.83603185543E+02  0.80337580099E+02 0.  0.
          5    1    5    5  501    0 -0.39974190137E+01 -0.82386641028E+02 -0.13029212728E+03  0.15427788697E+03  0.47000000000E+01 0. -1.
        -13    1    6    6    0    0 -0.97833173872E+01 -0.10849715116E+02  0.29525129694E+02  0.32941810828E+02  0.00000000000E+00 0.  1.
         14    1    6    6    0    0  0.30846925744E+02  0.96142950361E+01 -0.39020602136E+02  0.50661374715E+02  0.00000000000E+00 0. -1.
         -5    1    3    3    0  503 -0.42592929210E+02  0.10722377824E+02 -0.33849536688E+01  0.44302087042E+02  0.47000000000E+01 0.  1.
         13    1    4    4    0    0 -0.13708640644E+02  0.28065973508E+02 -0.18172211016E+03  0.18438696000E+03  0.00000000000E+00 0. -1.
        -14    1    4    4    0    0  0.39235380511E+02  0.44833709775E+02 -0.77782337887E+02  0.97977388734E+02  0.00000000000E+00 0.  1.
</event>
<event>
12    1  0.1565987E-001  0.1896312E+03  0.7818608E-02  0.1158933E+00
         21   -1    0    0  503  502  0.00000000000E+00  0.00000000000E+00  0.80316278092E+02  0.80316278092E+02  0.00000000000E+00 0. -1.
         21   -1    0    0  501  503 -0.00000000000E+00 -0.00000000000E+00 -0.49753000657E+03  0.49753000657E+03  0.00000000000E+00 0. -1.
          6    2    1    2  501    0 -0.75521963693E+02  0.10522837172E+02 -0.30162853147E+03  0.35628604833E+03  0.17362511378E+03 0.  0.
         24    2    3    3    0    0  0.21002505820E+02 -0.16986608025E+01 -0.19465144180E+03  0.21160527579E+03  0.80272151145E+02 0.  0.
         -6    2    1    2    0  502  0.75521963693E+02 -0.10522837172E+02 -0.11558519701E+03  0.22156023634E+03  0.17295867557E+03 0.  0.
        -24    2    5    5    0    0  0.78438519417E+02 -0.22451257862E+02 -0.14783941639E+03  0.18672895463E+03  0.79715426054E+02 0.  0.
          5    1    3    3  501    0 -0.96524469513E+02  0.12221497975E+02 -0.10697708967E+03  0.14468077254E+03  0.47000000000E+01 0. -1.
        -11    1    4    4    0    0  0.32558964687E+02  0.12735781612E+02 -0.18909214230E+03  0.19229696980E+03  0.00000000000E+00 0.  1.
         12    1    4    4    0    0 -0.11556458867E+02 -0.14434442414E+02 -0.55592994989E+01  0.19308305992E+02  0.00000000000E+00 0. -1.
         -5    1    5    5    0  502 -0.29165557240E+01  0.11928420690E+02  0.32254219379E+02  0.34831281705E+02  0.47000000000E+01 0.  1.
         11    1    6    6    0    0  0.21336706151E+02  0.29143363520E+02 -0.36228910948E+02  0.51157840602E+02  0.00000000000E+00 0. -1.
        -12    1    6    6    0    0  0.57101813266E+02 -0.51594621382E+02 -0.11161050544E+03  0.13557111403E+03  0.00000000000E+00 0.  1.
</event>
<event>
12    1  0.1565987E-001  0.1776379E+03  0.7818608E-02  0.1170526E+00
         21   -1    0    0  501  502  0.00000000000E+00  0.00000000000E+00  0.42093401487E+02  0.42093401487E+02  0.00000000000E+00 0. -1.
         21   -1    0    0  502  503 -0.00000000000E+00 -0.00000000000E+00 -0.10295857648E+04  0.10295857648E+04  0.00000000000E+00 0.  1.
         -6    2    1    2    0  503  0.35601583706E+02  0.15769213845E+02 -0.77497189854E+03  0.79469512710E+03  0.17158892924E+03 0.  0.
        -24    2    3    3    0    0  0.92141641290E+01 -0.54463504017E+02 -0.51944965374E+03  0.52834453453E+03  0.79175945298E+02 0.  0.
          6    2    1    2  501    0 -0.35601583706E+02 -0.15769213845E+02 -0.21252046475E+03  0.27698403916E+03  0.17331782697E+03 0.  0.
         24    2    5    5    0    0 -0.45235911068E+02  0.33947703684E+02 -0.20302886716E+03  0.22524650369E+03  0.79476614734E+02 0.  0.
          5    1    5    5  501    0  0.96343273622E+01 -0.49716917529E+02 -0.94915975916E+01  0.51737535476E+02  0.47000000000E+01 0. -1.
        -11    1    6    6    0    0 -0.54319281538E+02  0.71846037849E+01 -0.18186071123E+03  0.18993557109E+03  0.00000000000E+00 0.  1.
         12    1    6    6    0    0  0.90833704696E+01  0.26763099899E+02 -0.21168155928E+02  0.35310932594E+02  0.00000000000E+00 0. -1.
         -5    1    3    3    0  503  0.26387419577E+02  0.70232717862E+02 -0.25552224481E+03  0.26635059257E+03  0.47000000000E+01 0.  1.
         11    1    4    4    0    0  0.18238836382E+01 -0.65829391561E+02 -0.24918876957E+03  0.25774382286E+03  0.00000000000E+00 0. -1.
        -12    1    4    4    0    0  0.73902804908E+01  0.11365887544E+02 -0.27026088417E+03  0.27060071167E+03  0.00000000000E+00 0.  1.
</event>
<event>
12    1  0.1565987E-001  0.2386561E+03  0.7818608E-02  0.1120728E+00
         21   -1    0    0  503  502  0.00000000000E+00  0.00000000000E+00  0.31394158817E+03  0.31394158817E+03  0.00000000000E+00 0. -1.
         21   -1    0    0  501  503 -0.00000000000E+00 -0.00000000000E+00 -0.40284005610E+03  0.40284005610E+03  0.00000000000E+00 0.  1.
          6    2    1    2  501    0 -0.15284559861E+03 -0.62229791645E+02 -0.31024073231E+03  0.39128332817E+03  0.17210173428E+03 0.  0.
         24    2    3    3    0    0 -0.89329026591E+02 -0.74447200620E+02 -0.29141419122E+03  0.32375445544E+03  0.79828916461E+02 0.  0.
         -6    2    1    2    0  502  0.15284559861E+03  0.62229791645E+02  0.22134226438E+03  0.32549831610E+03  0.17240194836E+03 0.  0.
        -24    2    5    5    0    0  0.16779276916E+03  0.21770968560E+02  0.20675523156E+03  0.27972489806E+03  0.82884886200E+02 0.  0.
          5    1    3    3  501    0 -0.63516572019E+02  0.12217408975E+02 -0.18826541090E+02  0.67528872733E+02  0.47000000000E+01 0. -1.
        -11    1    4    4    0    0 -0.97779592075E+02 -0.48713999085E+02 -0.26149516251E+03  0.28339658140E+03  0.00000000000E+00 0.  1.
         12    1    4    4    0    0  0.84505654839E+01 -0.25733201535E+02 -0.29919028702E+02  0.40357874037E+02  0.00000000000E+00 0. -1.
         -5    1    5    5    0  502 -0.14947170547E+02  0.40458823085E+02  0.14587032813E+02  0.45773418040E+02  0.47000000000E+01 0.  1.
         13    1    6    6    0    0  0.74281346721E+02 -0.16057112619E+01  0.15120767734E+03  0.16847569102E+03  0.00000000000E+00 0. -1.
        -14    1    6    6    0    0  0.93511422437E+02  0.23376679822E+02  0.55547554228E+02  0.11124920704E+03  0.00000000000E+00 0.  1.
</event>
<event>
12    1  0.1565987E-001  0.2775648E+03  0.7818608E-02  0.1097122E+00
         21   -1    0    0  503  502  0.00000000000E+00  0.00000000000E+00  0.75929802860E+02  0.75929802860E+02  0.00000000000E+00 0.  1.
         21   -1    0    0  501  503 -0.00000000000E+00 -0.00000000000E+00 -0.11940601914E+04  0.11940601914E+04  0.00000000000E+00 0. -1.
          6    2    1    2  501    0 -0.18921764894E+03 -0.10778341020E+03 -0.31062306084E+03  0.41611044297E+03  0.17099892584E+03 0.  0.
         24    2    3    3    0    0 -0.25072724040E+02 -0.11485641899E+02 -0.73902143943E+02  0.11234128876E+03  0.79990479567E+02 0.  0.
         -6    2    1    2    0  502  0.18921764894E+03  0.10778341020E+03 -0.80750732770E+03  0.85387955129E+03  0.17210933049E+03 0.  0.
        -24    2    5    5    0    0  0.20564523039E+03  0.12798547187E+03 -0.69628524050E+03  0.73955356383E+03  0.58788569004E+02 0.  0.
          5    1    3    3  501    0 -0.16414492490E+03 -0.96297768298E+02 -0.23672091690E+03  0.30376915421E+03  0.47000000000E+01 0. -1.
        -11    1    4    4    0    0 -0.23954181121E+02 -0.43533123672E+02 -0.30234042501E+02  0.58163845951E+02  0.00000000000E+00 0.  1.
         12    1    4    4    0    0 -0.11185429184E+01  0.32047481774E+02 -0.43668101442E+02  0.54177442813E+02  0.00000000000E+00 0. -1.
         -5    1    5    5    0  502 -0.16427581451E+02 -0.20202061670E+02 -0.11122208720E+03  0.11432598746E+03  0.47000000000E+01 0.  1.
         11    1    6    6    0    0  0.11482697483E+03  0.38334831526E+02 -0.36423317205E+03  0.38382365362E+03  0.00000000000E+00 0. -1.
        -12    1    6    6    0    0  0.90818255558E+02  0.89650640340E+02 -0.33205206845E+03  0.35572991021E+03  0.00000000000E+00 0.  1.
</event>
<event>
12    1  0.1565987E-001  0.1887738E+03  0.7818608E-02  0.1160883E+00
         21   -1    0    0  501  502  0.00000000000E+00  0.00000000000E+00  0.10758362967E+04  0.10758362967E+04  0.00000000000E+00 0.  1.
         21   -1    0    0  502  503 -0.00000000000E+00 -0.00000000000E+00 -0.71290610194E+02  0.71290610194E+02  0.00000000000E+00 0.  1.
         -6    2    1    2    0  503  0.60016076166E+02 -0.22163526093E+02  0.80680621932E+02  0.20529228577E+03  0.17760182587E+03 0.  0.
        -24    2    3    3    0    0  0.10949614426E+03 -0.17459186667E+02  0.68486593462E+02  0.15389975442E+03  0.81856533760E+02 0.  0.
          6    2    1    2  501    0 -0.60016076166E+02  0.22163526093E+02  0.92386506459E+03  0.94183462114E+03  0.17155944955E+03 0.  0.
         24    2    5    5    0    0  0.23939786869E+01  0.26880789331E+02  0.78494469442E+03  0.78939372516E+03  0.79221032952E+02 0.  0.
          5    1    5    5  501    0 -0.62410054853E+02 -0.47172632386E+01  0.13892037017E+03  0.15244089598E+03  0.47000000000E+01 0. -1.
        -11    1    6    6    0    0 -0.13172096165E+02 -0.21585339869E+02  0.43857733054E+03  0.43930570890E+03  0.00000000000E+00 0.  1.
         12    1    6    6    0    0  0.15566074852E+02  0.48466129200E+02  0.34636736388E+03  0.35008801626E+03  0.00000000000E+00 0. -1.
         -5    1    3    3    0  503 -0.49480068093E+02 -0.47043394251E+01  0.12194028471E+02  0.51392531347E+02  0.47000000000E+01 0.  1.
         11    1    4    4    0    0  0.12207398866E+02  0.19329695560E+02  0.39975045677E+02  0.46050645971E+02  0.00000000000E+00 0. -1.
        -12    1    4    4    0    0  0.97288745393E+02 -0.36788882227E+02  0.28511547785E+02  0.10784910845E+03  0.00000000000E+00 0.  1.
</event>
<event>
12    1  0.1565987E-001  0.2969433E+03  0.7818608E-02  0.1086856E+00
         21   -1    0    0  501  502  0.00000000000E+00  0.00000000000E+00  0.10892063074E+04  0.10892063074E+04  0.00000000000E+00 0.  1.
         21   -1    0    0  502  503 -0.00000000000E+00 -0.00000000000E+00 -0.10139127856E+03  0.10139127856E+03  0.00000000000E+00 0. -1.
         -6    2    1    2    0  503 -0.19388115447E+03  0.14523831181E+03  0.22514540748E+03  0.37215987604E+03  0.17067058783E+03 0.  0.
        -24    2    3    3    0    0 -0.10977995787E+03  0.14006025039E+03  0.93241808906E+02  0.21556973297E+03  0.78152171796E+02 0.  0.
          6    2    1    2  501    0  0.19388115447E+03 -0.14523831181E+03  0.76266962131E+03  0.81843770987E+03  0.17173020819E+03 0.  0.
         24    2    5    5    0    0  0.17175918324E+03 -0.10076340694E+03  0.72462783267E+03  0.75569485007E+03  0.79591012886E+02 0.  0.
          5    1    5    5  501    0  0.22121971233E+02 -0.44474904869E+02  0.38041788638E+02  0.62742859809E+02  0.47000000000E+01 0. -1.
        -13    1    6    6    0    0  0.63600114365E+02 -0.72596749229E+02  0.42703654268E+03  0.43780757340E+03  0.00000000000E+00 0.  1.
         14    1    6    6    0    0  0.10815906887E+03 -0.28166657713E+02  0.29759128999E+03  0.31788727667E+03  0.00000000000E+00 0. -1.
         -5    1    3    3    0  503 -0.84101196603E+02  0.51780614216E+01  0.13190359858E+03  0.15659014307E+03  0.47000000000E+01 0.  1.
         11    1    4    4    0    0 -0.59804531080E+01  0.65775856771E+02  0.40390459775E+02  0.77418462876E+02  0.00000000000E+00 0. -1.
        -12    1    4    4    0    0 -0.10379950476E+03  0.74284393618E+02  0.52851349131E+02  0.13815127009E+03  0.00000000000E+00 0.  1.
</event>
<event>
12    1  0.1565987E-001  0.1976097E+03  0.7818608E-02  0.1151940E+00
         21   -1    0    0  501  502  0.00000000000E+00  0.00000000000E+00  0.28418236482E+03  0.28418236482E+03  0.00000000000E+00 0. -1.
         21   -1    0    0  502  503 -0.00000000000E+00 -0.00000000000E+00 -0.69001809211E+03  0.69001809211E+03  0.00000000000E+00 0. -1.
         -6    2    1    2    0  503 -0.65442774441E+02 -0.72935739897E+02 -0.63896240565E+03  0.66859019158E+03  0.17069712817E+03 0.  0.
        -24    2    3    3    0    0  0.64245311579E+01  0.40880490935E+01 -0.40111352584E+03  0.40841380274E+03  0.76496973207E+02 0.  0.
          6    2    1    2  501    0  0.65442774441E+02  0.72935739897E+02  0.23312667835E+03  0.30561026535E+03  0.17160188591E+03 0.  0.
         24    2    5    5    0    0  0.10857036194E+03  0.57076565379E+02  0.14995548285E+03  0.21047331153E+03  0.82262447237E+02 0.  0.
          5    1    5    5  501    0 -0.43127587496E+02  0.15859174519E+02  0.83171195503E+02  0.95136953815E+02  0.47000000000E+01 0. -1.
        -13    1    6    6    0    0  0.56740062498E+02 -0.15190305851E+02  0.57956715965E+02  0.82517640596E+02  0.00000000000E+00 0.  1.
         14    1    6    6    0    0  0.51830299439E+02  0.72266871229E+02  0.91998766884E+02  0.12795567094E+03  0.00000000000E+00 0. -1.
         -5    1    3    3    0  503 -0.71867305599E+02 -0.77023788991E+02 -0.23784887981E+03  0.26017638884E+03  0.47000000000E+01 0.  1.
         13    1    4    4    0    0  0.37800810766E+02  0.82342878517E+00 -0.30309251580E+03  0.30544173333E+03  0.00000000000E+00 0. -1.
        -14    1    4    4    0    0 -0.31376279608E+02  0.32646203083E+01 -0.98021010041E+02  0.10297206940E+03  0.00000000000E+00 0.  1.
</event>
<event>
12    1  0.1565987E-001  0.2518598E+03  0.7818608E-02  0.1112318E+00
         21   -1    0    0  503  502  0.00000000000E+00  0.00000000000E+00  0.32036051514E+03  0.32036051514E+03  0.00000000000E+00 0.  1.
         21   -1    0    0  501  503 -0.00000000000E+00 -0.00000000000E+00 -0.22596812099E+03  0.22596812099E+03  0.00000000000E+00 0. -1.
          6    2    1    2  501    0 -0.64628772241E+00 -0.18231706674E+03  0.14475257425E+03  0.28948334628E+03  0.17206792120E+03 0.  0.
         24    2    3    3    0    0  0.48980495282E+02 -0.17500647286E+03  0.12698655166E+03  0.23606065509E+03  0.81072153801E+02 0.  0.
         -6    2    1    2    0  502  0.64628772241E+00  0.18231706674E+03 -0.50360180102E+02  0.25684528985E+03  0.17376255254E+03 0.  0.
        -24    2    5    5    0    0 -0.13641607120E+02  0.17549214045E+03 -0.90447324430E+02  0.21348871367E+03  0.80082005227E+02 0.  0.
          5    1    3    3  501    0 -0.49626783005E+02 -0.73105938811E+01  0.17766022595E+02  0.53422691182E+02  0.47000000000E+01 0. -1.
        -13    1    4    4    0    0  0.66507060808E+02 -0.10603506655E+03  0.99023694809E+02  0.15960049063E+03  0.00000000000E+00 0.  1.
         14    1    4    4    0    0 -0.17526565525E+02 -0.68971406301E+02  0.27962856847E+02  0.76460164460E+02  0.00000000000E+00 0. -1.
         -5    1    5    5    0  502  0.14287894842E+02  0.68249262826E+01  0.40087144328E+02  0.43356576181E+02  0.47000000000E+01 0.  1.
         11    1    6    6    0    0 -0.10723756821E+02  0.11464006421E+03 -0.14383953920E+02  0.11603551789E+03  0.00000000000E+00 0. -1.
        -12    1    6    6    0    0 -0.29178502986E+01  0.60852076246E+02 -0.76063370509E+02  0.97453195776E+02  0.00000000000E+00 0.  1.
</event>
<event>
12    1  0.1565987E-001  0.2046798E+03  0.7818608E-02  0.1146233E+00
         21   -1    0    0  501  502  0.00000000000E+00  0.00000000000E+00  0.15502245589E+03  0.15502245589E+03  0.00000000000E+00 0. -1.
         21   -1    0    0  502  503 -0.00000000000E+00 -0.00000000000E+00 -0.26779116292E+03  0.26779116292E+03  0.00000000000E+00 0.  1.
         -6    2    1    2    0  503 -0.69284881683E+02  0.87574378149E+02 -0.56870326537E+02  0.21243367769E+03  0.17153473945E+03 0.  0.
        -24    2    3    3    0    0 -0.10714833319E+03  0.97042294209E+02 -0.43119571041E+02  0.17078688104E+03  0.80068028326E+02 0.  0.
          6    2    1    2  501    0  0.69284881683E+02 -0.87574378149E+02 -0.55898380489E+02  0.21037994111E+03  0.16930866529E+03 0.  0.
         24    2    5    5    0    0  0.39172767967E+02  0.14009813746E+02 -0.51392958292E+02  0.10422686172E+03  0.80568119691E+02 0.  0.
          5    1    5    5  501    0  0.30112113716E+02 -0.10158419190E+03 -0.45054221967E+01  0.10615307939E+03  0.47000000000E+01 0. -1.
        -11    1    6    6    0    0  0.13453800525E+02 -0.32682460326E+02 -0.31454373664E+02  0.47313059340E+02  0.00000000000E+00 0.  1.
         12    1    6    6    0    0  0.25718967442E+02  0.46692274072E+02 -0.19938584628E+02  0.56913802379E+02  0.00000000000E+00 0. -1.
         -5    1    3    3    0  503  0.37863451505E+02 -0.94679160600E+01 -0.13750755495E+02  0.41646796648E+02  0.47000000000E+01 0.  1.
         11    1    4    4    0    0 -0.66238584172E+02  0.16479937988E+02  0.49579924964E+01  0.68437709479E+02  0.00000000000E+00 0. -1.
        -12    1    4    4    0    0 -0.40909749016E+02  0.80562356222E+02 -0.48077563538E+02  0.10234917157E+03  0.00000000000E+00 0.  1.
</event>
<event>
12    1  0.1565987E-001  0.2081221E+03  0.7818608E-02  0.1143242E+00
         21   -1    0    0  503  502  0.00000000000E+00  0.00000000000E+00  0.11214994424E+03  0.11214994424E+03  0.00000000000E+00 0.  1.
         21   -1    0    0  501  503 -0.00000000000E+00 -0.00000000000E+00 -0.38841630955E+03  0.38841630955E+03  0.00000000000E+00 0.  1.
          6    2    1    2  501    0  0.93036670141E+02 -0.69068470564E+02 -0.11347410191E+03  0.23704681183E+03  0.17288303439E+03 0.  0.
         24    2    3    3    0    0  0.12739294314E+03 -0.56552419281E+02 -0.11517010976E+03  0.20014191410E+03  0.85822453423E+02 0.  0.
         -6    2    1    2    0  502 -0.93036670141E+02  0.69068470564E+02 -0.16279226339E+03  0.26351944196E+03  0.17179900946E+03 0.  0.
        -24    2    5    5    0    0 -0.16336527310E+02  0.32730327635E+02 -0.88158299055E+01  0.87638218938E+02  0.79149113009E+02 0.  0.
          5    1    3    3  501    0 -0.34356272994E+02 -0.12516051283E+02  0.16960078501E+01  0.36904897729E+02  0.47000000000E+01 0. -1.
        -13    1    4    4    0    0  0.54673165452E+02 -0.60338597724E+02 -0.26987985425E+02  0.85780258528E+02  0.00000000000E+00 0.  1.
         14    1    4    4    0    0  0.72719777683E+02  0.37861784433E+01 -0.88182124337E+02  0.11436165558E+03  0.00000000000E+00 0. -1.
         -5    1    5    5    0  502 -0.76700142832E+02  0.36338142930E+02 -0.15397643349E+03  0.17588122302E+03  0.47000000000E+01 0.  1.
         13    1    6    6    0    0  0.28968412482E+02  0.81479390425E+01  0.11526986639E+02  0.32224668398E+02  0.00000000000E+00 0. -1.
        -14    1    6    6    0    0 -0.45304939792E+02  0.24582388592E+02 -0.20342816545E+02  0.55413550540E+02  0.00000000000E+00 0.  1.
</event>
<event>
12    1  0.1565987E-001  0.2130802E+03  0.7818608E-02  0.1139696E+00
         21   -1    0    0  503  502  0.00000000000E+00  0.00000000000E+00  0.38049649562E+02  0.38049649562E+02  0.00000000000E+00 0.  1.
         21   -1    0    0  501  503 -0.00000000000E+00 -0.00000000000E+00 -0.12010206063E+04  0.12010206063E+04  0.00000000000E+00 0. -1.
          6    2    1    2  501    0 -0.81463457191E+02  0.89808028160E+02 -0.49133725584E+03  0.53444622821E+03  0.17181005529E+03 0.  0.
         24    2    3    3    0    0 -0.34361168692E+02  0.12501801915E+03 -0.36418469250E+03  0.39427407188E+03  0.77532950945E+02 0.  0.
         -6    2    1    2    0  502  0.81463457191E+02 -0.89808028160E+02 -0.67163370094E+03  0.70462402769E+03  0.17521819362E+03 0.  0.
        -24    2    5    5    0    0  0.27315948943E+00 -0.73494433497E+02 -0.29737009540E+03  0.32127909914E+03  0.96900874785E+02 0.  0.
          5    1    3    3  501    0 -0.47102288498E+02 -0.35209990988E+02 -0.12715256334E+03  0.14017215633E+03  0.47000000000E+01 0. -1.
        -13    1    4    4    0    0 -0.18693677145E+02  0.63437579905E+02 -0.83661960131E+02  0.10664475459E+03  0.00000000000E+00 0.  1.
         14    1    4    4    0    0 -0.15667491548E+02  0.61580439244E+02 -0.28052273236E+03  0.28762931729E+03  0.00000000000E+00 0. -1.
         -5    1    5    5    0  502  0.81190297701E+02 -0.16313594663E+02 -0.37426360554E+03  0.38334492855E+03  0.47000000000E+01 0.  1.
         13    1    6    6    0    0  0.35302907503E+02 -0.40976925274E+02 -0.24273541204E+03  0.24868832691E+03  0.00000000000E+00 0. -1.
        -14    1    6    6    0    0 -0.35029748014E+02 -0.32517508223E+02 -0.54634683360E+02  0.72590772229E+02  0.00000000000E+00 0.  1.
</event>
<event>
12    1  0.1565987E-001  0.1780800E+03  0.7818608E-02  0.1172947E+00
         21   -1    0    0  503  502  0.00000000000E+00  0.00000000000E+00  0.45455674088E+03  0.45455674088E+03  0.00000000000E+00 0.  1.
         21   -1    0    0  501  503 -0.00000000000E+00 -0.00000000000E+00 -0.12159492053E+03  0.12159492053E+03  0.00000000000E+00 0.  1.
          6    2    1    2  501    0 -0.13996937289E+02  0.40806722460E+02 -0.33580745599E+02  0.16863978726E+03  0.15953246854E+03 0.  0.
         24    2    3    3    0    0 -0.60895896549E+02  0.24338934145E+02 -0.49440945749E+02  0.11625337317E+03  0.82278464533E+02 0.  0.
         -6    2    1    2    0  502  0.13996937289E+02 -0.40806722460E+02  0.36654256595E+03  0.40751187416E+03  0.17277549616E+03 0.  0.
        -24    2    5    5    0    0 -0.30555092458E+00 -0.91240879358E+02  0.29235228696E+03  0.31654785463E+03  0.80048067770E+02 0.  0.
          5    1    3    3  501    0  0.46898959260E+02  0.16467788316E+02  0.15860200150E+02  0.52386414083E+02  0.47000000000E+01 0. -1.
        -11    1    4    4    0    0 -0.24746842938E+02  0.53285479382E+02 -0.30762329287E+02  0.66317942154E+02  0.00000000000E+00 0.  1.
         12    1    4    4    0    0 -0.36149053611E+02 -0.28946545238E+02 -0.18678616462E+02  0.49935431019E+02  0.00000000000E+00 0. -1.
         -5    1    5    5    0  502  0.14302488213E+02  0.50434156898E+02  0.74190278991E+02  0.90964019524E+02  0.47000000000E+01 0.  1.
         13    1    6    6    0    0  0.87236167692E+01 -0.41004962890E+02  0.36289387099E+02  0.55447525528E+02  0.00000000000E+00 0. -1.
        -14    1    6    6    0    0 -0.90291676937E+01 -0.50235916468E+02  0.25606289986E+03  0.26110032910E+03  0.00000000000E+00 0.  1.
</event>
<event>
12    1  0.1565987E-001  0.1854471E+03  0.7818608E-02  0.1165155E+00
         21   -1    0    0  503  502  0.00000000000E+00  0.00000000000E+00  0.19193074649E+02  0.19193074649E+02  0.00000000000E+00 0. -1.
         21   -1    0    0  501  503 -0.00000000000E+00 -0.00000000000E+00 -0.17115656184E+04  0.17115656184E+04  0.00000000000E+00 0. -1.
          6    2    1    2  501    0  0.28649953236E+02 -0.13202910594E+02 -0.77751097415E+03  0.79932092749E+03  0.18274433922E+03 0.  0.
         24    2    3    3    0    0 -0.25036588506E+02  0.40432176722E+02 -0.24379629964E+03  0.26021758754E+03  0.77556208424E+02 0.  0.
         -6    2    1    2    0  502 -0.28649953236E+02  0.13202910594E+02 -0.91486156963E+03  0.93143776559E+03  0.17207406233E+03 0.  0.
        -24    2    5    5    0    0  0.43135363262E+02 -0.19515432618E+02 -0.59677974555E+03  0.60368517833E+03  0.77770291035E+02 0.  0.
          5    1    3    3  501    0  0.53686541742E+02 -0.53635087316E+02 -0.53371467451E+03  0.53910333995E+03  0.47000000000E+01 0. -1.
        -11    1    4    4    0    0 -0.45110372786E+01  0.56793351395E+02 -0.20903137322E+03  0.21665629280E+03  0.00000000000E+00 0.  1.
         12    1    4    4    0    0 -0.20525551228E+02 -0.16361174672E+02 -0.34764926424E+02  0.43561294737E+02  0.00000000000E+00 0. -1.
         -5    1    5    5    0  502 -0.71785316497E+02  0.32718343211E+02 -0.31808182408E+03  0.32775258726E+03  0.47000000000E+01 0.  1.
         11    1    6    6    0    0  0.10770738626E+02  0.28061485261E+02 -0.13327794332E+03  0.13662527563E+03  0.00000000000E+00 0. -1.
        -12    1    6    6    0    0  0.32364624636E+02 -0.47576917879E+02 -0.46350180223E+03  0.46705990271E+03  0.00000000000E+00 0.  1.
</event>
<event>
12    1  0.1565987E-001  0.2225530E+03  0.7818608E-02  0.1133003E+00
         21   -1    0    0  501  502  0.00000000000E+00  0.00000000000E+00  0.11864417623E+03  0.11864417623E+03  0.00000000000E+00 0.  1.
         21   -1    0    0  502  503 -0.00000000000E+00 -0.00000000000E+00 -0.40834863780E+03  0.40834863780E+03  0.00000000000E+00 0. -1.
         -6    2    1    2    0  503  0.19084090155E+02  0.13190320833E+03 -0.15607688923E+03  0.26740439819E+03  0.17141312072E+03 0.  0.
        -24    2    3    3    0    0  0.72995266808E+01  0.15587867549E+03 -0.91255642190E+02  0.19713646077E+03  0.78636806711E+02 0.  0.
          6    2    1    2  501    0 -0.19084090155E+02 -0.13190320833E+03 -0.13362757234E+03  0.25958841584E+03  0.17823343873E+03 0.  0.
         24    2    5    5    0    0 -0.19409019975E+02 -0.15830754516E+03 -0.71387206260E+02  0.19181491251E+03  0.79112821545E+02 0.  0.
          5    1    5    5  501    0  0.32492981908E+00  0.26404336832E+02 -0.62240366084E+02  0.67773503327E+02  0.47000000000E+01 0. -1.
        -13    1    6    6    0    0  0.12717678257E+02 -0.12466875447E+03 -0.73448073605E+02  0.14525376828E+03  0.00000000000E+00 0.  1.
         14    1    6    6    0    0 -0.32126698232E+02 -0.33638790684E+02  0.20608673449E+01  0.46561144232E+02  0.00000000000E+00 0. -1.
         -5    1    3    3    0  503  0.11784563475E+02 -0.23975467163E+02 -0.64821247040E+02  0.70267937424E+02  0.47000000000E+01 0.  1.
         13    1    4    4    0    0 -0.26838220030E+02  0.38528501564E+02 -0.48891922087E+02  0.67787576535E+02  0.00000000000E+00 0. -1.
        -14    1    4    4    0    0  0.34137746711E+02  0.11735017393E+03 -0.42363720103E+02  0.12934888423E+03  0.00000000000E+00 0.  1.
</event>
<event>
12    1  0.1565987E-001  0.1903538E+03  0.7818608E-02  0.1158149E+00
         21   -1    0    0  503  502  0.00000000000E+00  0.00000000000E+00  0.29163585341E+03  0.29163585341E+03  0.00000000000E+00 0.  1.
         21   -1    0    0  501  503 -0.00000000000E+00 -0.00000000000E+00 -0.13783442441E+03  0.13783442441E+03  0.00000000000E+00 0.  1.
          6    2    1    2  501    0  0.81466282080E+02 -0.39342986853E+01  0.94380523897E+01  0.19058758359E+03  0.17199510564E+03 0.  0.
         24    2    3    3    0    0  0.71913451107E+02 -0.61056978831E+02  0.40254912466E+01  0.13222969651E+03  0.92568833555E+02 0.  0.
         -6    2    1    2    0  502 -0.81466282080E+02  0.39342986853E+01  0.14436337661E+03  0.23888269423E+03  0.17196488965E+03 0.  0.
        -24    2    5    5    0    0 -0.10192667867E+03  0.44677207015E+02  0.13585606581E+03  0.19226642298E+03  0.78258585072E+02 0.  0.
          5    1    3    3  501    0  0.95528309727E+01  0.57122680146E+02  0.54125611431E+01  0.58357887083E+02  0.47000000000E+01 0. -1.
        -13    1    4    4    0    0  0.57757143739E+02 -0.51795987648E+01 -0.30004446848E+02  0.65291521095E+02  0.00000000000E+00 0.  1.
         14    1    4    4    0    0  0.14156307368E+02 -0.55877380066E+02  0.34029938095E+02  0.66938175417E+02  0.00000000000E+00 0. -1.
         -5    1    5    5    0  502  0.20460396591E+02 -0.40742908329E+02  0.85073108017E+01  0.46616271246E+02  0.47000000000E+01 0.  1.
         11    1    6    6    0    0 -0.60666787694E+02  0.47321855861E+02  0.37538301187E+02  0.85609235642E+02  0.00000000000E+00 0. -1.
        -12    1    6    6    0    0 -0.41259890977E+02 -0.26446488460E+01  0.98317764622E+02  0.10665718734E+03  0.00000000000E+00 0.  1.
</event>
<event>
12    1  0.1565987E-001  0.2217158E+03  0.7818608E-02  0.1133220E+00
         21   -1    0    0  503  502  0.00000000000E+00  0.00000000000E+00  0.62769359470E+02  0.62769359470E+02  0.00000000000E+00 0. -1.
         21   -1    0    0  501  503 -0.00000000000E+00 -0.00000000000E+00 -0.77227395916E+03  0.77227395916E+03  0.00000000000E+00 0. -1.
          6    2    1    2  501    0 -0.30556841943E+02  0.13477972639E+03 -0.33989258433E+03  0.40403180907E+03  0.16916098434E+03 0.  0.
         24    2    3    3    0    0 -0.55616621771E+00  0.16021022008E+03 -0.26982002489E+03  0.32353954770E+03  0.78786859014E+02 0.  0.
         -6    2    1    2    0  502  0.30556841943E+02 -0.13477972639E+03 -0.36961201536E+03  0.43101150956E+03  0.17337411642E+03 0.  0.
        -24    2    5    5    0    0  0.55783300103E+02 -0.35069671787E+02 -0.10686419221E+03  0.14881126550E+03  0.79894797787E+02 0.  0.
          5    1    3    3  501    0 -0.30000675725E+02 -0.25430493700E+02 -0.70072559444E+02  0.80492261372E+02  0.47000000000E+01 0. -1.
        -13    1    4    4    0    0 -0.11343864592E+02  0.95670448949E+01 -0.60184328285E+00  0.14851728090E+02  0.00000000000E+00 0.  1.
         14    1    4    4    0    0  0.10787698375E+02  0.15064317519E+03 -0.26921818161E+03  0.30868781961E+03  0.00000000000E+00 0. -1.
         -5    1    5    5    0  502 -0.25226458160E+02 -0.99710054598E+02 -0.26274782315E+03  0.28220024406E+03  0.47000000000E+01 0.  1.
         13    1    6    6    0    0  0.31603966603E+02  0.15561952405E+02 -0.95812448432E+01  0.36507332420E+02  0.00000000000E+00 0. -1.
        -14    1    6    6    0    0  0.24179333500E+02 -0.50631624192E+02 -0.97282947370E+02  0.11230393308E+03  0.00000000000E+00 0.  1.
</event>
<event>
12    1  0.1565987E-001  0.2134329E+03  0.7818608E-02  0.1138976E+00
         21   -1    0    0  503  502  0.00000000000E+00  0.00000000000E+00  0.24191337474E+03  0.24191337474E+03  0.00000000000E+00 0.  1.
         21   -1    0    0  501  503 -0.00000000000E+00 -0.00000000000E+00 -0.34741503612E+03  0.34741503612E+03  0.00000000000E+00 0. -1.
          6    2    1    2  501    0  0.82262907680E+02  0.93134096888E+02 -0.25241175664E+03  0.33022189567E+03  0.17289782968E+03 0.  0.
         24    2    3    3    0    0  0.32590608930E+02  0.77204874822E+02 -0.57765115944E+02  0.12865185297E+03  0.78687674808E+02 0.  0.
         -6    2    1    2    0  502 -0.82262907680E+02 -0.93134096888E+02  0.14691009527E+03  0.25910651519E+03  0.17352943306E+03 0.  0.
        -24    2    5    5    0    0  0.11133935213E+02 -0.10510224137E+01  0.41309231912E+02  0.90655052717E+02  0.79917562404E+02 0.  0.
          5    1    3    3  501    0  0.49672298750E+02  0.15929222066E+02 -0.19464664070E+03  0.20157004270E+03  0.47000000000E+01 0. -1.
        -13    1    4    4    0    0 -0.20485997631E+02  0.41741675170E+02 -0.42553569382E+02  0.63030546658E+02  0.00000000000E+00 0.  1.
         14    1    4    4    0    0  0.53076606561E+02  0.35463199653E+02 -0.15211546562E+02  0.65621306314E+02  0.00000000000E+00 0. -1.
         -5    1    5    5    0  502 -0.93396842893E+02 -0.92083074475E+02  0.10560086335E+03  0.16845146247E+03  0.47000000000E+01 0.  1.
         13    1    6    6    0    0  0.39015891847E+02  0.23678174547E+01  0.47877116680E+02  0.61806671790E+02  0.00000000000E+00 0. -1.
        -14    1    6    6    0    0 -0.27881956634E+02 -0.34188398684E+01 -0.65678847677E+01  0.28848380927E+02  0.00000000000E+00 0.  1.
</event>
<event>
12    1  0.1565987E-001  0.1894999E+03  0.7818608E-02  0.1159238E+00
         21   -1    0    0  501  502  0.00000000000E+00  0.00000000000E+00  0.67148886599E+02  0.67148886599E+02  0.00000000000E+00 0.  1.
         21   -1    0    0  502  503 -0.00000000000E+00 -0.00000000000E+00 -0.58653514654E+03  0.58653514654E+03  0.00000000000E+00 0.  1.
         -6    2    1    2    0  503 -0.73248493967E+02 -0.24089513636E+02 -0.35959558578E+03  0.40580648517E+03  0.17153504468E+03 0.  0.
        -24    2    3    3    0    0 -0.81866144090E+02 -0.29888996066E+02 -0.37139124691E+03  0.38940143986E+03  0.78144772364E+02 0.  0.
          6    2    1    2  501    0  0.73248493967E+02  0.24089513636E+02 -0.15979067416E+03  0.24787754797E+03  0.17310278075E+03 0.  0.
         24    2    5    5    0    0 -0.79761353147E-01  0.66474143746E+02 -0.99004585477E+02  0.14351985312E+03  0.79857511513E+02 0.  0.
          5    1    5    5  501    0  0.73328255320E+02 -0.42384630110E+02 -0.60786088681E+02  0.10435769485E+03  0.47000000000E+01 0. -1.
        -11    1    6    6    0    0  0.34849998832E+02  0.11188776960E+02 -0.22888480505E+02  0.43169360527E+02  0.00000000000E+00 0.  1.
         12    1    6    6    0    0 -0.34929760185E+02  0.55285366786E+02 -0.76116104973E+02  0.10035049259E+03  0.00000000000E+00 0. -1.
         -5    1    3    3    0  503  0.86176501232E+01  0.57994824302E+01  0.11795661129E+02  0.16405045309E+02  0.47000000000E+01 0.  1.
         11    1    4    4    0    0  0.83558741904E+01  0.12270397100E+02 -0.25996535760E+02  0.29936652285E+02  0.00000000000E+00 0. -1.
        -12    1    4    4    0    0 -0.90222018280E+02 -0.42159393166E+02 -0.34539471115E+03  0.35946478758E+03  0.00000000000E+00 0.  1.
</event>
<event>
12    1  0.1565987E-001  0.1831688E+03  0.7818608E-02  0.1165272E+00
         21   -1    0    0  501  502  0.00000000000E+00  0.00000000000E+00  0.19063377292E+03  0.19063377292E+03  0.00000000000E+00 0. -1.
         21   -1    0    0  502  503 -0.00000000000E+00 -0.00000000000E+00 -0.45893215625E+03  0.45893215625E+03  0.00000000000E+00 0. -1.
         -6    2    1    2    0  503  0.59506652863E+02 -0.15670408909E+02 -0.38977442010E+03  0.42977682396E+03  0.17028627777E+03 0.  0.
        -24    2    3    3    0    0  0.83561768227E+02  0.17551158026E+02 -0.34834537908E+03  0.37128941912E+03  0.96024566486E+02 0.  0.
          6    2    1    2  501    0 -0.59506652863E+02  0.15670408909E+02  0.12147603677E+03  0.21978910521E+03  0.17252309935E+03 0.  0.
         24    2    5    5    0    0 -0.39391602765E+02  0.66161211915E+02  0.41189944053E+02  0.12272272013E+03  0.86227896968E+02 0.  0.
          5    1    5    5  501    0 -0.20115050098E+02 -0.50490803007E+02  0.80286092713E+02  0.97066385076E+02  0.47000000000E+01 0. -1.
        -13    1    6    6    0    0 -0.78591158387E+01 -0.15926802889E+02 -0.10586329874E+02  0.20676052143E+02  0.00000000000E+00 0.  1.
         14    1    6    6    0    0 -0.31532486926E+02  0.82088014804E+02  0.51776273927E+02  0.10204666799E+03  0.00000000000E+00 0. -1.
         -5    1    3    3    0  503 -0.24055115364E+02 -0.33221566935E+02 -0.41429041022E+02  0.58487404838E+02  0.47000000000E+01 0.  1.
         11    1    4    4    0    0  0.18479565839E+02  0.24308575020E+02 -0.20032719257E+02  0.36520008406E+02  0.00000000000E+00 0. -1.
        -12    1    4    4    0    0  0.65082202387E+02 -0.67574169940E+01 -0.32831265982E+03  0.33476941071E+03  0.00000000000E+00 0.  1.
</event>
<event>
12    1  0.1565987E-001  0.3067693E+03  0.7818608E-02  0.1081936E+00
         21   -1    0    0  501  502  0.00000000000E+00  0.00000000000E+00  0.45460147325E+03  0.45460147325E+03  0.00000000000E+00 0.  1.
         21   -1    0    0  502  503 -0.00000000000E+00 -0.00000000000E+00 -0.20717428828E+03  0.20717428828E+03  0.00000000000E+00 0. -1.
         -6    2    1    2    0  503 -0.25103573362E+03 -0.39684206416E+02  0.11047040768E+03  0.32605387063E+03  0.17179534274E+03 0.  0.
        -24    2    3    3    0    0 -0.69891274321E+02 -0.64045455091E+02  0.27754177401E+02  0.12537788721E+03  0.77218583859E+02 0.  0.
          6    2    1    2  501    0  0.25103573362E+03  0.39684206416E+02  0.13695677729E+03  0.33572189090E+03  0.17134250318E+03 0.  0.
         24    2    5    5    0    0  0.13541997824E+03  0.85253373762E+02  0.10609188892E+03  0.20758804198E+03  0.78934137333E+02 0.  0.
          5    1    5    5  501    0  0.11561575538E+03 -0.45569167346E+02  0.30864888368E+02  0.12813384892E+03  0.47000000000E+01 0. -1.
        -13    1    6    6    0    0  0.50322046042E+01 -0.86357608579E+01  0.26416101363E+02  0.28243757895E+02  0.00000000000E+00 0.  1.
         14    1    6    6    0    0  0.13038777363E+03  0.93889134620E+02  0.79675787555E+02  0.17934428409E+03  0.00000000000E+00 0. -1.
         -5    1    3    3    0  503 -0.18114445930E+03  0.24361248675E+02  0.82716230276E+02  0.20067598342E+03  0.47000000000E+01 0.  1.
         11    1    4    4    0    0 -0.70098047305E+02 -0.28185925504E+02 -0.64419634642E+01  0.75826654454E+02  0.00000000000E+00 0. -1.
        -12    1    4    4    0    0  0.20677298341E+00 -0.35859529587E+02  0.34196140865E+02  0.49551232753E+02  0.00000000000E+00 0.  1.
</event>
<event>
12    1  0.1565987E-001  0.1761636E+03  0.7818608E-02  0.1171820E+00
         21   -1    0    0  501  502  0.00000000000E+00  0.00000000000E+00  0.83843342983E+03  0.83843342983E+03  0.00000000000E+00 0. -1.
         21   -1    0    0  502  503 -0.00000000000E+00 -0.00000000000E+00 -0.50596860876E+02  0.50596860876E+02  0.00000000000E+00 0. -1.
         -6    2    1    2    0  503 -0.35893540626E+02 -0.20454988872E+02  0.16099427879E+03  0.23790443526E+03  0.17021342393E+03 0.  0.
        -24    2    3    3    0    0 -0.25307075935E+02 -0.35140292417E+02  0.18079914783E+03  0.21066376323E+03  0.99073715174E+02 0.  0.
          6    2    1    2  501    0  0.35893540626E+02  0.20454988872E+02  0.62684229016E+03  0.65112585545E+03  0.17125089800E+03 0.  0.
         24    2    5    5    0    0 -0.27371378016E+02 -0.10931658945E+02  0.19199772759E+03  0.21055865831E+03  0.81259631356E+02 0.  0.
          5    1    5    5  501    0  0.63264918642E+02  0.31386647818E+02  0.43484456258E+03  0.44056719714E+03  0.47000000000E+01 0. -1.
        -13    1    6    6    0    0  0.21728659412E+02 -0.21376024026E+02  0.38766469805E+02  0.49314381514E+02  0.00000000000E+00 0.  1.
         14    1    6    6    0    0 -0.49100037428E+02  0.10444365080E+02  0.15323125778E+03  0.16124427679E+03  0.00000000000E+00 0. -1.
         -5    1    3    3    0  503 -0.10586464692E+02  0.14685303545E+02 -0.19804869041E+02  0.27240672029E+02  0.47000000000E+01 0.  1.
         13    1    4    4    0    0  0.85954725976E+01  0.15751470737E+02 -0.18602460029E+01  0.18040274243E+02  0.00000000000E+00 0. -1.
        -14    1    4    4    0    0 -0.33902548532E+02 -0.50891763154E+02  0.18265939383E+03  0.19262348899E+03  0.00000000000E+00 0.  1.
</event>
<event>
12    1  0.1565987E-001  0.1830658E+03  0.7818608E-02  0.1165098E+00
         21   -1    0    0  501  502  0.00000000000E+00  0.00000000000E+00  0.29693695594E+03  0.29693695594E+03  0.00000000000E+00 0.  1.
         21   -1    0    0  502  503 -0.00000000000E+00 -0.00000000000E+00 -0.11239355424E+03  0.11239355424E+03  0.00000000000E+00 0.  1.
         -6    2    1    2    0  503  0.43506097703E+02 -0.42706186602E+02  0.99389755849E+02  0.20830605193E+03  0.17261659477E+03 0.  0.
        -24    2    3    3    0    0 -0.25619641151E+02 -0.69979685756E+02  0.47822984593E+02  0.11773324461E+03  0.77592245739E+02 0.  0.
          6    2    1    2  501    0 -0.43506097703E+02  0.42706186602E+02  0.85153645853E+02  0.20102445825E+03  0.17158989044E+03 0.  0.
         24    2    5    5    0    0  0.34403558777E+02  0.66154615128E+02  0.66692137357E+02  0.11746214217E+03  0.61558717486E+02 0.  0.
          5    1    5    5  501    0 -0.77909656479E+02 -0.23448428526E+02  0.18461508496E+02  0.83562316082E+02  0.47000000000E+01 0. -1.
        -11    1    6    6    0    0 -0.19964253207E+01  0.39893549786E+02  0.36995524508E+01  0.40114432776E+02  0.00000000000E+00 0.  1.
         12    1    6    6    0    0  0.36399984097E+02  0.26261065342E+02  0.62992584906E+02  0.77347709393E+02  0.00000000000E+00 0. -1.
         -5    1    3    3    0  503  0.69125738853E+02  0.27273499154E+02  0.51566771256E+02  0.90572807320E+02  0.47000000000E+01 0.  1.
         13    1    4    4    0    0 -0.16732499922E+02 -0.37453245458E+02  0.67283135745E+02  0.78801919422E+02  0.00000000000E+00 0. -1.
        -14    1    4    4    0    0 -0.88871412282E+01 -0.32526440298E+02 -0.19460151152E+02  0.38931325183E+02  0.00000000000E+00 0.  1.
</event>
<event>
12    1  0.1565987E-001  0.2092796E+03  0.7818608E-02  0.1143195E+00
         21   -1    0    0  503  502  0.00000000000E+00  0.00000000000E+00  0.50894645336E+03  0.50894645336E+03  0.00000000000E+00 0.  1.
         21   -1    0    0  501  503 -0.00000000000E+00 -0.00000000000E+00 -0.97380482235E+02  0.97380482235E+02  0.00000000000E+00 0.  1.
          6    2    1    2  501    0  0.27199117418E+02  0.11617930021E+03  0.32077226352E+03  0.38300496108E+03  0.17193176955E+03 0.  0.
         24    2    3    3    0    0 -0.33467786826E+01  0.23326893415E+02  0.21819174687E+03  0.24123234873E+03  0.10015020114E+03 0.  0.
         -6    2    1    2    0  502 -0.27199117418E+02 -0.11617930021E+03  0.90793707599E+02  0.22332197451E+03  0.16550463793E+03 0.  0.
        -24    2    5    5    0    0 -0.59324991496E+02 -0.41064063394E+02  0.89452484552E+02  0.14147907949E+03  0.82515883452E+02 0.  0.
          5    1    3    3  501    0  0.30545896100E+02  0.92852406791E+02  0.10258051665E+03  0.14177261235E+03  0.47000000000E+01 0. -1.
        -13    1    4    4    0    0 -0.45546502068E+02  0.23688083678E+02  0.67872850159E+02  0.85101897439E+02  0.00000000000E+00 0.  1.
         14    1    4    4    0    0  0.42199723385E+02 -0.36119026257E+00  0.15031889671E+03  0.15613045129E+03  0.00000000000E+00 0. -1.
         -5    1    5    5    0  502  0.32125874079E+02 -0.75115236811E+02  0.13412230465E+01  0.81842895023E+02  0.47000000000E+01 0.  1.
         11    1    6    6    0    0 -0.36044020226E+01  0.23760978669E+02  0.17212746755E+02  0.29561029618E+02  0.00000000000E+00 0. -1.
        -12    1    6    6    0    0 -0.55720589474E+02 -0.64825042063E+02  0.72239737797E+02  0.11191804987E+03  0.00000000000E+00 0.  1.
</event>
<event>
12    1  0.1565987E-001  0.2267325E+03  0.7818608E-02  0.1129144E+00
         21   -1    0    0  503  502  0.00000000000E+00  0.00000000000E+00  0.62932112797E+03  0.62932112797E+03  0.00000000000E+00 0. -1.
         21   -1    0    0  501  503 -0.00000000000E+00 -0.00000000000E+00 -0.10359136378E+03  0.10359136378E+03  0.00000000000E+00 0.  1.
          6    2    1    2  501    0  0.78344349964E+01 -0.14664822365E+03  0.93414864854E+02  0.24522223880E+03  0.17274411582E+03 0.  0.
         24    2    3    3    0    0  0.30893927263E+02 -0.26468133874E+02 -0.57910314589E+01  0.87618641037E+02  0.77385356233E+02 0.  0.
         -6    2    1    2    0  502 -0.78344349964E+01  0.14664822365E+03  0.43231489934E+03  0.48769025295E+03  0.17140166498E+03 0.  0.
        -24    2    5    5    0    0 -0.18323649061E+02  0.43123788003E+02  0.88413622916E+02  0.12836100238E+03  0.80400006271E+02 0.  0.
          5    1    3    3  501    0 -0.23059492267E+02 -0.12018008978E+03  0.99205896313E+02  0.15760359776E+03  0.47000000000E+01 0. -1.
        -11    1    4    4    0    0  0.19910815647E+01 -0.43413785284E+02 -0.23833051346E+02  0.49565466757E+02  0.00000000000E+00 0.  1.
         12    1    4    4    0    0  0.28902845699E+02  0.16945651410E+02  0.18042019887E+02  0.38053174280E+02  0.00000000000E+00 0. -1.
         -5    1    5    5    0  502  0.10489214064E+02  0.10352443565E+03  0.34390127642E+03  0.35932925057E+03  0.47000000000E+01 0.  1.
         13    1    6    6    0    0  0.73036335398E+01  0.24724886175E+02  0.92976544848E+02  0.96484718744E+02  0.00000000000E+00 0. -1.
        -14    1    6    6    0    0 -0.25627282600E+02  0.18398901828E+02 -0.45629219313E+01  0.31876283637E+02  0.00000000000E+00 0.  1.
</event>
<event>
12    1  0.1565987E-001  0.1718645E+03  0.7818608E-02  0.1175930E+00
         21   -1    0    0  503  502  0.00000000000E+00  0.00000000000E+00  0.63261002109E+02  0.63261002109E+02  0.00000000000E+00 0. -1.
         21   -1    0    0  501  503 -0.00000000000E+00 -0.00000000000E+00 -0.91376038635E+03  0.91376038635E+03  0.00000000000E+00 0. -1.
          6    2    1    2  501    0  0.12928145582E+01 -0.13309949414E+02 -0.76688564788E+03  0.78589666011E+03  0.17129254894E+03 0.  0.
         24    2    3    3    0    0  0.32061963393E+02 -0.11031489768E+02 -0.17124452114E+03  0.18943846898E+03  0.73570267408E+02 0.  0.
         -6    2    1    2    0  502 -0.12928145582E+01  0.13309949414E+02 -0.83613736363E+02  0.19112472835E+03  0.17134345262E+03 0.  0.
        -24    2    5    5    0    0 -0.82222798319E+01 -0.45219802031E+02  0.12701821434E+02  0.78109127805E+02  0.61864878544E+02 0.  0.
          5    1    3    3  501    0 -0.30769148835E+02 -0.22784596453E+01 -0.59564112674E+03  0.59645819113E+03  0.47000000000E+01 0. -1.
        -11    1    4    4    0    0 -0.23666964715E+02 -0.75975141239E+01 -0.45278067255E+02  0.51652210157E+02  0.00000000000E+00 0.  1.
         12    1    4    4    0    0  0.55728928108E+02 -0.34339756443E+01 -0.12596645389E+03  0.13778625883E+03  0.00000000000E+00 0. -1.
         -5    1    5    5    0  502  0.69294652737E+01  0.58529751445E+02 -0.96315557797E+02  0.11301560055E+03  0.47000000000E+01 0.  1.
         11    1    6    6    0    0 -0.16925634546E+02 -0.57168473542E+02  0.16362264802E+01  0.59643848878E+02  0.00000000000E+00 0. -1.
        -12    1    6    6    0    0  0.87033547142E+01  0.11948671511E+02  0.11065594954E+02  0.18465278927E+02  0.00000000000E+00 0.  1.
</event>
<event>
12    1  0.1565987E-001  0.2358730E+03  0.7818608E-02  0.1122807E+00
         21   -1    0    0  501  502  0.00000000000E+00  0.00000000000E+00  0.20211394411E+03  0.20211394411E+03  0.00000000000E+00 0. -1.
         21   -1    0    0  502  503 -0.00000000000E+00 -0.00000000000E+00 -0.27409026301E+03  0.27409026301E+03  0.00000000000E+00 0.  1.
         -6    2    1    2    0  503 -0.11152730898E+03  0.11679290013E+03 -0.26640039615E+02  0.23601371487E+03  0.17004075901E+03 0.  0.
        -24    2    3    3    0    0 -0.12964737991E+03  0.10175886221E+03 -0.62265913740E+02  0.19305266072E+03  0.78923866112E+02 0.  0.
          6    2    1    2  501    0  0.11152730898E+03 -0.11679290013E+03 -0.45336279283E+02  0.24019049225E+03  0.17192199446E+03 0.  0.
         24    2    5    5    0    0  0.87672833282E+01 -0.80127621160E+02  0.18221895272E+02  0.11383505269E+03  0.78288446298E+02 0.  0.
          5    1    5    5  501    0  0.10276002566E+03 -0.36665278967E+02 -0.63558174554E+02  0.12635543956E+03  0.47000000000E+01 0. -1.
        -11    1    6    6    0    0  0.26429908833E+02 -0.83772016839E+01  0.27873747733E+02  0.39314925940E+02  0.00000000000E+00 0.  1.
         12    1    6    6    0    0 -0.17662625505E+02 -0.71750419476E+02 -0.96518524612E+01  0.74520126749E+02  0.00000000000E+00 0. -1.
         -5    1    3    3    0  503  0.18120070922E+02  0.15034037914E+02  0.35625874124E+02  0.42961054146E+02  0.47000000000E+01 0.  1.
         13    1    4    4    0    0 -0.42610937974E+02  0.75049982223E+01 -0.46953983908E+02  0.63848990894E+02  0.00000000000E+00 0. -1.
        -14    1    4    4    0    0 -0.87036441932E+02  0.94253863992E+02 -0.15311929831E+02  0.12920366983E+03  0.00000000000E+00 0.  1.
</event>
<event>
12    1  0.1565987E-001  0.1903278E+03  0.7818608E-02  0.1158294E+00
         21   -1    0    0  503  502  0.00000000000E+00  0.00000000000E+00  0.84900684877E+03  0.84900684877E+03  0.00000000000E+00 0.  1.
         21   -1    0    0  501  503 -0.00000000000E+00 -0.00000000000E+00 -0.49519972153E+02  0.49519972153E+02  0.00000000000E+00 0. -1.
          6    2    1    2  501    0  0.12860086554E+02 -0.80153070545E+02  0.23055576683E+03  0.29860409295E+03  0.17151835518E+03 0.  0.
         24    2    3    3    0    0 -0.16820722843E+02 -0.89650390951E+02  0.79110756460E+02  0.14391462755E+03  0.78312061138E+02 0.  0.
         -6    2    1    2    0  502 -0.12860086554E+02  0.80153070545E+02  0.56893110979E+03  0.59992272797E+03  0.17214753937E+03 0.  0.
        -24    2    5    5    0    0 -0.69374693968E+02  0.39759150632E+02  0.26758095851E+03  0.29063390940E+03  0.80466525433E+02 0.  0.
          5    1    3    3  501    0  0.29680809397E+02  0.94973204056E+01  0.15144501037E+03  0.15468946541E+03  0.47000000000E+01 0. -1.
        -11    1    4    4    0    0  0.17605212780E+02 -0.66705464771E+02  0.75672048235E+02  0.10240029996E+03  0.00000000000E+00 0.  1.
         12    1    4    4    0    0 -0.34425935623E+02 -0.22944926180E+02  0.34387082252E+01  0.41514327589E+02  0.00000000000E+00 0. -1.
         -5    1    5    5    0  502  0.56514607414E+02  0.40393919914E+02  0.30135015128E+03  0.30928881857E+03  0.47000000000E+01 0.  1.
         11    1    6    6    0    0 -0.37355997917E+02 -0.30841887415E+01  0.20460442660E+03  0.20800950504E+03  0.00000000000E+00 0. -1.
        -12    1    6    6    0    0 -0.32018696051E+02  0.42843339373E+02  0.62976531904E+02  0.82624404362E+02  0.00000000000E+00 0.  1.
</event>
<event>
12    1  0.1565987E-001  0.1814092E+03  0.7818608E-02  0.1166515E+00
         21   -1    0    0  503  502  0.00000000000E+00  0.00000000000E+00  0.12628303569E+03  0.12628303569E+03  0.00000000000E+00 0.  1.
         21   -1    0    0  501  503 -0.00000000000E+00 -0.00000000000E+00 -0.28806918533E+03  0.28806918533E+03  0.00000000000E+00 0. -1.
          6    2    1    2  501    0  0.49904872098E+02  0.25776821730E+02 -0.14529102080E+03  0.23219463956E+03  0.17219154775E+03 0.  0.
         24    2    3    3    0    0  0.13121701474E+02  0.59796079302E+02 -0.33853905114E+02  0.10992186140E+03  0.84787844481E+02 0.  0.
         -6    2    1    2    0  502 -0.49904872098E+02 -0.25776821730E+02 -0.16495128837E+02  0.18215758146E+03  0.17249450545E+03 0.  0.
        -24    2    5    5    0    0 -0.10042824408E+03 -0.14136934529E+02 -0.19961401025E+02  0.12998284491E+03  0.78812418522E+02 0.  0.
          5    1    3    3  501    0  0.36783170624E+02 -0.34019257573E+02 -0.11143711569E+03  0.12227277816E+03  0.47000000000E+01 0. -1.
        -13    1    4    4    0    0 -0.27132610473E+02  0.12139497189E+02  0.12456258145E+02  0.32228935913E+02  0.00000000000E+00 0.  1.
         14    1    4    4    0    0  0.40254311948E+02  0.47656582113E+02 -0.46310163259E+02  0.77692925483E+02  0.00000000000E+00 0. -1.
         -5    1    5    5    0  502  0.50523371983E+02 -0.11639887201E+02  0.34662721878E+01  0.52174736544E+02  0.47000000000E+01 0.  1.
         13    1    6    6    0    0 -0.54091870912E+02  0.21780771133E+02  0.16922710166E+02  0.60718288919E+02  0.00000000000E+00 0. -1.
        -14    1    6    6    0    0 -0.46336373170E+02 -0.35917705662E+02 -0.36884111191E+02  0.69264555993E+02  0.00000000000E+00 0.  1.
</event>
<event>
12    1  0.1565987E-001  0.2013320E+03  0.7818608E-02  0.1149681E+00
         21   -1    0    0  501  502  0.00000000000E+00  0.00000000000E+00  0.53777273609E+03  0.53777273609E+03  0.00000000000E+00 0. -1.
         21   -1    0    0  502  503 -0.00000000000E+00 -0.00000000000E+00 -0.12654979232E+03  0.12654979232E+03  0.00000000000E+00 0.  1.
         -6    2    1    2    0  503 -0.31942735029E+02 -0.83429413605E+02 -0.79088760914E+01  0.20148726015E+03  0.18042660643E+03 0.  0.
        -24    2    3    3    0    0 -0.44147354529E+02 -0.26920268615E+02  0.60204885866E+02  0.11202324072E+03  0.79062560073E+02 0.  0.
          6    2    1    2  501    0  0.31942735029E+02  0.83429413605E+02  0.41913181987E+03  0.46283526826E+03  0.17482619295E+03 0.  0.
         24    2    5    5    0    0  0.13617904756E+02  0.12333288919E+03  0.35508395046E+03  0.38503869800E+03  0.82302722882E+02 0.  0.
          5    1    5    5  501    0  0.18324830272E+02 -0.39903475589E+02  0.64047869406E+02  0.77796570258E+02  0.47000000000E+01 0. -1.
        -11    1    6    6    0    0 -0.31839549842E+02  0.26620592414E+02  0.85277788226E+02  0.94840466254E+02  0.00000000000E+00 0.  1.
         12    1    6    6    0    0  0.45457454598E+02  0.96712296780E+02  0.26980616224E+03  0.29019823174E+03  0.00000000000E+00 0. -1.
         -5    1    3    3    0  503  0.12204619500E+02 -0.56509144990E+02 -0.68113761958E+02  0.89464019430E+02  0.47000000000E+01 0.  1.
         11    1    4    4    0    0  0.80653517843E+01  0.53959699574E+01  0.48565374498E+02  0.49525367150E+02  0.00000000000E+00 0. -1.
        -12    1    4    4    0    0 -0.52212706313E+02 -0.32316238573E+02  0.11639511368E+02  0.62497873571E+02  0.00000000000E+00 0.  1.
</event>
<event>
12    1  0.1565987E-001  0.2286318E+03  0.7818608E-02  0.1127767E+00
         21   -1    0    0  501  502  0.00000000000E+00  0.00000000000E+00  0.22748209266E+03  0.22748209266E+03  0.00000000000E+00 0. -1.
         21   -1    0    0  502  503 -0.00000000000E+00 -0.00000000000E+00 -0.23098853501E+03  0.23098853501E+03  0.00000000000E+00 0. -1.
         -6    2    1    2    0  503  0.73019036171E+02  0.13105666498E+03 -0.23658580889E+02  0.22985258928E+03  0.17252494101E+03 0.  0.
        -24    2    3    3    0    0  0.51222533706E+02  0.45086530863E-01 -0.62538648973E+01  0.95822236945E+02  0.80740573908E+02 0.  0.
          6    2    1    2  501    0 -0.73019036171E+02 -0.13105666498E+03  0.20152138545E+02  0.22861803839E+03  0.17132562478E+03 0.  0.
         24    2    5    5    0    0 -0.89738862451E+01 -0.12776272781E+02  0.44559606003E+02  0.91834096067E+02  0.78766610520E+02 0.  0.
          5    1    5    5  501    0 -0.64045149926E+02 -0.11828039220E+03 -0.24407467458E+02  0.13678394232E+03  0.47000000000E+01 0. -1.
        -13    1    6    6    0    0  0.10223757870E+01  0.21059077680E+02 -0.12673896892E+02  0.24599952590E+02  0.00000000000E+00 0.  1.
         14    1    6    6    0    0 -0.99962620321E+01 -0.33835350461E+02  0.57233502895E+02  0.67234143477E+02  0.00000000000E+00 0. -1.
         -5    1    3    3    0  503  0.21796502466E+02  0.13101157845E+03 -0.17404715992E+02  0.13403035233E+03  0.47000000000E+01 0.  1.
         11    1    4    4    0    0  0.57164871277E+01  0.28669396659E+02  0.20566325289E+02  0.35743338760E+02  0.00000000000E+00 0. -1.
        -12    1    4    4    0    0  0.45506046578E+02 -0.28624310128E+02 -0.26820190186E+02  0.60078898185E+02  0.00000000000E+00 0.  1.
</event>
<event>
12    1  0.1565987E-001  0.2196461E+03  0.7818608E-02  0.1134175E+00
         21   -1    0    0  501  502  0.00000000000E+00  0.00000000000E+00  0.18917769886E+03  0.18917769886E+03  0.00000000000E+00 0.  1.
         21   -1    0    0  502  503 -0.00000000000E+00 -0.00000000000E+00 -0.36340717542E+03  0.36340717542E+03  0.00000000000E+00 0. -1.
         -6    2    1    2    0  503 -0.46289463225E+02 -0.12956501854E+03 -0.23810213871E+03  0.32384019569E+03  0.17102641741E+03 0.  0.
        -24    2    3    3    0    0 -0.94609486386E+02 -0.77844858378E+02 -0.14055143281E+03  0.20322498178E+03  0.80838796782E+02 0.  0.
          6    2    1    2  501    0  0.46289463225E+02  0.12956501854E+03  0.63872662145E+02  0.22874467859E+03  0.17121507695E+03 0.  0.
         24    2    5    5    0    0 -0.29204678757E+02  0.20842745439E+02  0.24033306721E+02  0.90436463419E+02  0.79459554398E+02 0.  0.
          5    1    5    5  501    0  0.75494141981E+02  0.10872227310E+03  0.39839355424E+02  0.13830821517E+03  0.47000000000E+01 0. -1.
        -13    1    6    6    0    0 -0.10705857021E+02  0.27441546347E+02  0.49907761717E+02  0.57952036375E+02  0.00000000000E+00 0.  1.
         14    1    6    6    0    0 -0.18498821736E+02 -0.65988009076E+01 -0.25874454996E+02  0.32484427044E+02  0.00000000000E+00 0. -1.
         -5    1    3    3    0  503  0.48320023162E+02 -0.51720160163E+02 -0.97550705893E+02  0.12061521391E+03  0.47000000000E+01 0.  1.
         13    1    4    4    0    0 -0.80871490734E+02 -0.79400385836E+02 -0.14886107125E+03  0.18709419504E+03  0.00000000000E+00 0. -1.
        -14    1    4    4    0    0 -0.13737995653E+02  0.15555274583E+01  0.83096384312E+01  0.16130786747E+02  0.00000000000E+00 0.  1.
</event>
<event>
12    1  0.1565987E-001  0.2856898E+03  0.7818608E-02  0.1092845E+00
         21   -1    0    0  503  502  0.00000000000E+00  0.00000000000E+00  0.12672636632E+03  0.12672636632E+03  0.00000000000E+00 0.  1.
         21   -1    0    0  501  503 -0.00000000000E+00 -0.00000000000E+00 -0.84098889325E+03  0.84098889325E+03  0.00000000000E+00 0. -1.
          6    2    1    2  501    0  0.16944404792E+03  0.15040418103E+03 -0.59431106259E+03  0.65941206796E+03  0.17402854134E+03 0.  0.
         24    2    3    3    0    0  0.10886934044E+03  0.24294581315E+02 -0.37328380542E+03  0.39778625742E+03  0.80314053775E+02 0.  0.
         -6    2    1    2    0  502 -0.16944404792E+03 -0.15040418103E+03 -0.11995146434E+03  0.30830319161E+03  0.17125945554E+03 0.  0.
        -24    2    5    5    0    0 -0.44774645440E+02 -0.77965927372E+02 -0.63201904641E+01  0.12466246380E+03  0.86123924480E+02 0.  0.
          5    1    3    3  501    0  0.60574707487E+02  0.12610959971E+03 -0.22102725717E+03  0.26162581054E+03  0.47000000000E+01 0. -1.
        -11    1    4    4    0    0  0.73901055796E+02 -0.23863282981E+02 -0.19866352756E+03  0.21330264767E+03  0.00000000000E+00 0.  1.
         12    1    4    4    0    0  0.34968284641E+02  0.48157864296E+02 -0.17462027786E+03  0.18448360975E+03  0.00000000000E+00 0. -1.
         -5    1    5    5    0  502 -0.12466940248E+03 -0.72438253655E+02 -0.11363127388E+03  0.18364072781E+03  0.47000000000E+01 0.  1.
         11    1    6    6    0    0 -0.40652913172E+02 -0.93387477638E+02  0.93664748985E+01  0.10228201788E+03  0.00000000000E+00 0. -1.
        -12    1    6    6    0    0 -0.41217322687E+01  0.15421550266E+02 -0.15686665363E+02  0.22380445923E+02  0.00000000000E+00 0.  1.
</event>
<event>
12    1  0.1565987E-001  0.1739406E+03  0.7818608E-02  0.1173914E+00
         21   -1    0    0  503  502  0.00000000000E+00  0.00000000000E+00  0.71545706224E+02  0.71545706224E+02  0.00000000000E+00 0. -1.
         21   -1    0    0  501  503 -0.00000000000E+00 -0.00000000000E+00 -0.53858349014E+03  0.53858349014E+03  0.00000000000E+00 0. -1.
          6    2    1    2  501    0  0.24419434101E+02  0.17125692456E+01 -0.37534380610E+03  0.41349977244E+03  0.17175519606E+03 0.  0.
         24    2    3    3    0    0  0.49357494304E+01  0.30517246373E+02 -0.82431675938E+02  0.11849311253E+03  0.79309347314E+02 0.  0.
         -6    2    1    2    0  502 -0.24419434101E+02 -0.17125692456E+01 -0.91693977810E+02  0.19662942392E+03  0.17220947456E+03 0.  0.
        -24    2    5    5    0    0 -0.51022801846E+02  0.54738980157E+02 -0.71137023692E+02  0.13075685779E+03  0.80232147317E+02 0.  0.
          5    1    3    3  501    0  0.19483684670E+02 -0.28804677128E+02 -0.29291213017E+03  0.29500665991E+03  0.47000000000E+01 0. -1.
        -13    1    4    4    0    0  0.31403186421E+02  0.23942629228E+02 -0.94811463132E+01  0.40611596216E+02  0.00000000000E+00 0.  1.
         14    1    4    4    0    0 -0.26467436991E+02  0.65746171449E+01 -0.72950529625E+02  0.77881516318E+02  0.00000000000E+00 0. -1.
         -5    1    5    5    0  502  0.26603367746E+02 -0.56451549403E+02 -0.20556954119E+02  0.65872566126E+02  0.47000000000E+01 0.  1.
         11    1    6    6    0    0  0.20297800619E+02  0.17698321722E+02 -0.67072594016E+01  0.27752813018E+02  0.00000000000E+00 0. -1.
        -12    1    6    6    0    0 -0.71320602466E+02  0.37040658436E+02 -0.64429764290E+02  0.10300404477E+03  0.00000000000E+00 0.  1.
</event>
<event>
12    1  0.1565987E-001  0.1834265E+03  0.7818608E-02  0.1165416E+00
         21   -1    0    0  501  502  0.00000000000E+00  0.00000000000E+00  0.17964048080E+04  0.17964048080E+04  0.00000000000E+00 0.  1.
         21   -1    0    0  502  503 -0.00000000000E+00 -0.00000000000E+00 -0.20321871080E+02  0.20321871080E+02  0.00000000000E+00 0. -1.
         -6    2    1    2    0  503 -0.44886102986E+02 -0.42185631264E+02  0.59696772196E+03  0.62342958447E+03  0.16881823363E+03 0.  0.
        -24    2    3    3    0    0 -0.26743438786E+02  0.33705244326E+02  0.21208168855E+03  0.23068548206E+03  0.79911788887E+02 0.  0.
          6    2    1    2  501    0  0.44886102986E+02  0.42185631264E+02  0.11791152149E+04  0.11932970946E+04  0.17277406092E+03 0.  0.
         24    2    5    5    0    0  0.90485667227E+02  0.58847899590E+02  0.82414500122E+03  0.83499150703E+03  0.79656151831E+02 0.  0.
          5    1    5    5  501    0 -0.45599564240E+02 -0.16662268326E+02  0.35497021371E+03  0.35830558755E+03  0.47000000000E+01 0. -1.
        -13    1    6    6    0    0  0.82744679127E+02  0.70456562988E+02  0.79790810743E+03  0.80527520581E+03  0.00000000000E+00 0.  1.
         14    1    6    6    0    0  0.77409880994E+01 -0.11608663398E+02  0.26236893791E+02  0.29716301224E+02  0.00000000000E+00 0. -1.
         -5    1    3    3    0  503 -0.18142664200E+02 -0.75890875589E+02  0.38488603341E+03  0.39274410241E+03  0.47000000000E+01 0.  1.
         11    1    4    4    0    0 -0.29533704922E+02 -0.43794445876E+01  0.22737216949E+02  0.37528659660E+02  0.00000000000E+00 0. -1.
        -12    1    4    4    0    0  0.27902661355E+01  0.38084688913E+02  0.18934447160E+03  0.19315682240E+03  0.00000000000E+00 0.  1.
</event>
<event>
12    1  0.1565987E-001  0.3572777E+03  0.7818608E-02  0.1059679E+00
         21   -1    0    0  501  502  0.00000000000E+00  0.00000000000E+00  0.19013016988E+03  0.19013016988E+03  0.00000000000E+00 0.  1.
         21   -1    0    0  502  503 -0.00000000000E+00 -0.00000000000E+00 -0.67114977075E+03  0.67114977075E+03  0.00000000000E+00 0.  1.
         -6    2    1    2    0  503  0.18528526609E+03  0.25214615559E+03 -0.24217478657E+03  0.43151928543E+03  0.17219742401E+03 0.  0.
        -24    2    3    3    0    0  0.88043576402E+02  0.59117314094E+02 -0.48675979243E+02  0.14138145904E+03  0.79830055958E+02 0.  0.
          6    2    1    2  501    0 -0.18528526609E+03 -0.25214615559E+03 -0.23884481430E+03  0.42976065521E+03  0.17245017206E+03 0.  0.
         24    2    5    5    0    0 -0.36629577390E+02 -0.14528448003E+03 -0.82308144787E+02  0.18883794896E+03  0.80223651078E+02 0.  0.
          5    1    5    5  501    0 -0.14865568870E+03 -0.10686167556E+03 -0.15653666951E+03  0.24092270625E+03  0.47000000000E+01 0. -1.
        -13    1    6    6    0    0 -0.55158557640E+02 -0.13079025768E+03 -0.84530149425E+02  0.16520866850E+03  0.00000000000E+00 0.  1.
         14    1    6    6    0    0  0.18528980250E+02 -0.14494222350E+02  0.22220046379E+01  0.23629280464E+02  0.00000000000E+00 0. -1.
         -5    1    3    3    0  503  0.97241689684E+02  0.19302884149E+03 -0.19349880733E+03  0.29013782638E+03  0.47000000000E+01 0.  1.
         13    1    4    4    0    0  0.30274447457E+02  0.66886810122E+02 -0.35820293236E+02  0.81691376195E+02  0.00000000000E+00 0. -1.
        -14    1    4    4    0    0  0.57769128944E+02 -0.77694960285E+01 -0.12855686007E+02  0.59690082847E+02  0.00000000000E+00 0.  1.
</event>
<event>
12    1  0.1565987E-001  0.2418823E+03  0.7818608E-02  0.1118674E+00
         21   -1    0    0  501  502  0.00000000000E+00  0.00000000000E+00  0.29133639524E+03  0.29133639524E+03  0.00000000000E+00 0.  1.
         21   -1    0    0  502  503 -0.00000000000E+00 -0.00000000000E+00 -0.21389347730E+03  0.21389347730E+03  0.00000000000E+00 0. -1.
         -6    2    1    2    0  503 -0.16836896905E+03 -0.19673047300E+02 -0.25188196023E+02  0.24319020331E+03  0.17254533096E+03 0.  0.
        -24    2    3    3    0    0 -0.27915432714E+02  0.29671451493E+02 -0.28141218995E+02  0.94217434735E+02  0.80158158562E+02 0.  0.
          6    2    1    2  501    0  0.16836896905E+03  0.19673047300E+02  0.10263111396E+03  0.26203966924E+03  0.17145408765E+03 0.  0.
         24    2    5    5    0    0  0.20108391831E+02  0.36064397367E+02  0.23036289198E+02  0.92902738779E+02  0.79970369970E+02 0.  0.
          5    1    5    5  501    0  0.14826057722E+03 -0.16391350067E+02  0.79594824764E+02  0.16913693046E+03  0.47000000000E+01 0. -1.
        -13    1    6    6    0    0 -0.20340419668E+02  0.46895772113E+00  0.32356606185E+02  0.38221755028E+02  0.00000000000E+00 0.  1.
         14    1    6    6    0    0  0.40448811499E+02  0.35595439646E+02 -0.93203169868E+01  0.54680983751E+02  0.00000000000E+00 0. -1.
         -5    1    3    3    0  503 -0.14045353634E+03 -0.49344498793E+02  0.29530229726E+01  0.14897276857E+03  0.47000000000E+01 0.  1.
         13    1    4    4    0    0 -0.21113229856E+02  0.38526900354E+02 -0.51880586794E+02  0.67982981782E+02  0.00000000000E+00 0. -1.
        -14    1    4    4    0    0 -0.68022028582E+01 -0.88554488603E+01  0.23739367799E+02  0.26234452953E+02  0.00000000000E+00 0.  1.
</event>
<event>
12    1  0.1565987E-001  0.2086160E+03  0.7818608E-02  0.1143221E+00
         21   -1    0    0  503  502  0.00000000000E+00  0.00000000000E+00  0.23990194624E+03  0.23990194624E+03  0.00000000000E+00 0.  1.
         21   -1    0    0  501  503 -0.00000000000E+00 -0.00000000000E+00 -0.38242712899E+03  0.38242712899E+03  0.00000000000E+00 0.  1.
          6    2    1    2  501    0  0.11225152295E+03 -0.11785620229E+02 -0.29797211956E+03  0.36216681108E+03  0.17215722397E+03 0.  0.
         24    2    3    3    0    0 -0.13139219393E+02 -0.15980227932E+02 -0.13274156322E+03  0.15464895704E+03  0.76602679680E+02 0.  0.
         -6    2    1    2    0  502 -0.11225152295E+03  0.11785620229E+02  0.15544693680E+03  0.26016226415E+03  0.17544614067E+03 0.  0.
        -24    2    5    5    0    0 -0.63605988413E+02  0.74690783266E+02  0.77912700906E+02  0.14899979160E+03  0.80660486405E+02 0.  0.
          5    1    3    3  501    0  0.12539074235E+03  0.41946077029E+01 -0.16523055633E+03  0.20751785404E+03  0.47000000000E+01 0. -1.
        -13    1    4    4    0    0 -0.10533752517E+02 -0.37801966142E+02 -0.12552753635E+03  0.13151848147E+03  0.00000000000E+00 0.  1.
         14    1    4    4    0    0 -0.26054668767E+01  0.21821738210E+02 -0.72140268747E+01  0.23130475566E+02  0.00000000000E+00 0. -1.
         -5    1    5    5    0  502 -0.48645534540E+02 -0.62905163036E+02  0.77534235898E+02  0.11116247255E+03  0.47000000000E+01 0.  1.
         13    1    6    6    0    0  0.49237159842E+01  0.33114000568E+02 -0.47997487268E+01  0.33820372567E+02  0.00000000000E+00 0. -1.
        -14    1    6    6    0    0 -0.68529704397E+02  0.41576782697E+02  0.82712449633E+02  0.11517941903E+03  0.00000000000E+00 0.  1.
</event>
<event>
12    1  0.1565987E-001  0.3208074E+03  0.7818608E-02  0.1075515E+00
         21   -1    0    0  503  502  0.00000000000E+00  0.00000000000E+00  0.46363914995E+03  0.46363914995E+03  0.00000000000E+00 0. -1.
         21   -1    0    0  501  503 -0.00000000000E+00 -0.00000000000E+00 -0.22351335981E+03  0.22351335981E+03  0.00000000000E+00 0.  1.
          6    2    1    2  501    0  0.21958904168E+03  0.15048626730E+03  0.15995498261E+03  0.35847311346E+03  0.17903047991E+03 0.  0.
         24    2    3    3    0    0  0.61912075016E+02  0.91452388769E+02  0.12954180476E+03  0.18731799078E+03  0.78168446611E+02 0.  0.
         -6    2    1    2    0  502 -0.21958904168E+03 -0.15048626730E+03  0.80170807539E+02  0.32867939630E+03  0.17532062998E+03 0.  0.
        -24    2    5    5    0    0 -0.23293891125E+03 -0.15428377648E+03  0.97163050867E+02  0.30624133875E+03  0.79240640123E+02 0.  0.
          5    1    3    3  501    0  0.15767696667E+03  0.59033878535E+02  0.30413177853E+02  0.17115512268E+03  0.47000000000E+01 0. -1.
        -11    1    4    4    0    0  0.25771553120E+02  0.95457232853E+02  0.97285535110E+02  0.13871096422E+03  0.00000000000E+00 0.  1.
         12    1    4    4    0    0  0.36140521897E+02 -0.40048440838E+01  0.32256269646E+02  0.48607026555E+02  0.00000000000E+00 0. -1.
         -5    1    5    5    0  502  0.13349869563E+02  0.37975091792E+01 -0.16992243328E+02  0.22438057550E+02  0.47000000000E+01 0.  1.
         11    1    6    6    0    0 -0.72518438400E+02 -0.94620584180E+02  0.37135564764E+02  0.12486404218E+03  0.00000000000E+00 0. -1.
        -12    1    6    6    0    0 -0.16042047285E+03 -0.59663192303E+02  0.60027486103E+02  0.18137729657E+03  0.00000000000E+00 0.  1.
</event>
<event>
12    1  0.1565987E-001  0.1859837E+03  0.7818608E-02  0.1164568E+00
         21   -1    0    0  501  502  0.00000000000E+00  0.00000000000E+00  0.16936500186E+03  0.16936500186E+03  0.00000000000E+00 0.  1.
         21   -1    0    0  502  503 -0.00000000000E+00 -0.00000000000E+00 -0.21697402337E+03  0.21697402337E+03  0.00000000000E+00 0.  1.
         -6    2    1    2    0  503 -0.18372884298E+02 -0.26562150701E+02 -0.87126017808E+02  0.19620344677E+03  0.17280549418E+03 0.  0.
        -24    2    3    3    0    0  0.53818156582E+02 -0.24346790169E+01 -0.61117771473E+02  0.11562925642E+03  0.82051333390E+02 0.  0.
          6    2    1    2  501    0  0.18372884298E+02  0.26562150701E+02  0.39516996302E+02  0.19013557845E+03  0.18315794951E+03 0.  0.
         24    2    5    5    0    0  0.63241020353E+02  0.33492586513E+01 -0.26015231823E+02  0.10725885727E+03  0.82565283186E+02 0.  0.
          5    1    5    5  501    0 -0.44868136055E+02  0.23212892050E+02  0.65532228125E+02  0.82876721179E+02  0.47000000000E+01 0. -1.
        -11    1    6    6    0    0 -0.26719732119E+01  0.11608297644E+02  0.22188450643E+02  0.25183712136E+02  0.00000000000E+00 0.  1.
         12    1    6    6    0    0  0.65912993565E+02 -0.82590389923E+01 -0.48203682466E+02  0.82075145136E+02  0.00000000000E+00 0. -1.
         -5    1    3    3    0  503 -0.72191040880E+02 -0.24127471684E+02 -0.26008246335E+02  0.80574190351E+02  0.47000000000E+01 0.  1.
         11    1    4    4    0    0 -0.49244319413E+01 -0.18606392936E+02  0.10237833711E+02  0.21800484562E+02  0.00000000000E+00 0. -1.
        -12    1    4    4    0    0  0.58742588524E+02  0.16171713919E+02 -0.71355605185E+02  0.93828771860E+02  0.00000000000E+00 0.  1.
</event>
<event>
12    1  0.1565987E-001  0.1815206E+03  0.7818608E-02  0.1167205E+00
         21   -1    0    0  503  502  0.00000000000E+00  0.00000000000E+00  0.54781439872E+02  0.54781439872E+02  0.00000000000E+00 0.  1.
         21   -1    0    0  501  503 -0.00000000000E+00 -0.00000000000E+00 -0.22388478901E+04  0.22388478901E+04  0.00000000000E+00 0.  1.
          6    2    1    2  501    0 -0.27985504932E+02 -0.47291202007E+02 -0.20734259897E+04  0.20810474883E+04  0.16924440115E+03 0.  0.
         24    2    3    3    0    0  0.48827612511E+01 -0.14718577605E+02 -0.88929294613E+03  0.89600130618E+03  0.10833244548E+03 0.  0.
         -6    2    1    2    0  502  0.27985504932E+02  0.47291202007E+02 -0.11064046048E+03  0.21258184167E+03  0.17300312610E+03 0.  0.
        -24    2    5    5    0    0 -0.15448027311E+02  0.66461386027E+02 -0.11936594303E+03  0.16408244245E+03  0.89549216558E+02 0.  0.
          5    1    3    3  501    0 -0.32868266183E+02 -0.32572624402E+02 -0.11841330436E+04  0.11850461821E+04  0.47000000000E+01 0. -1.
        -13    1    4    4    0    0 -0.47459569564E+02 -0.27677347643E+02 -0.49457108933E+03  0.49761331244E+03  0.00000000000E+00 0.  1.
         14    1    4    4    0    0  0.52342330816E+02  0.12958770037E+02 -0.39472185680E+03  0.39838799374E+03  0.00000000000E+00 0. -1.
         -5    1    5    5    0  502  0.43433532243E+02 -0.19170184019E+02  0.87254825515E+01  0.48499399215E+02  0.47000000000E+01 0.  1.
         11    1    6    6    0    0  0.68837849691E+01 -0.23485642512E+01 -0.82624398660E+02  0.82943917820E+02  0.00000000000E+00 0. -1.
        -12    1    6    6    0    0 -0.22331812280E+02  0.68809950278E+02 -0.36741544367E+02  0.81138524632E+02  0.00000000000E+00 0.  1.
</event>
<event>
12    1  0.1565987E-001  0.1959090E+03  0.7818608E-02  0.1153486E+00
         21   -1    0    0  501  502  0.00000000000E+00  0.00000000000E+00  0.48626184654E+03  0.48626184654E+03  0.00000000000E+00 0. -1.
         21   -1    0    0  502  503 -0.00000000000E+00 -0.00000000000E+00 -0.78468140579E+02  0.78468140579E+02  0.00000000000E+00 0.  1.
         -6    2    1    2    0  503 -0.86573110591E+02 -0.33005415173E+02  0.20317322474E+03  0.28144591460E+03  0.17131311299E+03 0.  0.
        -24    2    3    3    0    0 -0.21106147772E+02  0.27331679377E+02  0.16040276418E+03  0.18256269814E+03  0.80047497312E+02 0.  0.
          6    2    1    2  501    0  0.86573110591E+02  0.33005415173E+02  0.20462048121E+03  0.28328407252E+03  0.17261536288E+03 0.  0.
         24    2    5    5    0    0  0.81142319157E+02 -0.40248413787E+02  0.12712648360E+03  0.17640551237E+03  0.82181209480E+02 0.  0.
          5    1    5    5  501    0  0.54307914342E+01  0.73253828960E+02  0.77493997608E+02  0.10687856014E+03  0.47000000000E+01 0. -1.
        -13    1    6    6    0    0 -0.90606926663E+01 -0.25690814166E+02  0.12930098072E+02  0.30154626847E+02  0.00000000000E+00 0.  1.
         14    1    6    6    0    0  0.90203011823E+02 -0.14557599620E+02  0.11419638553E+03  0.14625088553E+03  0.00000000000E+00 0. -1.
         -5    1    3    3    0  503 -0.65466962819E+02 -0.60337094550E+02  0.42770460564E+02  0.98883216454E+02  0.47000000000E+01 0.  1.
         13    1    4    4    0    0  0.27357094037E+02  0.27339451546E+02  0.73913304986E+02  0.83420817899E+02  0.00000000000E+00 0. -1.
        -14    1    4    4    0    0 -0.48463241809E+02 -0.77721688410E-02  0.86489459193E+02  0.99141880245E+02  0.00000000000E+00 0.  1.
</event>
<event>
12    1  0.1565987E-001  0.1817209E+03  0.7818608E-02  0.1168194E+00
         21   -1    0    0  503  502  0.00000000000E+00  0.00000000000E+00  0.72773566507E+02  0.72773566507E+02  0.00000000000E+00 0. -1.
         21   -1    0    0  501  503 -0.00000000000E+00 -0.00000000000E+00 -0.77568082768E+03  0.77568082768E+03  0.00000000000E+00 0. -1.
          6    2    1    2  501    0 -0.42464716398E+02  0.42217029568E+02 -0.62869827988E+03  0.65216517462E+03  0.16270328251E+03 0.  0.
         24    2    3    3    0    0 -0.19345514841E+02  0.88553580023E+02 -0.45390213624E+03  0.46979918212E+03  0.80424727294E+02 0.  0.
         -6    2    1    2    0  502  0.42464716398E+02 -0.42217029568E+02 -0.74208981291E+02  0.19628921956E+03  0.17157201138E+03 0.  0.
        -24    2    5    5    0    0 -0.98902680140E+01 -0.62493992631E+02 -0.26553085826E+00  0.10332727312E+03  0.81689279275E+02 0.  0.
          5    1    3    3  501    0 -0.23119201558E+02 -0.46336550454E+02 -0.17479614364E+03  0.18236599250E+03  0.47000000000E+01 0. -1.
        -11    1    4    4    0    0 -0.29297721191E+01  0.53360844873E+02 -0.96634778221E+02  0.11042754952E+03  0.00000000000E+00 0.  1.
         12    1    4    4    0    0 -0.16415742722E+02  0.35192735150E+02 -0.35726735802E+03  0.35937163261E+03  0.00000000000E+00 0. -1.
         -5    1    5    5    0  502  0.52354984412E+02  0.20276963062E+02 -0.73943450433E+02  0.92961946439E+02  0.47000000000E+01 0.  1.
         11    1    6    6    0    0 -0.97860519056E+01 -0.71330646440E+02 -0.25663399528E+02  0.76435842435E+02  0.00000000000E+00 0. -1.
        -12    1    6    6    0    0 -0.10421610837E+00  0.88366538096E+01  0.25397868670E+02  0.26891430689E+02  0.00000000000E+00 0.  1.
</event>
<event>
12    1  0.1565987E-001  0.1759524E+03  0.7818608E-02  0.1172000E+00
         21   -1    0    0  503  502  0.00000000000E+00  0.00000000000E+00  0.54180810365E+02  0.54180810365E+02  0.00000000000E+00 0.  1.
         21   -1    0    0  501  503 -0.00000000000E+00 -0.00000000000E+00 -0.10903903214E+04  0.10903903214E+04  0.00000000000E+00 0.  1.
          6    2    1    2  501    0 -0.19311534464E+02  0.27760397134E+02 -0.91469425781E+03  0.93146381370E+03  0.17267216323E+03 0.  0.
         24    2    3    3    0    0  0.21335592689E+02 -0.14207734863E+02 -0.80035364797E+03  0.80297498887E+03  0.59546651300E+02 0.  0.
         -6    2    1    2    0  502  0.19311534464E+02 -0.27760397134E+02 -0.12151525324E+03  0.21310731807E+03  0.17177076944E+03 0.  0.
        -24    2    5    5    0    0 -0.55266121116E+02 -0.14914390121E+02 -0.54223757760E+02  0.11173137432E+03  0.79163760184E+02 0.  0.
          5    1    3    3  501    0 -0.40647127153E+02  0.41968131996E+02 -0.11434060983E+03  0.12848882483E+03  0.47000000000E+01 0. -1.
        -13    1    4    4    0    0  0.32095508878E+02 -0.28759474777E+02 -0.42350830874E+03  0.42569533313E+03  0.00000000000E+00 0.  1.
         14    1    4    4    0    0 -0.10759916189E+02  0.14551739914E+02 -0.37684533923E+03  0.37727965574E+03  0.00000000000E+00 0. -1.
         -5    1    5    5    0  502  0.74577655580E+02 -0.12846007013E+02 -0.67291495477E+02  0.10137594375E+03  0.47000000000E+01 0.  1.
         13    1    6    6    0    0 -0.58383433019E+02  0.15560381848E+02 -0.15541475861E+02  0.62388205667E+02  0.00000000000E+00 0. -1.
        -14    1    6    6    0    0  0.31173119035E+01 -0.30474771969E+02 -0.38682281899E+02  0.49343168656E+02  0.00000000000E+00 0.  1.
</event>
<event>
12    1  0.1565987E-001  0.2421481E+03  0.7818608E-02  0.1118377E+00
         21   -1    0    0  501  502  0.00000000000E+00  0.00000000000E+00  0.57690704515E+03  0.57690704515E+03  0.00000000000E+00 0. -1.
         21   -1    0    0  502  503 -0.00000000000E+00 -0.00000000000E+00 -0.10960990389E+04  0.10960990389E+04  0.00000000000E+00 0.  1.
         -6    2    1    2    0  503  0.68588527792E+02 -0.15573680564E+03 -0.10563810874E+04  0.10837788889E+04  0.17227112225E+03 0.  0.
        -24    2    3    3    0    0 -0.27471324722E+02 -0.47892960727E+02 -0.40305315472E+03  0.41466210710E+03  0.80277071213E+02 0.  0.
          6    2    1    2  501    0 -0.68588527792E+02  0.15573680564E+03  0.53718909359E+03  0.58922719514E+03  0.17221563937E+03 0.  0.
         24    2    5    5    0    0 -0.51488738073E+02  0.28469885786E+02  0.13393768439E+03  0.16599787110E+03  0.78449763338E+02 0.  0.
          5    1    5    5  501    0 -0.17099789719E+02  0.12726691985E+03  0.40325140921E+03  0.42322932404E+03  0.47000000000E+01 0. -1.
        -11    1    6    6    0    0 -0.66641518244E+02  0.25240156255E+01  0.10426947439E+03  0.12377231475E+03  0.00000000000E+00 0.  1.
         12    1    6    6    0    0  0.15152780170E+02  0.25945870161E+02  0.29668209997E+02  0.42225556357E+02  0.00000000000E+00 0. -1.
         -5    1    3    3    0  503  0.96059852514E+02 -0.10784384491E+03 -0.65332793266E+03  0.66911678184E+03  0.47000000000E+01 0.  1.
         13    1    4    4    0    0 -0.59249606917E+01  0.13031820961E+02 -0.13145350266E+02  0.19435373688E+02  0.00000000000E+00 0. -1.
        -14    1    4    4    0    0 -0.21546364030E+02 -0.60924781688E+02 -0.38990780446E+03  0.39522673341E+03  0.00000000000E+00 0.  1.
</event>
<event>
12    1  0.1565987E-001  0.1985260E+03  0.7818608E-02  0.1151562E+00
         21   -1    0    0  501  502  0.00000000000E+00  0.00000000000E+00  0.10333182698E+03  0.10333182698E+03  0.00000000000E+00 0. -1.
         21   -1    0    0  502  503 -0.00000000000E+00 -0.00000000000E+00 -0.41668292367E+03  0.41668292367E+03  0.00000000000E+00 0. -1.
         -6    2    1    2    0  503  0.68110534862E+02 -0.63971062575E+02 -0.23665976809E+03  0.30719059214E+03  0.17212458355E+03 0.  0.
        -24    2    3    3    0    0  0.62753487519E+02 -0.94140846519E+01 -0.22960495861E+03  0.25171967965E+03  0.81349461684E+02 0.  0.
          6    2    1    2  501    0 -0.68110534862E+02  0.63971062575E+02 -0.76691328596E+02  0.21282415851E+03  0.17516055709E+03 0.  0.
         24    2    5    5    0    0 -0.86673145468E+02  0.71800464992E+02 -0.10841349535E+03  0.17495258714E+03  0.78659906285E+02 0.  0.
          5    1    5    5  501    0  0.18562610606E+02 -0.78294024165E+01  0.31722166749E+02  0.37871571370E+02  0.47000000000E+01 0. -1.
        -13    1    6    6    0    0 -0.33657372702E+02  0.76311145913E+02 -0.57448496067E+02  0.10127457444E+03  0.00000000000E+00 0.  1.
         14    1    6    6    0    0 -0.53015772766E+02 -0.45106809216E+01 -0.50964999279E+02  0.73678012703E+02  0.00000000000E+00 0. -1.
         -5    1    3    3    0  503  0.53570473427E+01 -0.54556977923E+02 -0.70548094783E+01  0.55470912496E+02  0.47000000000E+01 0.  1.
         11    1    4    4    0    0  0.17550946549E+02 -0.38884343378E+02 -0.59166208868E+02  0.72942910255E+02  0.00000000000E+00 0. -1.
        -12    1    4    4    0    0  0.45202540970E+02  0.29470258726E+02 -0.17043874974E+03  0.17877676939E+03  0.00000000000E+00 0.  1.
</event>
<event>
12    1  0.1565987E-001  0.2388549E+03  0.7818608E-02  0.1120578E+00
         21   -1    0    0  501  502  0.00000000000E+00  0.00000000000E+00  0.21276182993E+03  0.21276182993E+03  0.00000000000E+00 0. -1.
         21   -1    0    0  502  503 -0.00000000000E+00 -0.00000000000E+00 -0.77261394421E+03  0.77261394421E+03  0.00000000000E+00 0. -1.
         -6    2    1    2    0  503 -0.15666836944E+03 -0.55273450838E+02 -0.67811750326E+03  0.71895412174E+03  0.17161453490E+03 0.  0.
        -24    2    3    3    0    0 -0.73342178599E+01 -0.11017268523E+02 -0.17705951062E+03  0.19422514361E+03  0.78728426580E+02 0.  0.
          6    2    1    2  501    0  0.15666836944E+03  0.55273450838E+02  0.11826538898E+03  0.26642165240E+03  0.17144579986E+03 0.  0.
         24    2    5    5    0    0  0.16152050763E+03  0.72057323639E+02  0.57031005058E+02  0.20257040805E+03  0.80629414019E+02 0.  0.
          5    1    5    5  501    0 -0.48521381888E+01 -0.16783872802E+02  0.61234383922E+02  0.63851244354E+02  0.47000000000E+01 0. -1.
        -11    1    6    6    0    0  0.16115766928E+02 -0.37617053151E+01 -0.16035781439E+02  0.23043755270E+02  0.00000000000E+00 0.  1.
         12    1    6    6    0    0  0.14540474070E+03  0.75819028954E+02  0.73066786497E+02  0.17952665278E+03  0.00000000000E+00 0. -1.
         -5    1    3    3    0  503 -0.14933415158E+03 -0.44256182315E+02 -0.50105799264E+03  0.52472897813E+03  0.47000000000E+01 0.  1.
         13    1    4    4    0    0 -0.22476300472E+02  0.27921984434E+02 -0.10475395825E+03  0.11071681474E+03  0.00000000000E+00 0. -1.
        -14    1    4    4    0    0  0.15142082612E+02 -0.38939252957E+02 -0.72305552369E+02  0.83508328867E+02  0.00000000000E+00 0.  1.
</event>
<event>
12    1  0.1565987E-001  0.1939704E+03  0.7818608E-02  0.1155423E+00
         21   -1    0    0  501  502  0.00000000000E+00  0.00000000000E+00  0.11436965298E+04  0.11436965298E+04  0.00000000000E+00 0.  1.
         21   -1    0    0  502  503 -0.00000000000E+00 -0.00000000000E+00 -0.33334552101E+02  0.33334552101E+02  0.00000000000E+00 0.  1.
         -6    2    1    2    0  503  0.55666183992E+02  0.64173004653E+02  0.64412465250E+03  0.67205409117E+03  0.17188145607E+03 0.  0.
        -24    2    3    3    0    0  0.26547461671E+02 -0.18836862576E+02  0.45547727754E+03  0.46385116102E+03  0.81478549997E+02 0.  0.
          6    2    1    2  501    0 -0.55666183992E+02 -0.64173004653E+02  0.46623732521E+03  0.50497699073E+03  0.17437780589E+03 0.  0.
         24    2    5    5    0    0  0.24194208201E+02 -0.15031109011E+02  0.32592701986E+03  0.33615258511E+03  0.77193550577E+02 0.  0.
          5    1    5    5  501    0 -0.79860392193E+02 -0.49141895642E+02  0.14031030535E+03  0.16882440563E+03  0.47000000000E+01 0. -1.
        -11    1    6    6    0    0 -0.10825848754E+02 -0.35171017094E+02  0.21438045429E+03  0.21751592729E+03  0.00000000000E+00 0.  1.
         12    1    6    6    0    0  0.35020056955E+02  0.20139908083E+02  0.11154656557E+03  0.11863665782E+03  0.00000000000E+00 0. -1.
         -5    1    3    3    0  503  0.29118722321E+02  0.83009867230E+02  0.18864737496E+03  0.20820293016E+03  0.47000000000E+01 0.  1.
         11    1    4    4    0    0 -0.16182189804E+02 -0.37316296556E+02  0.18760446932E+03  0.19196303333E+03  0.00000000000E+00 0. -1.
        -12    1    4    4    0    0  0.42729651475E+02  0.18479433980E+02  0.26787280821E+03  0.27188812768E+03  0.00000000000E+00 0.  1.
</event>
<event>
12    1  0.1565987E-001  0.2034056E+03  0.7818608E-02  0.1147108E+00
         21   -1    0    0  503  502  0.00000000000E+00  0.00000000000E+00  0.20134648747E+03  0.20134648747E+03  0.00000000000E+00 0. -1.
         21   -1    0    0  501  503 -0.00000000000E+00 -0.00000000000E+00 -0.24278670193E+03  0.24278670193E+03  0.00000000000E+00 0. -1.
          6    2    1    2  501    0  0.97893153152E+02  0.46744247917E+02 -0.10890835234E+03  0.22983012792E+03  0.17085890186E+03 0.  0.
         24    2    3    3    0    0  0.35447599837E+02 -0.38638204888E+02 -0.50020295514E+02  0.10867112655E+03  0.80981112440E+02 0.  0.
         -6    2    1    2    0  502 -0.97893153152E+02 -0.46744247917E+02  0.67468137876E+02  0.21430306148E+03  0.17206323949E+03 0.  0.
        -24    2    5    5    0    0 -0.19239582885E+02  0.32343097965E+02  0.73621954198E+00  0.84239879451E+02  0.75362973237E+02 0.  0.
          5    1    3    3  501    0  0.62445553315E+02  0.85382452805E+02 -0.58888056823E+02  0.12115900137E+03  0.47000000000E+01 0. -1.
        -11    1    4    4    0    0  0.14979449210E+02  0.25217942646E+02 -0.17363521874E+02  0.34085486968E+02  0.00000000000E+00 0.  1.
         12    1    4    4    0    0  0.20468150627E+02 -0.63856147534E+02 -0.32656773640E+02  0.74585639586E+02  0.00000000000E+00 0. -1.
         -5    1    5    5    0  502 -0.78653570267E+02 -0.79087345882E+02  0.66731918334E+02  0.13006318203E+03  0.47000000000E+01 0.  1.
         11    1    6    6    0    0  0.95732215056E+01  0.33688380990E+02  0.27778825018E+02  0.44701417238E+02  0.00000000000E+00 0. -1.
        -12    1    6    6    0    0 -0.28812804391E+02 -0.13452830246E+01 -0.27042605476E+02  0.39538462213E+02  0.00000000000E+00 0.  1.
</event>
<event>
12    1  0.1565987E-001  0.1809782E+03  0.7818608E-02  0.1167557E+00
         21   -1    0    0  501  502  0.00000000000E+00  0.00000000000E+00  0.72075798482E+02  0.72075798482E+02  0.00000000000E+00 0. -1.
         21   -1    0    0  502  503 -0.00000000000E+00 -0.00000000000E+00 -0.45249882945E+03  0.45249882945E+03  0.00000000000E+00 0. -1.
         -6    2    1    2    0  503  0.33641177968E+02  0.37120593550E+02 -0.21701750032E+03  0.28074172897E+03  0.17090832519E+03 0.  0.
        -24    2    3    3    0    0  0.24700829246E+02  0.77683623999E+02 -0.20487766111E+03  0.23721294573E+03  0.87465702955E+02 0.  0.
          6    2    1    2  501    0 -0.33641177968E+02 -0.37120593550E+02 -0.16340553065E+03  0.24383289897E+03  0.17390643418E+03 0.  0.
         24    2    5    5    0    0  0.36119394709E+01 -0.54915017941E+01 -0.39445490565E+01  0.76985397171E+02  0.76602801591E+02 0.  0.
          5    1    5    5  501    0 -0.37253117439E+02 -0.31629091756E+02 -0.15946098160E+03  0.16684750180E+03  0.47000000000E+01 0. -1.
        -13    1    6    6    0    0  0.36216875198E+02 -0.17268806947E+02  0.67920674880E+01  0.40694052676E+02  0.00000000000E+00 0.  1.
         14    1    6    6    0    0 -0.32604935727E+02  0.11777305153E+02 -0.10736616544E+02  0.36291344495E+02  0.00000000000E+00 0. -1.
         -5    1    3    3    0  503  0.89403487223E+01 -0.40563030449E+02 -0.12139839204E+02  0.43528783240E+02  0.47000000000E+01 0.  1.
         13    1    4    4    0    0  0.78393405414E+01  0.42844253764E+02 -0.19296694920E+02  0.47638721389E+02  0.00000000000E+00 0. -1.
        -14    1    4    4    0    0  0.16861488704E+02  0.34839370236E+02 -0.18558096619E+03  0.18957422434E+03  0.00000000000E+00 0.  1.
</event>
<event>
12    1  0.1565987E-001  0.1880346E+03  0.7818608E-02  0.1160630E+00
         21   -1    0    0  503  502  0.00000000000E+00  0.00000000000E+00  0.41626152865E+03  0.41626152865E+03  0.00000000000E+00 0. -1.
         21   -1    0    0  501  503 -0.00000000000E+00 -0.00000000000E+00 -0.14335190299E+03  0.14335190299E+03  0.00000000000E+00 0. -1.
          6    2    1    2  501    0  0.74094781079E+02  0.11841371342E+02 -0.43663540303E+02  0.19140752500E+03  0.17058745914E+03 0.  0.
         24    2    3    3    0    0  0.75030867390E+02  0.17456910199E+02  0.32416115919E+02  0.11497052725E+03  0.78949621853E+02 0.  0.
         -6    2    1    2    0  502 -0.74094781079E+02 -0.11841371342E+02  0.31657316596E+03  0.36820590664E+03  0.17241451685E+03 0.  0.
        -24    2    5    5    0    0 -0.62424916977E+02 -0.83893659972E+00  0.33077136456E+03  0.34627606073E+03  0.81239402676E+02 0.  0.
          5    1    3    3  501    0 -0.93608631060E+00 -0.56155388567E+01 -0.76079656221E+02  0.76436997750E+02  0.47000000000E+01 0. -1.
        -11    1    4    4    0    0  0.19079975389E+01 -0.23273601539E+02 -0.39975437285E+01  0.23691376893E+02  0.00000000000E+00 0.  1.
         12    1    4    4    0    0  0.73122869851E+02  0.40730511738E+02  0.36413659647E+02  0.91279150360E+02  0.00000000000E+00 0. -1.
         -5    1    5    5    0  502 -0.11669864102E+02 -0.11002434743E+02 -0.14198198598E+02  0.21929845915E+02  0.47000000000E+01 0.  1.
         13    1    6    6    0    0 -0.26357266590E+02 -0.33138222499E+02  0.76499945098E+02  0.87436198982E+02  0.00000000000E+00 0. -1.
        -14    1    6    6    0    0 -0.36067650387E+02  0.32299285899E+02  0.25427141946E+03  0.25883986175E+03  0.00000000000E+00 0.  1.
</event>
<event>
12    1  0.1565987E-001  0.1736121E+03  0.7818608E-02  0.1174169E+00
         21   -1    0    0  503  502  0.00000000000E+00  0.00000000000E+00  0.24549533022E+03  0.24549533022E+03  0.00000000000E+00 0.  1.
         21   -1    0    0  501  503 -0.00000000000E+00 -0.00000000000E+00 -0.12267457868E+03  0.12267457868E+03  0.00000000000E+00 0.  1.
          6    2    1    2  501    0 -0.21633851611E+02  0.16970593633E+02  0.61784967623E+02  0.18414133316E+03  0.17127353494E+03 0.  0.
         24    2    3    3    0    0  0.95949551398E+01 -0.27615520212E+02  0.89562865837E+02  0.12284809089E+03  0.78838229163E+02 0.  0.
         -6    2    1    2    0  502  0.21633851611E+02 -0.16970593633E+02  0.61035783915E+02  0.18402857574E+03  0.17142090067E+03 0.  0.
        -24    2    5    5    0    0 -0.28172905475E+02 -0.55689289061E+02  0.72800327221E+01  0.10101278680E+03  0.79092191159E+02 0.  0.
          5    1    3    3  501    0 -0.31228806750E+02  0.44586113844E+02 -0.27777898214E+02  0.61293242270E+02  0.47000000000E+01 0. -1.
        -13    1    4    4    0    0  0.20586558620E+02  0.12047358381E+02 -0.46630137699E+00  0.23857130522E+02  0.00000000000E+00 0.  1.
         14    1    4    4    0    0 -0.10991603480E+02 -0.39662878592E+02  0.90029167214E+02  0.98990960368E+02  0.00000000000E+00 0. -1.
         -5    1    5    5    0  502  0.49806757085E+02  0.38718695428E+02  0.53755751193E+02  0.83015788940E+02  0.47000000000E+01 0.  1.
         13    1    6    6    0    0  0.20183423548E+02 -0.17106865896E+02  0.25271126260E+02  0.36587501546E+02  0.00000000000E+00 0. -1.
        -14    1    6    6    0    0 -0.48356329023E+02 -0.38582423165E+02 -0.17991093538E+02  0.64425285258E+02  0.00000000000E+00 0.  1.
</event>
<event>
12    1  0.1565987E-001  0.1801525E+03  0.7818608E-02  0.1167794E+00
         21   -1    0    0  501  502  0.00000000000E+00  0.00000000000E+00  0.51851360473E+03  0.51851360473E+03  0.00000000000E+00 0. -1.
         21   -1    0    0  502  503 -0.00000000000E+00 -0.00000000000E+00 -0.13374990014E+03  0.13374990014E+03  0.00000000000E+00 0.  1.
         -6    2    1    2    0  503  0.50245128271E+02  0.17174341260E+02 -0.45686551207E+02  0.18585524736E+03  0.17214929886E+03 0.  0.
        -24    2    3    3    0    0  0.96862110868E+02  0.28540464164E+02 -0.18756999059E+02  0.13063185924E+03  0.80721936414E+02 0.  0.
          6    2    1    2  501    0 -0.50245128271E+02 -0.17174341260E+02  0.43045025580E+03  0.46640825751E+03  0.17155089345E+03 0.  0.
         24    2    5    5    0    0 -0.21487212055E+02 -0.58856449223E+02  0.38528365971E+03  0.39838967717E+03  0.79655850632E+02 0.  0.
          5    1    5    5  501    0 -0.28757916216E+02  0.41682107963E+02  0.45166596094E+02  0.68018580344E+02  0.47000000000E+01 0. -1.
        -11    1    6    6    0    0 -0.27272688032E+02 -0.64337055289E+02  0.18206266819E+03  0.19501249022E+03  0.00000000000E+00 0.  1.
         12    1    6    6    0    0  0.57854759772E+01  0.54806060665E+01  0.20322099152E+03  0.20337718694E+03  0.00000000000E+00 0. -1.
         -5    1    3    3    0  503 -0.46616982598E+02 -0.11366122905E+02 -0.26929552148E+02  0.55223388118E+02  0.47000000000E+01 0.  1.
         13    1    4    4    0    0  0.80396053276E+01 -0.23819053421E+02 -0.10338868187E+02  0.27182250736E+02  0.00000000000E+00 0. -1.
        -14    1    4    4    0    0  0.88822505541E+02  0.52359517585E+02 -0.84181308720E+01  0.10344960850E+03  0.00000000000E+00 0.  1.
</event>
<event>
12    1  0.1565987E-001  0.2163264E+03  0.7818608E-02  0.1136669E+00
         21   -1    0    0  503  502  0.00000000000E+00  0.00000000000E+00  0.51165475206E+03  0.51165475206E+03  0.00000000000E+00 0. -1.
         21   -1    0    0  501  503 -0.00000000000E+00 -0.00000000000E+00 -0.96017636739E+02  0.96017636739E+02  0.00000000000E+00 0.  1.
          6    2    1    2  501    0 -0.16335132293E+02 -0.12846610415E+03  0.27423586545E+03  0.34923203887E+03  0.17316850352E+03 0.  0.
         24    2    3    3    0    0  0.95106573425E+01 -0.15280921301E+03  0.25690166076E+03  0.30944314038E+03  0.79470029845E+02 0.  0.
         -6    2    1    2    0  502  0.16335132293E+02  0.12846610415E+03  0.14140124987E+03  0.25844034993E+03  0.17328221070E+03 0.  0.
        -24    2    5    5    0    0  0.18623977506E+02  0.14930429643E+02  0.11420349733E+03  0.14157548805E+03  0.80196070656E+02 0.  0.
          5    1    3    3  501    0 -0.25845789635E+02  0.24343108859E+02  0.17334204687E+02  0.39788898488E+02  0.47000000000E+01 0. -1.
        -13    1    4    4    0    0  0.82587403004E+01 -0.71660424433E+02  0.51623966452E+02  0.88704324210E+02  0.00000000000E+00 0.  1.
         14    1    4    4    0    0  0.12519170421E+01 -0.81148788573E+02  0.20527769431E+03  0.22073881617E+03  0.00000000000E+00 0. -1.
         -5    1    5    5    0  502 -0.22888452131E+01  0.11353567450E+03  0.27197752545E+02  0.11686486188E+03  0.47000000000E+01 0.  1.
         11    1    6    6    0    0 -0.19581943782E+02  0.14205004072E+02  0.34764901169E+01  0.24440144159E+02  0.00000000000E+00 0. -1.
        -12    1    6    6    0    0  0.38205921289E+02  0.72542557036E+00  0.11072700721E+03  0.11713534390E+03  0.00000000000E+00 0.  1.
</event>
<event>
12    1  0.1565987E-001  0.2086554E+03  0.7818608E-02  0.1143335E+00
         21   -1    0    0  501  502  0.00000000000E+00  0.00000000000E+00  0.35090340584E+02  0.35090340584E+02  0.00000000000E+00 0. -1.
         21   -1    0    0  502  503 -0.00000000000E+00 -0.00000000000E+00 -0.12211024912E+04  0.12211024912E+04  0.00000000000E+00 0. -1.
         -6    2    1    2    0  503  0.69077332606E+02 -0.91164813482E+02 -0.60565649208E+03  0.63946780010E+03  0.17034253689E+03 0.  0.
        -24    2    3    3    0    0  0.10564899572E+03 -0.57627595067E+02 -0.52632868230E+03  0.54578096556E+03  0.79826878619E+02 0.  0.
          6    2    1    2  501    0 -0.69077332606E+02  0.91164813482E+02 -0.58035565852E+03  0.61672503166E+03  0.17451181395E+03 0.  0.
         24    2    5    5    0    0  0.12473863419E+02  0.78186241215E+02 -0.43239019497E+03  0.44721128793E+03  0.82267671426E+02 0.  0.
          5    1    5    5  501    0 -0.81551196024E+02  0.12978572267E+02 -0.14796546354E+03  0.16951374373E+03  0.47000000000E+01 0. -1.
        -13    1    6    6    0    0 -0.52732694049E+01  0.89151974208E+02 -0.38825475313E+03  0.39839381923E+03  0.00000000000E+00 0.  1.
         14    1    6    6    0    0  0.17747132824E+02 -0.10965732993E+02 -0.44135441844E+02  0.48817468701E+02  0.00000000000E+00 0. -1.
         -5    1    3    3    0  503 -0.36571663113E+02 -0.33537218415E+02 -0.79327809780E+02  0.93686834541E+02  0.47000000000E+01 0.  1.
         13    1    4    4    0    0  0.54089996252E+02 -0.32010550075E+02 -0.12067281065E+03  0.13606002440E+03  0.00000000000E+00 0. -1.
        -14    1    4    4    0    0  0.51558999466E+02 -0.25617044992E+02 -0.40565587165E+03  0.40972094116E+03  0.00000000000E+00 0.  1.
</event>
<event>
12    1  0.1565987E-001  0.1765458E+03  0.7818608E-02  0.1171288E+00
         21   -1    0    0  503  502  0.00000000000E+00  0.00000000000E+00  0.23090115328E+04  0.23090115328E+04  0.00000000000E+00 0. -1.
         21   -1    0    0  501  503 -0.00000000000E+00 -0.00000000000E+00 -0.16201545029E+02  0.16201545029E+02  0.00000000000E+00 0.  1.
          6    2    1    2  501    0  0.13896194692E+02  0.34282524604E+02  0.66776880638E+03  0.69060998958E+03  0.17221667518E+03 0.  0.
         24    2    3    3    0    0  0.12402417247E+02  0.50382288221E+02  0.18217957918E+03  0.20472891222E+03  0.77668098403E+02 0.  0.
         -6    2    1    2    0  502 -0.13896194692E+02 -0.34282524604E+02  0.16250411814E+04  0.16346030882E+04  0.17262682058E+03 0.  0.
        -24    2    5    5    0    0  0.37468354604E+02  0.28638672289E+02  0.10167209250E+04  0.10208661590E+04  0.78881076258E+02 0.  0.
          5    1    3    3  501    0  0.14937774445E+01 -0.16099763618E+02  0.48558922720E+03  0.48588107736E+03  0.47000000000E+01 0. -1.
        -13    1    4    4    0    0 -0.61765803780E+01 -0.19589396177E+02  0.32252841014E+02  0.38237943737E+02  0.00000000000E+00 0.  1.
         14    1    4    4    0    0  0.18578997625E+02  0.69971684398E+02  0.14992673816E+03  0.16649096848E+03  0.00000000000E+00 0. -1.
         -5    1    5    5    0  502 -0.51364549296E+02 -0.62921196892E+02  0.60832025638E+03  0.61373692920E+03  0.47000000000E+01 0.  1.
         13    1    6    6    0    0  0.20146220833E+02 -0.16496165591E+02  0.11767590766E+03  0.12052225079E+03  0.00000000000E+00 0. -1.
        -14    1    6    6    0    0  0.17322133772E+02  0.45134837880E+02  0.89904501735E+03  0.90034390825E+03  0.00000000000E+00 0.  1.
</event>
<event>
12    1  0.1565987E-001  0.1968588E+03  0.7818608E-02  0.1152513E+00
         21   -1    0    0  503  502  0.00000000000E+00  0.00000000000E+00  0.48982103451E+02  0.48982103451E+02  0.00000000000E+00 0. -1.
         21   -1    0    0  501  503 -0.00000000000E+00 -0.00000000000E+00 -0.85306043887E+03  0.85306043887E+03  0.00000000000E+00 0. -1.
          6    2    1    2  501    0 -0.63207399729E+02  0.71000642245E+02 -0.27838879152E+03  0.34070229908E+03  0.17187632406E+03 0.  0.
         24    2    3    3    0    0 -0.69856765012E+02  0.10714129789E+03 -0.25665818068E+03  0.29775267164E+03  0.80149899736E+02 0.  0.
         -6    2    1    2    0  502  0.63207399729E+02 -0.71000642245E+02 -0.52568954390E+03  0.56134024324E+03  0.17238650046E+03 0.  0.
        -24    2    5    5    0    0  0.84093446453E+02 -0.68873130555E+02 -0.52440273640E+03  0.53978800143E+03  0.67510300680E+02 0.  0.
          5    1    3    3  501    0  0.66493652831E+01 -0.36140655650E+02 -0.21730610845E+02  0.42949627439E+02  0.47000000000E+01 0. -1.
        -13    1    4    4    0    0 -0.31254017870E+02  0.49159858586E+02 -0.19893036292E+03  0.20728433279E+03  0.00000000000E+00 0.  1.
         14    1    4    4    0    0 -0.38602747142E+02  0.57981439309E+02 -0.57727817760E+02  0.90468338852E+02  0.00000000000E+00 0. -1.
         -5    1    5    5    0  502 -0.20886046724E+02 -0.21275116899E+01 -0.12868075044E+01  0.21552241816E+02  0.47000000000E+01 0.  1.
         13    1    6    6    0    0 -0.11685149294E+02 -0.57261862437E+01 -0.63788440257E+02  0.65102204519E+02  0.00000000000E+00 0. -1.
        -14    1    6    6    0    0  0.95778595747E+02 -0.63146944311E+02 -0.46061429614E+03  0.47468579691E+03  0.00000000000E+00 0.  1.
</event>
<event>
12    1  0.1565987E-001  0.2003958E+03  0.7818608E-02  0.1150544E+00
         21   -1    0    0  503  502  0.00000000000E+00  0.00000000000E+00  0.10179052139E+04  0.10179052139E+04  0.00000000000E+00 0.  1.
         21   -1    0    0  501  503 -0.00000000000E+00 -0.00000000000E+00 -0.62023277247E+02  0.62023277247E+02  0.00000000000E+00 0.  1.
          6    2    1    2  501    0  0.94757879608E+02 -0.40768865404E+02  0.14078962298E+03  0.24056328984E+03  0.16555308015E+03 0.  0.
         24    2    3    3    0    0  0.52637636027E+02  0.26130612198E+02  0.28873748360E+02  0.10346147361E+03  0.80106513823E+02 0.  0.
         -6    2    1    2    0  502 -0.94757879608E+02  0.40768865404E+02  0.81509231372E+03  0.83936520135E+03  0.17180601042E+03 0.  0.
        -24    2    5    5    0    0 -0.24744373000E+02  0.53023551711E+02  0.23421604400E+03  0.25413755405E+03  0.79403778743E+02 0.  0.
          5    1    3    3  501    0  0.42120243582E+02 -0.66899477602E+02  0.11191587462E+03  0.13710181623E+03  0.47000000000E+01 0. -1.
        -13    1    4    4    0    0  0.44699754008E+02 -0.22510075631E+02  0.13536817488E+02  0.51846088965E+02  0.00000000000E+00 0.  1.
         14    1    4    4    0    0  0.79378820189E+01  0.48640687829E+02  0.15336930872E+02  0.51615384645E+02  0.00000000000E+00 0. -1.
         -5    1    5    5    0  502 -0.70013506608E+02 -0.12254686307E+02  0.58087626972E+03  0.58522764730E+03  0.47000000000E+01 0.  1.
         11    1    6    6    0    0  0.78635380473E+01  0.22230120536E+02  0.18894878413E+03  0.19041443358E+03  0.00000000000E+00 0. -1.
        -12    1    6    6    0    0 -0.32607911048E+02  0.30793431175E+02  0.45267259868E+02  0.63723120470E+02  0.00000000000E+00 0.  1.
</event>
<event>
12    1  0.1565987E-001  0.2569960E+03  0.7818608E-02  0.1109289E+00
         21   -1    0    0  501  502  0.00000000000E+00  0.00000000000E+00  0.22409640039E+03  0.22409640039E+03  0.00000000000E+00 0.  1.
         21   -1    0    0  502  503 -0.00000000000E+00 -0.00000000000E+00 -0.11779651394E+04  0.11779651394E+04  0.00000000000E+00 0. -1.
         -6    2    1    2    0  503  0.87695902566E+02  0.16891820802E+03 -0.10852970696E+04  0.11153101297E+04  0.17269343879E+03 0.  0.
        -24    2    3    3    0    0  0.36951681789E+02  0.14181415681E+03 -0.49990251310E+03  0.52707677268E+03  0.80191769115E+02 0.  0.
          6    2    1    2  501    0 -0.87695902566E+02 -0.16891820802E+03  0.13142833061E+03  0.28675141008E+03  0.16949640931E+03 0.  0.
         24    2    5    5    0    0 -0.50461902144E+02 -0.10995054116E+03  0.63916772772E+01  0.14350403245E+03  0.76922225146E+02 0.  0.
          5    1    5    5  501    0 -0.37234000422E+02 -0.58967666856E+02  0.12503665333E+03  0.14324737763E+03  0.47000000000E+01 0. -1.
        -13    1    6    6    0    0 -0.18868159511E+02 -0.84843614954E+02  0.35354223398E+02  0.93831591449E+02  0.00000000000E+00 0.  1.
         14    1    6    6    0    0 -0.31593742633E+02 -0.25106926207E+02 -0.28962546121E+02  0.49672441000E+02  0.00000000000E+00 0. -1.
         -5    1    3    3    0  503  0.50744220777E+02  0.27104051212E+02 -0.58539455648E+03  0.58823335700E+03  0.47000000000E+01 0.  1.
         11    1    4    4    0    0  0.34957906471E+02  0.70847650720E+02 -0.37659067694E+03  0.38478823110E+03  0.00000000000E+00 0. -1.
        -12    1    4    4    0    0  0.19937753184E+01  0.70966506086E+02 -0.12331183616E+03  0.14228854158E+03  0.00000000000E+00 0.  1.
</event>
<event>
12    1  0.1565987E-001  0.2032701E+03  0.7818608E-02  0.1147143E+00
         21   -1    0    0  503  502  0.00000000000E+00  0.00000000000E+00  0.48425154395E+03  0.48425154395E+03  0.00000000000E+00 0. -1.
         21   -1    0    0  501  503 -0.00000000000E+00 -0.00000000000E+00 -0.10209082544E+03  0.10209082544E+03  0.00000000000E+00 0.  1.
          6    2    1    2  501    0  0.10551260883E+03  0.27734607783E+02  0.71569563297E+02  0.21550163791E+03  0.17151278220E+03 0.  0.
         24    2    3    3    0    0  0.12791577755E+02 -0.53388141751E+01 -0.20623110368E+02  0.80547497840E+02  0.76618922785E+02 0.  0.
         -6    2    1    2    0  502 -0.10551260883E+03 -0.27734607783E+02  0.31059115522E+03  0.37084073148E+03  0.17074502434E+03 0.  0.
        -24    2    5    5    0    0 -0.76718715380E+02  0.46955466241E+02  0.15725621293E+03  0.19780492598E+03  0.79414703548E+02 0.  0.
          5    1    3    3  501    0  0.92721031076E+02  0.33073421958E+02  0.92192673665E+02  0.13495414007E+03  0.47000000000E+01 0. -1.
        -11    1    4    4    0    0  0.41794432197E+02  0.12701859756E+02 -0.12579181948E+02  0.45457096502E+02  0.00000000000E+00 0.  1.
         12    1    4    4    0    0 -0.29002854441E+02 -0.18040673931E+02 -0.80439284196E+01  0.35090401338E+02  0.00000000000E+00 0. -1.
         -5    1    5    5    0  502 -0.28793893451E+02 -0.74690074024E+02  0.15333494229E+03  0.17303580550E+03  0.47000000000E+01 0.  1.
         13    1    6    6    0    0 -0.24043842410E+02  0.91356988687E+01  0.12060682224E+03  0.12331898849E+03  0.00000000000E+00 0. -1.
        -14    1    6    6    0    0 -0.52674872970E+02  0.37819767372E+02  0.36649390688E+02  0.74485937494E+02  0.00000000000E+00 0.  1.
</event>
<event>
12    1  0.1565987E-001  0.2236326E+03  0.7818608E-02  0.1132432E+00
         21   -1    0    0  501  502  0.00000000000E+00  0.00000000000E+00  0.18685062453E+03  0.18685062453E+03  0.00000000000E+00 0. -1.
         21   -1    0    0  502  503 -0.00000000000E+00 -0.00000000000E+00 -0.41833786401E+03  0.41833786401E+03  0.00000000000E+00 0. -1.
         -6    2    1    2    0  503  0.56286905817E+02  0.13098306947E+03 -0.30093919489E+03  0.37101955042E+03  0.16360417941E+03 0.  0.
        -24    2    3    3    0    0  0.15750293787E+02  0.15002869271E+03 -0.25250290313E+03  0.30488244254E+03  0.80242802086E+02 0.  0.
          6    2    1    2  501    0 -0.56286905817E+02 -0.13098306947E+03  0.69451955415E+02  0.23416893811E+03  0.17229839585E+03 0.  0.
         24    2    5    5    0    0 -0.17856006078E+01 -0.46444942842E+02  0.92164377985E+02  0.13094572724E+03  0.80574126301E+02 0.  0.
          5    1    5    5  501    0 -0.54501305209E+02 -0.84538126624E+02 -0.22712422570E+02  0.10322321087E+03  0.47000000000E+01 0. -1.
        -13    1    6    6    0    0  0.13099935037E+02 -0.97108760823E+01 -0.11505680060E+02  0.19957206365E+02  0.00000000000E+00 0.  1.
         14    1    6    6    0    0 -0.14885535645E+02 -0.36734066759E+02  0.10367005804E+03  0.11098852088E+03  0.00000000000E+00 0. -1.
         -5    1    3    3    0  503  0.40536612030E+02 -0.19045623248E+02 -0.48436291761E+02  0.66137107885E+02  0.47000000000E+01 0.  1.
         11    1    4    4    0    0 -0.29580422114E+02  0.60519661144E+02 -0.73654079728E+02  0.99812595488E+02  0.00000000000E+00 0. -1.
        -12    1    4    4    0    0  0.45330715901E+02  0.89509031570E+02 -0.17884882340E+03  0.20506984705E+03  0.00000000000E+00 0.  1.
</event>
<event>
12    1  0.1565987E-001  0.2132938E+03  0.7818608E-02  0.1139126E+00
         21   -1    0    0  503  502  0.00000000000E+00  0.00000000000E+00  0.31059287271E+03  0.31059287271E+03  0.00000000000E+00 0. -1.
         21   -1    0    0  501  503 -0.00000000000E+00 -0.00000000000E+00 -0.42770321830E+03  0.42770321830E+03  0.00000000000E+00 0. -1.
          6    2    1    2  501    0 -0.10464599179E+03  0.68391558612E+02 -0.35812327306E+03  0.41645534618E+03  0.17191447808E+03 0.  0.
         24    2    3    3    0    0 -0.11446984263E+02 -0.17804345829E+02 -0.11062471895E+03  0.13825862940E+03  0.80184736583E+02 0.  0.
         -6    2    1    2    0  502  0.10464599179E+03 -0.68391558612E+02  0.24101292747E+03  0.32184074484E+03  0.17281795319E+03 0.  0.
        -24    2    5    5    0    0  0.95721276801E+02 -0.11817640504E+02  0.54501660967E+02  0.12667722038E+03  0.61436696319E+02 0.  0.
          5    1    3    3  501    0 -0.93199007523E+02  0.86195904441E+02 -0.24749855411E+03  0.27819671679E+03  0.47000000000E+01 0. -1.
        -11    1    4    4    0    0 -0.40450277967E+02 -0.14434745973E+01 -0.28114463017E+02  0.49282163480E+02  0.00000000000E+00 0.  1.
         12    1    4    4    0    0  0.29003293704E+02 -0.16360871232E+02 -0.82510255932E+02  0.88976465917E+02  0.00000000000E+00 0. -1.
         -5    1    5    5    0  502  0.89247149849E+01 -0.56573918109E+02  0.18651126650E+03  0.19516352446E+03  0.47000000000E+01 0.  1.
         11    1    6    6    0    0  0.77010781440E+01 -0.22483074282E+02  0.21571312314E+02  0.32095431898E+02  0.00000000000E+00 0. -1.
        -12    1    6    6    0    0  0.88020198657E+02  0.10665433779E+02  0.32930348653E+02  0.94581788478E+02  0.00000000000E+00 0.  1.
</event>
<event>
12    1  0.1565987E-001  0.1762698E+03  0.7818608E-02  0.1172718E+00
         21   -1    0    0  503  502  0.00000000000E+00  0.00000000000E+00  0.45540631522E+03  0.45540631522E+03  0.00000000000E+00 0. -1.
         21   -1    0    0  501  503 -0.00000000000E+00 -0.00000000000E+00 -0.74653142259E+02  0.74653142259E+02  0.00000000000E+00 0. -1.
          6    2    1    2  501    0 -0.10588414096E+02 -0.29073339021E+02  0.10423606029E+03  0.20478332576E+03  0.17353293834E+03 0.  0.
         24    2    3    3    0    0  0.33897770508E+02  0.37137372887E+02  0.39976817596E+02  0.10224445867E+03  0.79545836307E+02 0.  0.
         -6    2    1    2    0  502  0.10588414096E+02  0.29073339021E+02  0.27651711268E+03  0.32527613172E+03  0.16847989408E+03 0.  0.
        -24    2    5    5    0    0  0.26990271855E+02  0.79708760404E+02  0.21129079378E+03  0.24095810569E+03  0.79593014163E+02 0.  0.
          5    1    3    3  501    0 -0.44486184604E+02 -0.66210711909E+02  0.64259242689E+02  0.10253886709E+03  0.47000000000E+01 0. -1.
        -13    1    4    4    0    0 -0.24572647691E+02 -0.26330989212E+00  0.81880210941E+01  0.25902278589E+02  0.00000000000E+00 0.  1.
         14    1    4    4    0    0  0.58470418200E+02  0.37400682780E+02  0.31788796502E+02  0.76342180084E+02  0.00000000000E+00 0. -1.
         -5    1    5    5    0  502 -0.16401857759E+02 -0.50635421383E+02  0.65226318899E+02  0.84318026030E+02  0.47000000000E+01 0.  1.
         11    1    6    6    0    0 -0.11244076811E+02  0.59748515894E+02  0.17267811981E+03  0.18306842293E+03  0.00000000000E+00 0. -1.
        -12    1    6    6    0    0  0.38234348666E+02  0.19960244510E+02  0.38612673969E+02  0.57889682758E+02  0.00000000000E+00 0.  1.
</event>
<event>
12    1  0.1565987E-001  0.1886990E+03  0.7818608E-02  0.1159880E+00
         21   -1    0    0  501  502  0.00000000000E+00  0.00000000000E+00  0.82046300867E+03  0.82046300867E+03  0.00000000000E+00 0. -1.
         21   -1    0    0  502  503 -0.00000000000E+00 -0.00000000000E+00 -0.55372954584E+02  0.55372954584E+02  0.00000000000E+00 0. -1.
         -6    2    1    2    0  503  0.43286016093E+02  0.62591555654E+02  0.17603306376E+03  0.25729296292E+03  0.17152447989E+03 0.  0.
        -24    2    3    3    0    0  0.46190131538E+02  0.10278276029E+03  0.16344614929E+03  0.21481606058E+03  0.82057736385E+02 0.  0.
          6    2    1    2  501    0 -0.43286016093E+02 -0.62591555654E+02  0.58905699033E+03  0.61854300034E+03  0.17267287970E+03 0.  0.
         24    2    5    5    0    0 -0.92361810386E+02 -0.62242602046E+02  0.38816240127E+03  0.41168729878E+03  0.80072071853E+02 0.  0.
          5    1    5    5  501    0  0.49075794293E+02 -0.34895360847E+00  0.20089458906E+03  0.20685570155E+03  0.47000000000E+01 0. -1.
        -11    1    6    6    0    0 -0.20829004843E+02 -0.20416218834E+02  0.22728748053E+02  0.36976552331E+02  0.00000000000E+00 0.  1.
         12    1    6    6    0    0 -0.71532805543E+02 -0.41826383212E+02  0.36543365322E+03  0.37471074645E+03  0.00000000000E+00 0. -1.
         -5    1    3    3    0  503 -0.29041154454E+01 -0.40191204632E+02  0.12586914465E+02  0.42476902336E+02  0.47000000000E+01 0.  1.
         13    1    4    4    0    0  0.59333649785E+02  0.62533678439E+02  0.65996592249E+02  0.10856561668E+03  0.00000000000E+00 0. -1.
        -14    1    4    4    0    0 -0.13143518247E+02  0.40249081848E+02  0.97449557043E+02  0.10625044390E+03  0.00000000000E+00 0.  1.
</event>
<event>
12    1  0.1565987E-001  0.2135754E+03  0.7818608E-02  0.1138900E+00
         21   -1    0    0  501  502  0.00000000000E+00  0.00000000000E+00  0.56787564266E+03  0.56787564266E+03  0.00000000000E+00 0. -1.
         21   -1    0    0  502  503 -0.00000000000E+00 -0.00000000000E+00 -0.80945678640E+02  0.80945678640E+02  0.00000000000E+00 0. -1.
         -6    2    1    2    0  503 -0.72838893183E+02  0.10098212588E+03  0.20920495944E+03  0.29847058337E+03  0.17267043747E+03 0.  0.
        -24    2    3    3    0    0  0.19756280337E+02  0.92472604679E+01  0.95172788804E+02  0.12522342573E+03  0.78404235747E+02 0.  0.
          6    2    1    2  501    0  0.72838893183E+02 -0.10098212588E+03  0.27772500457E+03  0.35035073792E+03  0.17352684890E+03 0.  0.
         24    2    5    5    0    0  0.28004646344E+02 -0.61508287685E+02  0.52004376259E+02  0.11681233500E+03  0.79831928374E+02 0.  0.
          5    1    5    5  501    0  0.44834246839E+02 -0.39473838198E+02  0.22572062831E+03  0.23353840292E+03  0.47000000000E+01 0. -1.
        -11    1    6    6    0    0  0.34046144802E+02 -0.36943389110E+01  0.47433612940E+02  0.58504151582E+02  0.00000000000E+00 0.  1.
         12    1    6    6    0    0 -0.60414984578E+01 -0.57813948774E+02  0.45707633190E+01  0.58308183420E+02  0.00000000000E+00 0. -1.
         -5    1    3    3    0  503 -0.92595173520E+02  0.91734865415E+02  0.11403217064E+03  0.17324715765E+03  0.47000000000E+01 0.  1.
         13    1    4    4    0    0 -0.11691903614E+02  0.34770934019E+02  0.25646393616E+02  0.44759981771E+02  0.00000000000E+00 0. -1.
        -14    1    4    4    0    0  0.31448183951E+02 -0.25523673551E+02  0.69526395188E+02  0.80463443956E+02  0.00000000000E+00 0.  1.
</event>
<event>
12    1  0.1565987E-001  0.1878346E+03  0.7818608E-02  0.1160694E+00
         21   -1    0    0  503  502  0.00000000000E+00  0.00000000000E+00  0.84556964775E+03  0.84556964775E+03  0.00000000000E+00 0. -1.
         21   -1    0    0  501  503 -0.00000000000E+00 -0.00000000000E+00 -0.61676670301E+02  0.61676670301E+02  0.00000000000E+00 0. -1.
          6    2    1    2  501    0  0.13746341779E+02  0.75196549199E+02  0.13148662345E+03  0.22833846484E+03  0.17031218234E+03 0.  0.
         24    2    3    3    0    0  0.35557771861E+02 -0.15525389369E+02  0.41270936923E+02  0.98464800395E+02  0.80539641342E+02 0.  0.
         -6    2    1    2    0  502 -0.13746341779E+02 -0.75196549199E+02  0.65240635400E+03  0.67890785321E+03  0.17157604581E+03 0.  0.
        -24    2    5    5    0    0 -0.75324119097E+01  0.25991694836E+02  0.29310373641E+03  0.30554725719E+03  0.81957431952E+02 0.  0.
          5    1    3    3  501    0 -0.21811430082E+02  0.90721938569E+02  0.90215686531E+02  0.12987366444E+03  0.47000000000E+01 0. -1.
        -11    1    4    4    0    0 -0.16845134946E+02 -0.18030222547E+02 -0.85510120590E+01  0.26114503703E+02  0.00000000000E+00 0.  1.
         12    1    4    4    0    0  0.52402906806E+02  0.25048331780E+01  0.49821948982E+02  0.72350296691E+02  0.00000000000E+00 0. -1.
         -5    1    5    5    0  502 -0.62139298691E+01 -0.10118824404E+03  0.35930261759E+03  0.37336059602E+03  0.47000000000E+01 0.  1.
         13    1    6    6    0    0  0.34410530419E+02 -0.34490707231E+01  0.10259441010E+03  0.10826630905E+03  0.00000000000E+00 0. -1.
        -14    1    6    6    0    0 -0.41942942329E+02  0.29440765560E+02  0.19050932631E+03  0.19728094814E+03  0.00000000000E+00 0.  1.
</event>
<event>
12    1  0.1565987E-001  0.2595938E+03  0.7818608E-02  0.1107513E+00
         21   -1    0    0  503  502  0.00000000000E+00  0.00000000000E+00  0.37097389827E+03  0.37097389827E+03  0.00000000000E+00 0.  1.
         21   -1    0    0  501  503 -0.00000000000E+00 -0.00000000000E+00 -0.31469346781E+03  0.31469346781E+03  0.00000000000E+00 0. -1.
          6    2    1    2  501    0  0.19390504016E+03 -0.75094010012E+01 -0.19523238139E+03  0.32481474392E+03  0.17243369573E+03 0.  0.
         24    2    3    3    0    0  0.17332024593E+03  0.45762105158E+02 -0.17877144226E+03  0.26519394521E+03  0.78958989919E+02 0.  0.
         -6    2    1    2    0  502 -0.19390504016E+03  0.75094010012E+01  0.25151281185E+03  0.36085262216E+03  0.17117349295E+03 0.  0.
        -24    2    5    5    0    0 -0.21558565180E+03  0.22198638938E+02  0.22810160412E+03  0.32541257024E+03  0.83024371348E+02 0.  0.
          5    1    3    3  501    0  0.20584794230E+02 -0.53271506159E+02 -0.16460939127E+02  0.59620798711E+02  0.47000000000E+01 0. -1.
        -13    1    4    4    0    0  0.11884641354E+03  0.51312580186E+02 -0.79758103926E+02  0.15204869627E+03  0.00000000000E+00 0.  1.
         14    1    4    4    0    0  0.54473832394E+02 -0.55504750279E+01 -0.99013338337E+02  0.11314524894E+03  0.00000000000E+00 0. -1.
         -5    1    5    5    0  502  0.21680611638E+02 -0.14689237937E+02  0.23411207731E+02  0.35440051913E+02  0.47000000000E+01 0.  1.
         11    1    6    6    0    0 -0.15900374581E+03  0.14724691568E+02  0.10899062233E+03  0.19333381360E+03  0.00000000000E+00 0. -1.
        -12    1    6    6    0    0 -0.56581905985E+02  0.74739473703E+01  0.11911098179E+03  0.13207875664E+03  0.00000000000E+00 0.  1.
</event>
<event>
12    1  0.1565987E-001  0.1844347E+03  0.7818608E-02  0.1164379E+00
         21   -1    0    0  501  502  0.00000000000E+00  0.00000000000E+00  0.71015217453E+03  0.71015217453E+03  0.00000000000E+00 0.  1.
         21   -1    0    0  502  503 -0.00000000000E+00 -0.00000000000E+00 -0.47159729804E+02  0.47159729804E+02  0.00000000000E+00 0.  1.
         -6    2    1    2    0  503 -0.56106689006E+01  0.60249219857E+02  0.35470774183E+03  0.39979214131E+03  0.17422607739E+03 0.  0.
        -24    2    3    3    0    0 -0.48887239092E+02  0.69728631298E+02  0.14924816205E+03  0.18955786796E+03  0.80032038973E+02 0.  0.
          6    2    1    2  501    0  0.56106689006E+01 -0.60249219857E+02  0.30828470290E+03  0.35751976302E+03  0.17064429323E+03 0.  0.
         24    2    5    5    0    0  0.36408879203E+02  0.22714218146E+02  0.10471554900E+03  0.13549734924E+03  0.74516060401E+02 0.  0.
          5    1    5    5  501    0 -0.30798210303E+02 -0.82963438004E+02  0.20356915390E+03  0.22202241378E+03  0.47000000000E+01 0. -1.
        -11    1    6    6    0    0  0.15832706522E+02 -0.27038852423E+02  0.29796320234E+02  0.43238811682E+02  0.00000000000E+00 0.  1.
         12    1    6    6    0    0  0.20576172681E+02  0.49753070570E+02  0.74919228766E+02  0.92258537557E+02  0.00000000000E+00 0. -1.
         -5    1    3    3    0  503  0.43276570191E+02 -0.94794114410E+01  0.20545957978E+03  0.21023427335E+03  0.47000000000E+01 0.  1.
         11    1    4    4    0    0 -0.18930584283E+02 -0.12241945274E+02  0.87953858914E+01  0.24198988788E+02  0.00000000000E+00 0. -1.
        -12    1    4    4    0    0 -0.29956654809E+02  0.81970576572E+02  0.14045277616E+03  0.16535887918E+03  0.00000000000E+00 0.  1.
</event>
<event>
12    1  0.1565987E-001  0.1876944E+03  0.7818608E-02  0.1160875E+00
         21   -1    0    0  503  502  0.00000000000E+00  0.00000000000E+00  0.17899299808E+03  0.17899299808E+03  0.00000000000E+00 0.  1.
         21   -1    0    0  501  503 -0.00000000000E+00 -0.00000000000E+00 -0.31003413214E+03  0.31003413214E+03  0.00000000000E+00 0.  1.
          6    2    1    2  501    0 -0.62448545344E+01 -0.72214654364E+02 -0.21437172572E+03  0.28492882940E+03  0.17313360888E+03 0.  0.
         24    2    3    3    0    0 -0.33110528481E+02 -0.20280065673E+02 -0.33254243658E+02  0.94548687983E+02  0.79536290572E+02 0.  0.
         -6    2    1    2    0  502  0.62448545344E+01  0.72214654364E+02  0.83330591659E+02  0.20409830082E+03  0.17163383810E+03 0.  0.
        -24    2    5    5    0    0 -0.79851933381E+01  0.22637133564E+02 -0.22736709750E+02  0.86061072547E+02  0.79456573731E+02 0.  0.
          5    1    3    3  501    0  0.26865673946E+02 -0.51934588691E+02 -0.18111748206E+03  0.19038014142E+03  0.47000000000E+01 0. -1.
        -13    1    4    4    0    0 -0.94679267683E+01 -0.83658470938E+00 -0.55754025964E+02  0.56558402757E+02  0.00000000000E+00 0.  1.
         14    1    4    4    0    0 -0.23642601712E+02 -0.19443480963E+02  0.22499782306E+02  0.37990285225E+02  0.00000000000E+00 0. -1.
         -5    1    5    5    0  502  0.14230047872E+02  0.49577520800E+02  0.10606730141E+03  0.11803722828E+03  0.47000000000E+01 0.  1.
         13    1    6    6    0    0 -0.39324109629E+02  0.27027787097E+02 -0.25840317466E+02  0.54264250480E+02  0.00000000000E+00 0. -1.
        -14    1    6    6    0    0  0.31338916291E+02 -0.43906535325E+01  0.31036077161E+01  0.31796822067E+02  0.00000000000E+00 0.  1.
</event>
<event>
12    1  0.1565987E-001  0.1883481E+03  0.7818608E-02  0.1160250E+00
         21   -1    0    0  503  502  0.00000000000E+00  0.00000000000E+00  0.64671937998E+03  0.64671937998E+03  0.00000000000E+00 0. -1.
         21   -1    0    0  501  503 -0.00000000000E+00 -0.00000000000E+00 -0.70797627153E+02  0.70797627153E+02  0.00000000000E+00 0. -1.
          6    2    1    2  501    0  0.14366349138E+02 -0.72179563566E+02  0.46091819846E+03  0.49791626924E+03  0.17337457750E+03 0.  0.
         24    2    3    3    0    0  0.18956654581E+02 -0.73980587636E+02  0.47204530699E+03  0.48486954031E+03  0.80244732962E+02 0.  0.
         -6    2    1    2    0  502 -0.14366349138E+02  0.72179563566E+02  0.11500355437E+03  0.21960073789E+03  0.17199530569E+03 0.  0.
        -24    2    5    5    0    0  0.20831874016E+02  0.84980217134E+02  0.22928254718E+02  0.12008831429E+03  0.78993000227E+02 0.  0.
          5    1    3    3  501    0 -0.45903054422E+01  0.18010240702E+01 -0.11127108530E+02  0.13046728938E+02  0.47000000000E+01 0. -1.
        -13    1    4    4    0    0 -0.13418337810E+02 -0.36170927904E+02  0.71510220476E+02  0.81253304225E+02  0.00000000000E+00 0.  1.
         14    1    4    4    0    0  0.32374992391E+02 -0.37809659732E+02  0.40053508651E+03  0.40361623608E+03  0.00000000000E+00 0. -1.
         -5    1    5    5    0  502 -0.35198223154E+02 -0.12800653568E+02  0.92075299651E+02  0.99512423600E+02  0.47000000000E+01 0.  1.
         11    1    6    6    0    0 -0.23276648870E+02  0.32260696398E+02 -0.13857885722E+02  0.42125952944E+02  0.00000000000E+00 0. -1.
        -12    1    6    6    0    0  0.44108522886E+02  0.52719520736E+02  0.36786140441E+02  0.77962361344E+02  0.00000000000E+00 0.  1.
</event>
<event>
12    1  0.1565987E-001  0.3126292E+03  0.7818608E-02  0.1079107E+00
         21   -1    0    0  501  502  0.00000000000E+00  0.00000000000E+00  0.15679704883E+04  0.15679704883E+04  0.00000000000E+00 0. -1.
         21   -1    0    0  502  503 -0.00000000000E+00 -0.00000000000E+00 -0.86093125332E+02  0.86093125332E+02  0.00000000000E+00 0. -1.
         -6    2    1    2    0  503 -0.20144157942E+03  0.16572296263E+03  0.30635476493E+03  0.43771026627E+03  0.17232012344E+03 0.  0.
        -24    2    3    3    0    0 -0.19954095908E+03  0.17082655059E+03  0.22260202098E+03  0.35364915108E+03  0.80732630212E+02 0.  0.
          6    2    1    2  501    0  0.20144157942E+03 -0.16572296263E+03  0.11755225980E+04  0.12163533473E+04  0.17210251848E+03 0.  0.
         24    2    5    5    0    0  0.12518552886E+03 -0.13357926942E+03  0.10288581831E+04  0.10478874966E+04  0.77486816662E+02 0.  0.
          5    1    5    5  501    0  0.76256050561E+02 -0.32143693208E+02  0.14666441493E+03  0.16846585075E+03  0.47000000000E+01 0. -1.
        -13    1    6    6    0    0  0.21808053524E+02 -0.18043761165E+02  0.55927096239E+02  0.62681804450E+02  0.00000000000E+00 0.  1.
         14    1    6    6    0    0  0.10337747534E+03 -0.11553550825E+03  0.97293108683E+03  0.98520569212E+03  0.00000000000E+00 0. -1.
         -5    1    3    3    0  503 -0.19006203418E+01 -0.51035879589E+01  0.83752743951E+02  0.84061115191E+02  0.47000000000E+01 0.  1.
         13    1    4    4    0    0 -0.10863318638E+03  0.53926748412E+02  0.13547938261E+03  0.18183488799E+03  0.00000000000E+00 0. -1.
        -14    1    4    4    0    0 -0.90907772699E+02  0.11689980217E+03  0.87122638367E+02  0.17181426309E+03  0.00000000000E+00 0.  1.
</event>
<event>
12    1  0.1565987E-001  0.1817977E+03  0.7818608E-02  0.1166164E+00
         21   -1    0    0  501  502  0.00000000000E+00  0.00000000000E+00  0.78559245468E+03  0.78559245468E+03  0.00000000000E+00 0.  1.
         21   -1    0    0  502  503 -0.00000000000E+00 -0.00000000000E+00 -0.45830578577E+02  0.45830578577E+02  0.00000000000E+00 0.  1.
         -6    2    1    2    0  503  0.38635808620E+01 -0.59870381754E+02  0.24979525556E+03  0.30894669422E+03  0.17161293746E+03 0.  0.
        -24    2    3    3    0    0 -0.59639932736E+02 -0.15259116531E+02  0.17010570989E+03  0.19761217615E+03  0.79528972166E+02 0.  0.
          6    2    1    2  501    0 -0.38635808620E+01  0.59870381754E+02  0.48996662054E+03  0.52247633903E+03  0.17121578705E+03 0.  0.
         24    2    5    5    0    0  0.43811537762E+02  0.68097424071E+02  0.42697287694E+03  0.44290936791E+03  0.85476081634E+02 0.  0.
          5    1    5    5  501    0 -0.47675118624E+02 -0.82270423169E+01  0.62993743601E+02  0.79566971125E+02  0.47000000000E+01 0. -1.
        -11    1    6    6    0    0 -0.20107432136E+02  0.15622121405E+02  0.19460217053E+03  0.19626095964E+03  0.00000000000E+00 0.  1.
         12    1    6    6    0    0  0.63918969898E+02  0.52475302666E+02  0.23237070641E+03  0.24664840826E+03  0.00000000000E+00 0. -1.
         -5    1    3    3    0  503  0.63503513598E+02 -0.44611265223E+02  0.79689545672E+02  0.11133451807E+03  0.47000000000E+01 0.  1.
         11    1    4    4    0    0  0.17392105896E+01 -0.35254442360E+02  0.49194850288E+02  0.60547781581E+02  0.00000000000E+00 0. -1.
        -12    1    4    4    0    0 -0.61379143326E+02  0.19995325828E+02  0.12091085960E+03  0.13706439457E+03  0.00000000000E+00 0.  1.
</event>
<event>
12    1  0.1565987E-001  0.1993288E+03  0.7818608E-02  0.1150853E+00
         21   -1    0    0  501  502  0.00000000000E+00  0.00000000000E+00  0.23529190305E+02  0.23529190305E+02  0.00000000000E+00 0.  1.
         21   -1    0    0  502  503 -0.00000000000E+00 -0.00000000000E+00 -0.17368537144E+04  0.17368537144E+04  0.00000000000E+00 0.  1.
         -6    2    1    2    0  503 -0.32869332360E+02 -0.95678864442E+02 -0.10384732538E+04  0.10574302132E+04  0.17174725271E+03 0.  0.
        -24    2    3    3    0    0 -0.42956459438E+02 -0.15249267820E+02 -0.80219897044E+03  0.80759367239E+03  0.81280710696E+02 0.  0.
          6    2    1    2  501    0  0.32869332360E+02  0.95678864442E+02 -0.67485127032E+03  0.70295269153E+03  0.16877029172E+03 0.  0.
         24    2    5    5    0    0  0.74550391382E+01  0.11306025561E+03 -0.64546892912E+03  0.66013434227E+03  0.79429291701E+02 0.  0.
          5    1    5    5  501    0  0.25414293222E+02 -0.17381391168E+02 -0.29382341201E+02  0.42818349261E+02  0.47000000000E+01 0. -1.
        -13    1    6    6    0    0  0.15945962577E+02  0.40788373272E+02 -0.43973070694E+03  0.44190616622E+03  0.00000000000E+00 0.  1.
         14    1    6    6    0    0 -0.84909234385E+01  0.72271882338E+02 -0.20573822218E+03  0.21822817606E+03  0.00000000000E+00 0. -1.
         -5    1    3    3    0  503  0.10087127078E+02 -0.80429596621E+02 -0.23627428332E+03  0.24983654077E+03  0.47000000000E+01 0.  1.
         11    1    4    4    0    0  0.13252230129E+02 -0.12659907410E+02 -0.49143884761E+03  0.49178047521E+03  0.00000000000E+00 0. -1.
        -12    1    4    4    0    0 -0.56208689567E+02 -0.25893604097E+01 -0.31076012284E+03  0.31581319718E+03  0.00000000000E+00 0.  1.
</event>
<event>
12    1  0.1565987E-001  0.2050853E+03  0.7818608E-02  0.1145647E+00
         21   -1    0    0  503  502  0.00000000000E+00  0.00000000000E+00  0.92967613777E+02  0.92967613777E+02  0.00000000000E+00 0. -1.
         21   -1    0    0  501  503 -0.00000000000E+00 -0.00000000000E+00 -0.57013670050E+03  0.57013670050E+03  0.00000000000E+00 0.  1.
          6    2    1    2  501    0  0.89997202657E+02 -0.65097737420E+02 -0.39041551550E+03  0.44100369138E+03  0.17240292677E+03 0.  0.
         24    2    3    3    0    0  0.11845252966E+03 -0.11633771880E+02 -0.28477701720E+03  0.31914441364E+03  0.81171798077E+02 0.  0.
         -6    2    1    2    0  502 -0.89997202657E+02  0.65097737420E+02 -0.86753571218E+02  0.22210062290E+03  0.17165457369E+03 0.  0.
        -24    2    5    5    0    0 -0.69300652842E+02  0.97856469108E+02 -0.21618255518E+02  0.14616524888E+03  0.80736992623E+02 0.  0.
          5    1    3    3  501    0 -0.28455327002E+02 -0.53463965541E+02 -0.10563849830E+03  0.12185927773E+03  0.47000000000E+01 0. -1.
        -13    1    4    4    0    0  0.43480135233E+01 -0.28285627139E+02 -0.62313115459E+02  0.68570447588E+02  0.00000000000E+00 0.  1.
         14    1    4    4    0    0  0.11410451614E+03  0.16651855260E+02 -0.22246390174E+03  0.25057396606E+03  0.00000000000E+00 0. -1.
         -5    1    5    5    0  502 -0.20696549815E+02 -0.32758731687E+02 -0.65135315700E+02  0.75935374019E+02  0.47000000000E+01 0.  1.
         11    1    6    6    0    0  0.42833951034E+01  0.10623309763E+02  0.21343488070E+02  0.24222854228E+02  0.00000000000E+00 0. -1.
        -12    1    6    6    0    0 -0.73584047945E+02  0.87233159345E+02 -0.42961743588E+02  0.12194239465E+03  0.00000000000E+00 0.  1.
</event>
