<event>
12    1  0.8344842E-002  0.1910676E+03  0.7818608E-02  0.1157603E+00
         21   -1    0    0  503  502  0.00000000000E+00  0.00000000000E+00  0.57093863741E+03  0.57093863741E+03  0.00000000000E+00 0. -1.
         21   -1    0    0  501  503 -0.00000000000E+00 -0.00000000000E+00 -0.29027133313E+03  0.29027133313E+03  0.00000000000E+00 0. -1.
          6    2    1    2  501    0  0.73380286184E+02  0.38956579111E+02 -0.24006057719E+03  0.30653496665E+03  0.17155851364E+03 0.  0.
         24    2    3    3    0    0  0.60859711141E+02 -0.36032266374E+02 -0.17717297900E+03  0.20775727812E+03  0.82283615997E+02 0.  0.
         -6    2    1    2    0  502 -0.73380286184E+02 -0.38956579111E+02  0.52072788146E+03  0.55467500390E+03  0.17205973370E+03 0.  0.
        -24    2    5    5    0    0 -0.63581279163E+02 -0.34586232627E+02  0.52925873388E+03  0.54018411331E+03  0.80282515785E+02 0.  0.
          5    1    3    3  501    0  0.12520575043E+02  0.74988845486E+02 -0.62887598184E+02  0.98777688533E+02  0.47000000000E+01 0. -1.
        -13    1    4    4    0    0 -0.45933172814E+01 -0.41019500462E+01  0.72284228935E+01  0.94960336645E+01  0.00000000000E+00 0.  1.
         14    1    4    4    0    0  0.65453028422E+02 -0.31930316328E+02 -0.18440140190E+03  0.19826124445E+03  0.00000000000E+00 0. -1.
         -5    1    5    5    0  502 -0.97990070208E+01 -0.43703464844E+01 -0.85308524163E+01  0.14490890585E+02  0.47000000000E+01 0.  1.
         13    1    6    6    0    0 -0.55164016913E+01 -0.46841214724E+02  0.28102417063E+03  0.28495458333E+03  0.00000000000E+00 0. -1.
        -14    1    6    6    0    0 -0.58064877472E+02  0.12254982097E+02  0.24823456325E+03  0.25522952998E+03  0.00000000000E+00 0.  1.
</event>
<event>
12    1  0.8344842E-002  0.2287837E+03  0.7818608E-02  0.1127505E+00
         21   -1    0    0  503  502  0.00000000000E+00  0.00000000000E+00  0.11149111575E+04  0.11149111575E+04  0.00000000000E+00 0. -1.
         21   -1    0    0  501  503 -0.00000000000E+00 -0.00000000000E+00 -0.54775658321E+02  0.54775658321E+02  0.00000000000E+00 0.  1.
          6    2    1    2  501    0  0.16628910611E+01 -0.15102296184E+03  0.30890306088E+03  0.38439962443E+03  0.17184664685E+03 0.  0.
         24    2    3    3    0    0  0.52356142816E+02 -0.14610828701E+03  0.26426080931E+03  0.31651015229E+03  0.79095536829E+02 0.  0.
         -6    2    1    2    0  502 -0.16628910611E+01  0.15102296184E+03  0.75123243828E+03  0.78528719137E+03  0.17179958205E+03 0.  0.
        -24    2    5    5    0    0  0.32747830009E+02  0.48065409977E+02  0.52111821270E+03  0.53080929051E+03  0.82532461975E+02 0.  0.
          5    1    3    3  501    0 -0.50693251755E+02 -0.49146748339E+01  0.44642251571E+02  0.67889472141E+02  0.47000000000E+01 0. -1.
        -11    1    4    4    0    0 -0.10883579249E+02 -0.16068782980E+02  0.56423407757E+01  0.20211236804E+02  0.00000000000E+00 0.  1.
         12    1    4    4    0    0  0.63239722065E+02 -0.13003950403E+03  0.25861846853E+03  0.29629891549E+03  0.00000000000E+00 0. -1.
         -5    1    5    5    0  502 -0.34410721070E+02  0.10295755186E+03  0.23011422558E+03  0.25447790086E+03  0.47000000000E+01 0.  1.
         13    1    6    6    0    0  0.44738816088E+02  0.54350268631E+02  0.26062860879E+03  0.26996811864E+03  0.00000000000E+00 0. -1.
        -14    1    6    6    0    0 -0.11990986079E+02 -0.62848586543E+01  0.26048960391E+03  0.26084117187E+03  0.00000000000E+00 0.  1.
</event>
<event>
12    1  0.8344842E-002  0.2961044E+03  0.7818608E-02  0.1087309E+00
         21   -1    0    0  503  502  0.00000000000E+00  0.00000000000E+00  0.49188091561E+03  0.49188091561E+03  0.00000000000E+00 0.  1.
         21   -1    0    0  501  503 -0.00000000000E+00 -0.00000000000E+00 -0.67454734385E+03  0.67454734385E+03  0.00000000000E+00 0. -1.
          6    2    1    2  501    0  0.23565513136E+03 -0.48856913851E+02 -0.59187298867E+03  0.66180920999E+03  0.17250349777E+03 0.  0.
         24    2    3    3    0    0  0.11538962337E+03 -0.48379433921E+02 -0.19080666279E+03  0.24307264824E+03  0.83796151137E+02 0.  0.
         -6    2    1    2    0  502 -0.23565513136E+03  0.48856913851E+02  0.40920656042E+03  0.50461904948E+03  0.17108488255E+03 0.  0.
        -24    2    5    5    0    0 -0.97308512111E+02  0.27304205374E+02  0.93305471858E+02  0.15904721316E+03  0.79847597176E+02 0.  0.
          5    1    3    3  501    0  0.12026550799E+03 -0.47747992920E+00 -0.40106632587E+03  0.41873656175E+03  0.47000000000E+01 0. -1.
        -11    1    4    4    0    0  0.84988897398E+01 -0.94131550983E+01  0.72909649463E+01  0.14628628971E+02  0.00000000000E+00 0.  1.
         12    1    4    4    0    0  0.10689073363E+03 -0.38966278823E+02 -0.19809762774E+03  0.22844401927E+03  0.00000000000E+00 0. -1.
         -5    1    5    5    0  502 -0.13834661925E+03  0.21552708476E+02  0.31590108856E+03  0.34557183632E+03  0.47000000000E+01 0.  1.
         11    1    6    6    0    0 -0.10324100238E+03  0.12328529153E+02  0.55292681272E+02  0.11776237857E+03  0.00000000000E+00 0. -1.
        -12    1    6    6    0    0  0.59324902707E+01  0.14975676221E+02  0.38012790585E+02  0.41284834591E+02  0.00000000000E+00 0.  1.
</event>
<event>
12    1  0.8344842E-002  0.2095864E+03  0.7818608E-02  0.1142502E+00
         21   -1    0    0  503  502  0.00000000000E+00  0.00000000000E+00  0.83627863616E+02  0.83627863616E+02  0.00000000000E+00 0. -1.
         21   -1    0    0  501  503 -0.00000000000E+00 -0.00000000000E+00 -0.67596442524E+03  0.67596442524E+03  0.00000000000E+00 0. -1.
          6    2    1    2  501    0  0.93721467267E+02  0.69126574575E+02 -0.48160626170E+03  0.52523429746E+03  0.17425349116E+03 0.  0.
         24    2    3    3    0    0  0.23225576394E+01  0.85952015438E+02 -0.28922762652E+03  0.31153243642E+03  0.77502875839E+02 0.  0.
         -6    2    1    2    0  502 -0.93721467267E+02 -0.69126574575E+02 -0.11073029993E+03  0.23435799140E+03  0.17058801855E+03 0.  0.
        -24    2    5    5    0    0 -0.25053246815E+02  0.27217660769E+02 -0.42405110062E+02  0.97654085988E+02  0.79810155476E+02 0.  0.
          5    1    3    3  501    0  0.91398909628E+02 -0.16825440863E+02 -0.19237863517E+03  0.21370186104E+03  0.47000000000E+01 0. -1.
        -11    1    4    4    0    0  0.23449464171E+02  0.42957815700E+02 -0.23101875698E+03  0.23614596625E+03  0.00000000000E+00 0.  1.
         12    1    4    4    0    0 -0.21126906531E+02  0.42994199738E+02 -0.58208869546E+02  0.75386470169E+02  0.00000000000E+00 0. -1.
         -5    1    5    5    0  502 -0.68668220453E+02 -0.96344235345E+02 -0.68325189866E+02  0.13670390541E+03  0.47000000000E+01 0.  1.
         13    1    6    6    0    0 -0.45817798960E+02  0.84545161329E+01  0.30418802743E+00  0.46592296304E+02  0.00000000000E+00 0. -1.
        -14    1    6    6    0    0  0.20764552145E+02  0.18763144637E+02 -0.42709298089E+02  0.51061789684E+02  0.00000000000E+00 0.  1.
</event>
<event>
12    1  0.8344842E-002  0.1701512E+03  0.7818608E-02  0.1178182E+00
         21   -1    0    0  503  502  0.00000000000E+00  0.00000000000E+00  0.57817063175E+03  0.57817063175E+03  0.00000000000E+00 0.  1.
         21   -1    0    0  501  503 -0.00000000000E+00 -0.00000000000E+00 -0.13053776807E+03  0.13053776807E+03  0.00000000000E+00 0.  1.
          6    2    1    2  501    0 -0.19164578249E+02 -0.90742512770E+01 -0.54869617718E+02  0.17877948684E+03  0.16882478157E+03 0.  0.
         24    2    3    3    0    0  0.22704980268E+02  0.47064329040E+02 -0.47385751230E+02  0.10819125561E+03  0.82032744527E+02 0.  0.
         -6    2    1    2    0  502  0.19164578249E+02  0.90742512770E+01  0.50250248140E+03  0.52992891298E+03  0.16693197985E+03 0.  0.
        -24    2    5    5    0    0  0.70431151766E+02 -0.14958830184E+02  0.37561256299E+03  0.39090016790E+03  0.80832110223E+02 0.  0.
          5    1    3    3  501    0 -0.41869558517E+02 -0.56138580317E+02 -0.74838664879E+01  0.70588231229E+02  0.47000000000E+01 0. -1.
        -11    1    4    4    0    0 -0.20171130410E+02 -0.12496165632E+02 -0.90673450475E+01  0.25401681120E+02  0.00000000000E+00 0.  1.
         12    1    4    4    0    0  0.42876110678E+02  0.59560494672E+02 -0.38318406183E+02  0.82789574493E+02  0.00000000000E+00 0. -1.
         -5    1    5    5    0  502 -0.51266573517E+02  0.24033081461E+02  0.12688991841E+03  0.13902874508E+03  0.47000000000E+01 0.  1.
         13    1    6    6    0    0 -0.95643910363E+01 -0.59049060475E+01  0.62403892492E+01  0.12856436104E+02  0.00000000000E+00 0. -1.
        -14    1    6    6    0    0  0.79995542802E+02 -0.90539241364E+01  0.36937217374E+03  0.37804373179E+03  0.00000000000E+00 0.  1.
</event>
<event>
12    1  0.8344842E-002  0.2199286E+03  0.7818608E-02  0.1134789E+00
         21   -1    0    0  501  502  0.00000000000E+00  0.00000000000E+00  0.65843146830E+03  0.65843146830E+03  0.00000000000E+00 0. -1.
         21   -1    0    0  502  503 -0.00000000000E+00 -0.00000000000E+00 -0.12392097186E+03  0.12392097186E+03  0.00000000000E+00 0. -1.
         -6    2    1    2    0  503 -0.13168250625E+03 -0.14281163875E+02  0.15567725840E+02  0.22047887587E+03  0.17556863765E+03 0.  0.
        -24    2    3    3    0    0 -0.11053315360E+03 -0.69462598434E+02  0.37587242110E+02  0.15723937134E+03  0.79175681263E+02 0.  0.
          6    2    1    2  501    0  0.13168250625E+03  0.14281163875E+02  0.51894277060E+03  0.56187356428E+03  0.16987074202E+03 0.  0.
         24    2    5    5    0    0  0.14639778812E+03  0.20775492395E+00  0.31195141108E+03  0.35383002732E+03  0.80309711907E+02 0.  0.
          5    1    5    5  501    0 -0.14715281877E+02  0.14073408951E+02  0.20699135952E+03  0.20804353697E+03  0.47000000000E+01 0. -1.
        -13    1    6    6    0    0  0.33956331581E+02 -0.35131564879E+02  0.82710712200E+02  0.96064151576E+02  0.00000000000E+00 0.  1.
         14    1    6    6    0    0  0.11244145654E+03  0.35339319803E+02  0.22924069888E+03  0.25776587574E+03  0.00000000000E+00 0. -1.
         -5    1    3    3    0  503 -0.21149352649E+02  0.55181434559E+02 -0.22019516270E+02  0.63239504538E+02  0.47000000000E+01 0.  1.
         11    1    4    4    0    0 -0.10247314266E+03 -0.77425869709E+02  0.11682444448E+02  0.12896507192E+03  0.00000000000E+00 0. -1.
        -12    1    4    4    0    0 -0.80600109388E+01  0.79632712749E+01  0.25904797661E+02  0.28274299419E+02  0.00000000000E+00 0.  1.
</event>
<event>
12    1  0.8344842E-002  0.2260942E+03  0.7818608E-02  0.1129592E+00
         21   -1    0    0  503  502  0.00000000000E+00  0.00000000000E+00  0.39998958953E+03  0.39998958953E+03  0.00000000000E+00 0.  1.
         21   -1    0    0  501  503 -0.00000000000E+00 -0.00000000000E+00 -0.12871353474E+03  0.12871353474E+03  0.00000000000E+00 0.  1.
          6    2    1    2  501    0  0.98977437606E+02  0.10618494351E+03  0.10781235215E+03  0.25048370315E+03  0.17334014793E+03 0.  0.
         24    2    3    3    0    0  0.33931953413E+02  0.97994963373E+02  0.12721815298E+03  0.18195147792E+03  0.78533378654E+02 0.  0.
         -6    2    1    2    0  502 -0.98977437606E+02 -0.10618494351E+03  0.16346370264E+03  0.27821942112E+03  0.17208686418E+03 0.  0.
        -24    2    5    5    0    0 -0.62656106841E+01 -0.11704446891E+02  0.68453299985E+01  0.73101280184E+02  0.71558973354E+02 0.  0.
          5    1    3    3  501    0  0.65045484192E+02  0.81899801327E+01 -0.19405800830E+02  0.68532225225E+02  0.47000000000E+01 0. -1.
        -13    1    4    4    0    0  0.58754220365E+02  0.55675356445E+02  0.76119890785E+02  0.11111274229E+03  0.00000000000E+00 0.  1.
         14    1    4    4    0    0 -0.24822266952E+02  0.42319606929E+02  0.51098262192E+02  0.70838735634E+02  0.00000000000E+00 0. -1.
         -5    1    5    5    0  502 -0.92711826922E+02 -0.94480496615E+02  0.15661837264E+03  0.20511814093E+03  0.47000000000E+01 0.  1.
         11    1    6    6    0    0 -0.19595097350E+02  0.20657038880E+02  0.20968059622E+02  0.35360155822E+02  0.00000000000E+00 0. -1.
        -12    1    6    6    0    0  0.13329486666E+02 -0.32361485771E+02 -0.14122729623E+02  0.37741124362E+02  0.00000000000E+00 0.  1.
</event>
<event>
12    1  0.8344842E-002  0.3841337E+03  0.7818608E-02  0.1049467E+00
         21   -1    0    0  503  502  0.00000000000E+00  0.00000000000E+00  0.14381394470E+04  0.14381394470E+04  0.00000000000E+00 0. -1.
         21   -1    0    0  501  503 -0.00000000000E+00 -0.00000000000E+00 -0.10481955006E+03  0.10481955006E+03  0.00000000000E+00 0. -1.
          6    2    1    2  501    0  0.21871300469E+03  0.26507235178E+03  0.55031591131E+03  0.67080424494E+03  0.17038780086E+03 0.  0.
         24    2    3    3    0    0  0.18492284306E+03  0.21331573574E+03  0.52962742578E+03  0.60545421999E+03  0.79809406481E+02 0.  0.
         -6    2    1    2    0  502 -0.21871300469E+03 -0.26507235178E+03  0.78300398565E+03  0.87215475215E+03  0.17163898173E+03 0.  0.
        -24    2    5    5    0    0 -0.95931540037E+02 -0.22322570822E+03  0.52835636990E+03  0.58633325567E+03  0.74790747486E+02 0.  0.
          5    1    3    3  501    0  0.33790161630E+02  0.51756616044E+02  0.20688485531E+02  0.65350024949E+02  0.47000000000E+01 0. -1.
        -11    1    4    4    0    0  0.28704230399E+02  0.14113099262E+02  0.11758964542E+03  0.12186236959E+03  0.00000000000E+00 0.  1.
         12    1    4    4    0    0  0.15621861266E+03  0.19920263648E+03  0.41203778036E+03  0.48359185040E+03  0.00000000000E+00 0. -1.
         -5    1    5    5    0  502 -0.12278146466E+03 -0.41846643567E+02  0.25464761575E+03  0.28582149648E+03  0.47000000000E+01 0.  1.
         13    1    6    6    0    0 -0.10543022846E+03 -0.19749764467E+03  0.43789231168E+03  0.49180334418E+03  0.00000000000E+00 0. -1.
        -14    1    6    6    0    0  0.94986884274E+01 -0.25728063546E+02  0.90464058224E+02  0.94529911489E+02  0.00000000000E+00 0.  1.
</event>
<event>
12    1  0.8344842E-002  0.1960918E+03  0.7818608E-02  0.1154307E+00
         21   -1    0    0  501  502  0.00000000000E+00  0.00000000000E+00  0.15305082297E+03  0.15305082297E+03  0.00000000000E+00 0.  1.
         21   -1    0    0  502  503 -0.00000000000E+00 -0.00000000000E+00 -0.27393673802E+03  0.27393673802E+03  0.00000000000E+00 0. -1.
         -6    2    1    2    0  503 -0.72177029311E+02 -0.60217575890E+02 -0.13008092081E+03  0.23068031135E+03  0.16570057357E+03 0.  0.
        -24    2    3    3    0    0 -0.43412128542E+01 -0.36337555797E+02 -0.13214040275E+03  0.15858117946E+03  0.79672080106E+02 0.  0.
          6    2    1    2  501    0  0.72177029311E+02  0.60217575890E+02  0.91950057611E+01  0.19630724964E+03  0.17209389334E+03 0.  0.
         24    2    5    5    0    0  0.10527623428E+02  0.30935205872E+02 -0.55109659686E+02  0.10241749281E+03  0.79902756054E+02 0.  0.
          5    1    5    5  501    0  0.61649405883E+02  0.29282370018E+02  0.64304665447E+02  0.93889756831E+02  0.47000000000E+01 0. -1.
        -13    1    6    6    0    0  0.28269618319E+02  0.31109429385E+02  0.25274488399E+01  0.42111232638E+02  0.00000000000E+00 0.  1.
         14    1    6    6    0    0 -0.17741994891E+02 -0.17422351359E+00 -0.57637108526E+02  0.60306260171E+02  0.00000000000E+00 0. -1.
         -5    1    3    3    0  503 -0.67835816456E+02 -0.23880020093E+02  0.20594819451E+01  0.72099131894E+02  0.47000000000E+01 0.  1.
         11    1    4    4    0    0  0.27689682836E+02  0.96639978917E+01 -0.63612751824E+02  0.70047795008E+02  0.00000000000E+00 0. -1.
        -12    1    4    4    0    0 -0.32030895690E+02 -0.46001553689E+02 -0.68527650930E+02  0.88533384452E+02  0.00000000000E+00 0.  1.
</event>
<event>
12    1  0.8344842E-002  0.1986830E+03  0.7818608E-02  0.1151018E+00
         21   -1    0    0  503  502  0.00000000000E+00  0.00000000000E+00  0.16342678783E+03  0.16342678783E+03  0.00000000000E+00 0. -1.
         21   -1    0    0  501  503 -0.00000000000E+00 -0.00000000000E+00 -0.26942316194E+03  0.26942316194E+03  0.00000000000E+00 0.  1.
          6    2    1    2  501    0  0.77295166367E+02  0.61699586477E+02 -0.12367417608E+03  0.23338205186E+03  0.17143657308E+03 0.  0.
         24    2    3    3    0    0  0.64448072044E+02  0.10832255259E+03 -0.90227029924E+02  0.17439433799E+03  0.79907063543E+02 0.  0.
         -6    2    1    2    0  502 -0.77295166367E+02 -0.61699586477E+02  0.17677801963E+02  0.19946789791E+03  0.17231818215E+03 0.  0.
        -24    2    5    5    0    0 -0.64070004360E+02  0.27664268141E+02 -0.51579978318E+00  0.10719709772E+03  0.81367527431E+02 0.  0.
          5    1    3    3  501    0  0.12847094323E+02 -0.46622966118E+02 -0.33447146152E+02  0.58987713872E+02  0.47000000000E+01 0. -1.
        -13    1    4    4    0    0 -0.18934312061E+02  0.24970224209E+02 -0.19411225139E+02  0.36862120553E+02  0.00000000000E+00 0.  1.
         14    1    4    4    0    0  0.83382384106E+02  0.83352328385E+02 -0.70815804785E+02  0.13753221744E+03  0.00000000000E+00 0. -1.
         -5    1    5    5    0  502 -0.13225162007E+02 -0.89363854617E+02  0.18193601746E+02  0.92270800184E+02  0.47000000000E+01 0.  1.
         13    1    6    6    0    0 -0.47996366431E+02 -0.96885503946E+01  0.29038219868E+02  0.56927475023E+02  0.00000000000E+00 0. -1.
        -14    1    6    6    0    0 -0.16073637929E+02  0.37352818535E+02 -0.29554019652E+02  0.50269622700E+02  0.00000000000E+00 0.  1.
</event>
<event>
12    1  0.8344842E-002  0.1955848E+03  0.7818608E-02  0.1155260E+00
         21   -1    0    0  501  502  0.00000000000E+00  0.00000000000E+00  0.57105296081E+03  0.57105296081E+03  0.00000000000E+00 0. -1.
         21   -1    0    0  502  503 -0.00000000000E+00 -0.00000000000E+00 -0.12474901820E+03  0.12474901820E+03  0.00000000000E+00 0. -1.
         -6    2    1    2    0  503  0.79174378060E+01  0.73330791269E+02 -0.16588365010E+02  0.19628697078E+03  0.18114444588E+03 0.  0.
        -24    2    3    3    0    0  0.27202364680E+02  0.90092309408E+02 -0.65678740129E+02  0.14074588847E+03  0.81480766788E+02 0.  0.
          6    2    1    2  501    0 -0.79174378060E+01 -0.73330791269E+02  0.46289230761E+03  0.49951500823E+03  0.17264374948E+03 0.  0.
         24    2    5    5    0    0 -0.39951537496E+02 -0.30897562988E+02  0.11992811055E+03  0.15242237957E+03  0.79366525354E+02 0.  0.
          5    1    5    5  501    0  0.32034099690E+02 -0.42433228282E+02  0.34296419707E+03  0.34709262867E+03  0.47000000000E+01 0. -1.
        -13    1    6    6    0    0  0.20053182063E+02 -0.22158258058E+02  0.21500724914E+02  0.36815753189E+02  0.00000000000E+00 0.  1.
         14    1    6    6    0    0 -0.60004719559E+02 -0.87393049293E+01  0.98427385633E+02  0.11560662638E+03  0.00000000000E+00 0. -1.
         -5    1    3    3    0  503 -0.19284926874E+02 -0.16761518139E+02  0.49090375119E+02  0.55541082310E+02  0.47000000000E+01 0.  1.
         11    1    4    4    0    0  0.18979628880E+02  0.10531203735E+03 -0.53892559099E+02  0.11981343601E+03  0.00000000000E+00 0. -1.
        -12    1    4    4    0    0  0.82227358002E+01 -0.15219727938E+02 -0.11786181030E+02  0.20932452455E+02  0.00000000000E+00 0.  1.
</event>
<event>
12    1  0.8344842E-002  0.1945212E+03  0.7818608E-02  0.1155681E+00
         21   -1    0    0  501  502  0.00000000000E+00  0.00000000000E+00  0.83881154357E+03  0.83881154357E+03  0.00000000000E+00 0.  1.
         21   -1    0    0  502  503 -0.00000000000E+00 -0.00000000000E+00 -0.10002596904E+03  0.10002596904E+03  0.00000000000E+00 0. -1.
         -6    2    1    2    0  503 -0.54414406601E+02  0.74184075533E+02  0.15210670898E+02  0.18957178910E+03  0.16505118602E+03 0.  0.
        -24    2    3    3    0    0 -0.10451910698E+02  0.10400958076E+03 -0.68160443936E+01  0.13186972679E+03  0.80099507208E+02 0.  0.
          6    2    1    2  501    0  0.54414406601E+02 -0.74184075533E+02  0.72357490363E+03  0.74926572350E+03  0.17138926030E+03 0.  0.
         24    2    5    5    0    0  0.67068689285E+02 -0.88321442087E+02  0.71515179283E+03  0.72798110937E+03  0.78838585697E+02 0.  0.
          5    1    5    5  501    0 -0.12654282685E+02  0.14137366554E+02  0.84231108014E+01  0.21284614136E+02  0.47000000000E+01 0. -1.
        -11    1    6    6    0    0  0.63730952247E+02 -0.85576516152E+02  0.43848178912E+03  0.45127735793E+03  0.00000000000E+00 0.  1.
         12    1    6    6    0    0  0.33377370387E+01 -0.27449259353E+01  0.27667000371E+03  0.27670375144E+03  0.00000000000E+00 0. -1.
         -5    1    3    3    0  503 -0.43962495902E+02 -0.29825505231E+02  0.22026715292E+02  0.57702062309E+02  0.47000000000E+01 0.  1.
         11    1    4    4    0    0 -0.56027255953E+01  0.24622164591E+02 -0.38676769942E+02  0.46190194375E+02  0.00000000000E+00 0. -1.
        -12    1    4    4    0    0 -0.48491851032E+01  0.79387416173E+02  0.31860725548E+02  0.85679532417E+02  0.00000000000E+00 0.  1.
</event>
<event>
12    1  0.8344842E-002  0.2137333E+03  0.7818608E-02  0.1141309E+00
         21   -1    0    0  503  502  0.00000000000E+00  0.00000000000E+00  0.39128063110E+02  0.39128063110E+02  0.00000000000E+00 0. -1.
         21   -1    0    0  501  503 -0.00000000000E+00 -0.00000000000E+00 -0.14451634220E+04  0.14451634220E+04  0.00000000000E+00 0. -1.
          6    2    1    2  501    0 -0.13742527408E+02 -0.10417231698E+03 -0.10848461498E+04  0.11057002724E+04  0.18612145163E+03 0.  0.
         24    2    3    3    0    0  0.60204770885E+02 -0.39842290109E+02 -0.71708573666E+03  0.72507399004E+03  0.79424900300E+02 0.  0.
         -6    2    1    2    0  502  0.13742527408E+02  0.10417231698E+03 -0.32118920901E+03  0.37859121272E+03  0.17066947496E+03 0.  0.
        -24    2    5    5    0    0 -0.34496326624E+02  0.93729181165E+02 -0.29656412043E+03  0.32323300546E+03  0.80957657699E+02 0.  0.
          5    1    3    3  501    0 -0.73947298293E+02 -0.64330026876E+02 -0.36776041319E+03  0.38062628232E+03  0.47000000000E+01 0. -1.
        -13    1    4    4    0    0 -0.31650877865E+01  0.19016513643E+02 -0.18543578479E+03  0.18643517869E+03  0.00000000000E+00 0.  1.
         14    1    4    4    0    0  0.63369858672E+02 -0.58858803752E+02 -0.53164995187E+03  0.53863881135E+03  0.00000000000E+00 0. -1.
         -5    1    5    5    0  502  0.48238854031E+02  0.10443135820E+02 -0.24625088582E+02  0.55358207266E+02  0.47000000000E+01 0.  1.
         13    1    6    6    0    0 -0.48011473301E+02  0.66746921804E+02 -0.12901123669E+03  0.15298415712E+03  0.00000000000E+00 0. -1.
        -14    1    6    6    0    0  0.13515146678E+02  0.26982259361E+02 -0.16755288374E+03  0.17024884834E+03  0.00000000000E+00 0.  1.
</event>
<event>
12    1  0.8344842E-002  0.2644030E+03  0.7818608E-02  0.1106408E+00
         21   -1    0    0  501  502  0.00000000000E+00  0.00000000000E+00  0.11799227418E+04  0.11799227418E+04  0.00000000000E+00 0.  1.
         21   -1    0    0  502  503 -0.00000000000E+00 -0.00000000000E+00 -0.61587012573E+02  0.61587012573E+02  0.00000000000E+00 0. -1.
         -6    2    1    2    0  503  0.16571076765E+03 -0.79968710394E+02  0.39296792217E+03  0.47363778943E+03  0.18987868380E+03 0.  0.
        -24    2    3    3    0    0  0.63192756387E+02 -0.12153088701E+02  0.58596869739E+02  0.11735841607E+03  0.78729807911E+02 0.  0.
          6    2    1    2  501    0 -0.16571076765E+03  0.79968710394E+02  0.72536780709E+03  0.76787196498E+03  0.17208673940E+03 0.  0.
         24    2    5    5    0    0 -0.16539692414E+03  0.24753791796E+02  0.44973542012E+03  0.48672415958E+03  0.81667415074E+02 0.  0.
          5    1    5    5  501    0 -0.31384351456E+00  0.55214918599E+02  0.27563238697E+03  0.28114780540E+03  0.47000000000E+01 0. -1.
        -11    1    6    6    0    0 -0.27100081390E+02 -0.24531342311E+02  0.12715000747E+03  0.13230013442E+03  0.00000000000E+00 0.  1.
         12    1    6    6    0    0 -0.13829684275E+03  0.49285134107E+02  0.32258541265E+03  0.35442402516E+03  0.00000000000E+00 0. -1.
         -5    1    3    3    0  503  0.10251801126E+03 -0.67815621693E+02  0.33437105243E+03  0.35627937336E+03  0.47000000000E+01 0.  1.
         11    1    4    4    0    0  0.38019431759E+02 -0.45145560010E+02  0.43001021670E+02  0.73025246624E+02  0.00000000000E+00 0. -1.
        -12    1    4    4    0    0  0.25173324628E+02  0.32992471308E+02  0.15595848069E+02  0.44333169443E+02  0.00000000000E+00 0.  1.
</event>
<event>
12    1  0.8344842E-002  0.3079894E+03  0.7818608E-02  0.1081408E+00
         21   -1    0    0  501  502  0.00000000000E+00  0.00000000000E+00  0.35600077847E+03  0.35600077847E+03  0.00000000000E+00 0. -1.
         21   -1    0    0  502  503 -0.00000000000E+00 -0.00000000000E+00 -0.30520747283E+03  0.30520747283E+03  0.00000000000E+00 0.  1.
         -6    2    1    2    0  503  0.27435748837E+02  0.25262813059E+03 -0.93402891573E+02  0.32184086679E+03  0.17402227071E+03 0.  0.
        -24    2    3    3    0    0  0.65000751306E+02  0.76757434935E+02 -0.25153899136E+02  0.12943076838E+03  0.77477762453E+02 0.  0.
          6    2    1    2  501    0 -0.27435748837E+02 -0.25262813059E+03  0.14419619721E+03  0.33936738451E+03  0.17263830890E+03 0.  0.
         24    2    5    5    0    0 -0.42087890856E+02 -0.25454134284E+03  0.16298971435E+03  0.31500282145E+03  0.78092539751E+02 0.  0.
          5    1    5    5  501    0  0.14652142019E+02  0.19132122504E+01 -0.18793517138E+02  0.24364563064E+02  0.47000000000E+01 0. -1.
        -13    1    6    6    0    0  0.10822322713E+01 -0.79161791245E+02  0.13000056934E+02  0.80229432879E+02  0.00000000000E+00 0.  1.
         14    1    6    6    0    0 -0.43170123127E+02 -0.17537955160E+03  0.14998965742E+03  0.23477338857E+03  0.00000000000E+00 0. -1.
         -5    1    3    3    0  503 -0.37565002469E+02  0.17587069566E+03 -0.68248992437E+02  0.19241009841E+03  0.47000000000E+01 0.  1.
         11    1    4    4    0    0  0.78673732198E+02  0.66794754528E+02 -0.52908765340E+01  0.10333967653E+03  0.00000000000E+00 0. -1.
        -12    1    4    4    0    0 -0.13672980892E+02  0.99626804072E+01 -0.19863022602E+02  0.26091091857E+02  0.00000000000E+00 0.  1.
</event>
<event>
12    1  0.8344842E-002  0.2094703E+03  0.7818608E-02  0.1144256E+00
         21   -1    0    0  501  502  0.00000000000E+00  0.00000000000E+00  0.60388034672E+02  0.60388034672E+02  0.00000000000E+00 0. -1.
         21   -1    0    0  502  503 -0.00000000000E+00 -0.00000000000E+00 -0.10489778691E+04  0.10489778691E+04  0.00000000000E+00 0. -1.
         -6    2    1    2    0  503  0.36293598646E+02  0.11369063096E+03 -0.82816274079E+03  0.85424314363E+03  0.17214830334E+03 0.  0.
        -24    2    3    3    0    0 -0.29711703299E+02  0.42957569409E+02 -0.35293112485E+03  0.36924103573E+03  0.95133724294E+02 0.  0.
          6    2    1    2  501    0 -0.36293598646E+02 -0.11369063096E+03 -0.16042709362E+03  0.25512276012E+03  0.15845499516E+03 0.  0.
         24    2    5    5    0    0  0.29481409296E+02 -0.53295337188E+02 -0.12175085003E+03  0.15769645465E+03  0.79594948740E+02 0.  0.
          5    1    5    5  501    0 -0.65775007942E+02 -0.60395293775E+02 -0.38676243591E+02  0.97426305474E+02  0.47000000000E+01 0. -1.
        -13    1    6    6    0    0 -0.12358995774E+02 -0.10208416749E+02  0.55302801116E+01  0.16957020587E+02  0.00000000000E+00 0.  1.
         14    1    6    6    0    0  0.41840405070E+02 -0.43086920438E+02 -0.12728113014E+03  0.14073943406E+03  0.00000000000E+00 0. -1.
         -5    1    3    3    0  503  0.66005301945E+02  0.70733061554E+02 -0.47523161593E+03  0.48500210790E+03  0.47000000000E+01 0.  1.
         13    1    4    4    0    0 -0.65184780844E+01  0.66024724622E+02 -0.29809997596E+03  0.30539376301E+03  0.00000000000E+00 0. -1.
        -14    1    4    4    0    0 -0.23193225214E+02 -0.23067155213E+02 -0.54831148893E+02  0.63847272725E+02  0.00000000000E+00 0.  1.
</event>
<event>
12    1  0.8344842E-002  0.1914584E+03  0.7818608E-02  0.1157568E+00
         21   -1    0    0  501  502  0.00000000000E+00  0.00000000000E+00  0.29140472077E+04  0.29140472077E+04  0.00000000000E+00 0.  1.
         21   -1    0    0  502  503 -0.00000000000E+00 -0.00000000000E+00 -0.13146683955E+02  0.13146683955E+02  0.00000000000E+00 0.  1.
         -6    2    1    2    0  503 -0.61218982782E+02 -0.48539095760E+02  0.11087461386E+04  0.11248416338E+04  0.17276253503E+03 0.  0.
        -24    2    3    3    0    0  0.33514894857E+02 -0.39545929200E+02  0.50220651355E+03  0.51086460539E+03  0.78000859540E+02 0.  0.
          6    2    1    2  501    0  0.61218982782E+02  0.48539095760E+02  0.17921543851E+04  0.18023522579E+04  0.17479277352E+03 0.  0.
         24    2    5    5    0    0  0.94795346304E+02  0.34430789133E+02  0.77965641309E+03  0.78918857422E+03  0.69158125227E+02 0.  0.
          5    1    5    5  501    0 -0.33576363522E+02  0.14108306627E+02  0.10124979721E+04  0.10131636837E+04  0.47000000000E+01 0. -1.
        -11    1    6    6    0    0  0.93343660886E+02  0.35537052793E+02  0.78071540638E+03  0.78707843758E+03  0.00000000000E+00 0.  1.
         12    1    6    6    0    0  0.14516854182E+01 -0.11062636601E+01 -0.10589932896E+01  0.21101366369E+01  0.00000000000E+00 0. -1.
         -5    1    3    3    0  503 -0.94733877639E+02 -0.89931665600E+01  0.60653962507E+03  0.61397702840E+03  0.47000000000E+01 0.  1.
         13    1    4    4    0    0  0.15150102565E+02 -0.41247025683E+02  0.11332331422E+03  0.12154429761E+03  0.00000000000E+00 0. -1.
        -14    1    4    4    0    0  0.18364792292E+02  0.17010964829E+01  0.38888319934E+03  0.38932030778E+03  0.00000000000E+00 0.  1.
</event>
<event>
12    1  0.8344842E-002  0.2556760E+03  0.7818608E-02  0.1110032E+00
         21   -1    0    0  501  502  0.00000000000E+00  0.00000000000E+00  0.89967396891E+03  0.89967396891E+03  0.00000000000E+00 0. -1.
         21   -1    0    0  502  503 -0.00000000000E+00 -0.00000000000E+00 -0.10427905012E+03  0.10427905012E+03  0.00000000000E+00 0.  1.
         -6    2    1    2    0  503  0.10876776239E+03  0.15556752142E+03  0.11825450206E+03  0.28015099197E+03  0.16872691306E+03 0.  0.
        -24    2    3    3    0    0  0.13018248661E+03  0.10781132497E+03  0.53101453455E+02  0.19644762015E+03  0.84859539785E+02 0.  0.
          6    2    1    2  501    0 -0.10876776239E+03 -0.15556752142E+03  0.67714041673E+03  0.72380202705E+03  0.17128499799E+03 0.  0.
         24    2    5    5    0    0 -0.50437411662E+02 -0.47492938512E+02  0.47505615880E+03  0.48727997187E+03  0.83450016537E+02 0.  0.
          5    1    5    5  501    0 -0.58330350731E+02 -0.10807458291E+03  0.20208425793E+03  0.23652205519E+03  0.47000000000E+01 0. -1.
        -13    1    6    6    0    0 -0.26853120597E+02 -0.37453664287E+02  0.44664034068E+03  0.44901164904E+03  0.00000000000E+00 0.  1.
         14    1    6    6    0    0 -0.23584291066E+02 -0.10039274225E+02  0.28415818130E+02  0.38268322827E+02  0.00000000000E+00 0. -1.
         -5    1    3    3    0  503 -0.21414724212E+02  0.47756196452E+02  0.65153048602E+02  0.83703371825E+02  0.47000000000E+01 0.  1.
         13    1    4    4    0    0  0.11835267378E+03  0.10389830155E+03  0.72514506541E+02  0.17337983192E+03  0.00000000000E+00 0. -1.
        -14    1    4    4    0    0  0.11829812824E+02  0.39130234137E+01 -0.19413053086E+02  0.23067788230E+02  0.00000000000E+00 0.  1.
</event>
<event>
12    1  0.8344842E-002  0.2456610E+03  0.7818608E-02  0.1116627E+00
         21   -1    0    0  503  502  0.00000000000E+00  0.00000000000E+00  0.15186561049E+03  0.15186561049E+03  0.00000000000E+00 0.  1.
         21   -1    0    0  501  503 -0.00000000000E+00 -0.00000000000E+00 -0.74443294818E+03  0.74443294818E+03  0.00000000000E+00 0.  1.
          6    2    1    2  501    0  0.46680222452E+02  0.16412298143E+03 -0.60357704642E+03  0.65039098911E+03  0.17201102157E+03 0.  0.
         24    2    3    3    0    0 -0.21531542383E+02  0.14216750203E+03 -0.48199365755E+03  0.50918370039E+03  0.79214574861E+02 0.  0.
         -6    2    1    2    0  502 -0.46680222452E+02 -0.16412298143E+03  0.11009708729E+02  0.24590756956E+03  0.17673121648E+03 0.  0.
        -24    2    5    5    0    0  0.30018127447E+02 -0.84494666878E+02  0.43531662586E+02  0.13056862194E+03  0.84336959163E+02 0.  0.
          5    1    3    3  501    0  0.68211764836E+02  0.21955479397E+02 -0.12158338887E+03  0.14120728872E+03  0.47000000000E+01 0. -1.
        -11    1    4    4    0    0 -0.39603136508E+02  0.31844283473E+02 -0.11988864121E+03  0.13021425844E+03  0.00000000000E+00 0.  1.
         12    1    4    4    0    0  0.18071594125E+02  0.11032321856E+03 -0.36210501635E+03  0.37896944195E+03  0.00000000000E+00 0. -1.
         -5    1    5    5    0  502 -0.76698349899E+02 -0.79628314552E+02 -0.32521953857E+02  0.11533894762E+03  0.47000000000E+01 0.  1.
         11    1    6    6    0    0  0.10376166781E+02  0.72941700056E+01 -0.15234801333E+02  0.19823443817E+02  0.00000000000E+00 0. -1.
        -12    1    6    6    0    0  0.19641960666E+02 -0.91788836883E+02  0.58766463919E+02  0.11074517812E+03  0.00000000000E+00 0.  1.
</event>
<event>
12    1  0.8344842E-002  0.2220117E+03  0.7818608E-02  0.1135255E+00
         21   -1    0    0  503  502  0.00000000000E+00  0.00000000000E+00  0.59915307120E+03  0.59915307120E+03  0.00000000000E+00 0.  1.
         21   -1    0    0  501  503 -0.00000000000E+00 -0.00000000000E+00 -0.79928228786E+02  0.79928228786E+02  0.00000000000E+00 0. -1.
          6    2    1    2  501    0 -0.14442435030E+02 -0.11585122837E+03  0.18387767641E+03  0.27690359157E+03  0.17098101678E+03 0.  0.
         24    2    3    3    0    0  0.27751901242E+02 -0.98946640436E+02  0.19020865169E+03  0.23077010748E+03  0.80714965471E+02 0.  0.
         -6    2    1    2    0  502  0.14442435030E+02  0.11585122837E+03  0.33534716600E+03  0.40217770841E+03  0.18883616273E+03 0.  0.
        -24    2    5    5    0    0 -0.57580840087E+02  0.15899349438E+02  0.14253462601E+03  0.17331859053E+03  0.78452990724E+02 0.  0.
          5    1    3    3  501    0 -0.42194336272E+02 -0.16904587934E+02 -0.63309752803E+01  0.46133484094E+02  0.47000000000E+01 0. -1.
        -13    1    4    4    0    0  0.26272603430E+02 -0.96260006324E+02  0.10263908192E+03  0.14314684644E+03  0.00000000000E+00 0.  1.
         14    1    4    4    0    0  0.14792978121E+01 -0.26866341119E+01  0.87569569771E+02  0.87623261037E+02  0.00000000000E+00 0. -1.
         -5    1    5    5    0  502  0.72023275117E+02  0.99951878932E+02  0.19281253999E+03  0.22885911788E+03  0.47000000000E+01 0.  1.
         11    1    6    6    0    0  0.16282307123E+02 -0.41670034593E+01  0.81814818315E+01  0.18692621219E+02  0.00000000000E+00 0. -1.
        -12    1    6    6    0    0 -0.73863147210E+02  0.20066352898E+02  0.13435314418E+03  0.15462596931E+03  0.00000000000E+00 0.  1.
</event>
<event>
12    1  0.8344842E-002  0.2060247E+03  0.7818608E-02  0.1144789E+00
         21   -1    0    0  501  502  0.00000000000E+00  0.00000000000E+00  0.37652511488E+02  0.37652511488E+02  0.00000000000E+00 0.  1.
         21   -1    0    0  502  503 -0.00000000000E+00 -0.00000000000E+00 -0.11432369239E+04  0.11432369239E+04  0.00000000000E+00 0. -1.
         -6    2    1    2    0  503 -0.69778065971E+01  0.11321945261E+03 -0.48079174914E+03  0.52300491646E+03  0.17177340413E+03 0.  0.
        -24    2    3    3    0    0  0.19518853009E+02  0.38418847497E+02 -0.39920386494E+03  0.40909321231E+03  0.78336052389E+02 0.  0.
          6    2    1    2  501    0  0.69778065971E+01 -0.11321945261E+03 -0.62479266324E+03  0.65788451889E+03  0.17198498171E+03 0.  0.
         24    2    5    5    0    0 -0.12796187668E+01  0.15275123682E+02 -0.26457541176E+03  0.27531740130E+03  0.74595952423E+02 0.  0.
          5    1    5    5  501    0  0.82574253638E+01 -0.12849457629E+03 -0.36021725147E+03  0.38256711760E+03  0.47000000000E+01 0. -1.
        -13    1    6    6    0    0  0.31399993788E+01 -0.46652860776E+01  0.33955648110E+01  0.65691971100E+01  0.00000000000E+00 0.  1.
         14    1    6    6    0    0 -0.44196181456E+01  0.19940409760E+02 -0.26797097658E+03  0.26874820419E+03  0.00000000000E+00 0. -1.
         -5    1    3    3    0  503 -0.26496659606E+02  0.74800605112E+02 -0.81587884200E+02  0.11391170416E+03  0.47000000000E+01 0.  1.
         11    1    4    4    0    0 -0.11474278904E+02 -0.10345789668E+02 -0.18835344855E+02  0.24361130024E+02  0.00000000000E+00 0. -1.
        -12    1    4    4    0    0  0.30993131913E+02  0.48764637165E+02 -0.38036852009E+03  0.38473208228E+03  0.00000000000E+00 0.  1.
</event>
<event>
12    1  0.8344842E-002  0.1777237E+03  0.7818608E-02  0.1175861E+00
         21   -1    0    0  501  502  0.00000000000E+00  0.00000000000E+00  0.95779228609E+02  0.95779228609E+02  0.00000000000E+00 0.  1.
         21   -1    0    0  502  503 -0.00000000000E+00 -0.00000000000E+00 -0.46116269818E+03  0.46116269818E+03  0.00000000000E+00 0.  1.
         -6    2    1    2    0  503 -0.20219531229E+02  0.38384240414E+02 -0.35971145254E+03  0.40122066966E+03  0.17234708388E+03 0.  0.
        -24    2    3    3    0    0 -0.71399271484E+02 -0.83538016053E-01 -0.27760646523E+03  0.29699756890E+03  0.77745375762E+02 0.  0.
          6    2    1    2  501    0  0.20219531229E+02 -0.38384240414E+02 -0.56720170376E+01  0.15572125713E+03  0.14944818095E+03 0.  0.
         24    2    5    5    0    0 -0.34738250842E+00 -0.28760532703E+02  0.48291838467E+02  0.96986247201E+02  0.79037595912E+02 0.  0.
          5    1    5    5  501    0  0.20566913738E+02 -0.96237077109E+01 -0.53963855505E+02  0.58735009932E+02  0.47000000000E+01 0. -1.
        -11    1    6    6    0    0 -0.34779580245E+02 -0.33691286763E+02  0.35011066546E+02  0.59753634085E+02  0.00000000000E+00 0.  1.
         12    1    6    6    0    0  0.34432197737E+02  0.49307540594E+01  0.13280771922E+02  0.37232613116E+02  0.00000000000E+00 0. -1.
         -5    1    3    3    0  503  0.51179740255E+02  0.38467778430E+02 -0.82104987311E+02  0.10422310076E+03  0.47000000000E+01 0.  1.
         11    1    4    4    0    0 -0.60848387948E+02  0.27997427483E+02 -0.12855909947E+03  0.14496145804E+03  0.00000000000E+00 0. -1.
        -12    1    4    4    0    0 -0.10550883536E+02 -0.28080965499E+02 -0.14904736576E+03  0.15203611086E+03  0.00000000000E+00 0.  1.
</event>
<event>
12    1  0.8344842E-002  0.1752811E+03  0.7818608E-02  0.1172656E+00
         21   -1    0    0  501  502  0.00000000000E+00  0.00000000000E+00  0.21207584126E+03  0.21207584126E+03  0.00000000000E+00 0. -1.
         21   -1    0    0  502  503 -0.00000000000E+00 -0.00000000000E+00 -0.24069324111E+03  0.24069324111E+03  0.00000000000E+00 0. -1.
         -6    2    1    2    0  503  0.24580109180E+02 -0.16513823517E+02 -0.15767217805E+03  0.23576251732E+03  0.17276157185E+03 0.  0.
        -24    2    3    3    0    0  0.44809858013E+02 -0.68396693323E+02 -0.78803060689E+02  0.13910072244E+03  0.80330925401E+02 0.  0.
          6    2    1    2  501    0 -0.24580109180E+02  0.16513823517E+02  0.12905477820E+03  0.21700656504E+03  0.17192971052E+03 0.  0.
         24    2    5    5    0    0 -0.14764711924E+02 -0.32033007696E+02  0.11012439987E+02  0.88908085518E+02  0.80865712980E+02 0.  0.
          5    1    5    5  501    0 -0.98153972562E+01  0.48546831212E+02  0.11804233821E+03  0.12809847952E+03  0.47000000000E+01 0. -1.
        -11    1    6    6    0    0 -0.34934552288E+02 -0.35519551973E+02  0.32301123435E+02  0.59375281819E+02  0.00000000000E+00 0.  1.
         12    1    6    6    0    0  0.20169840364E+02  0.34865442773E+01 -0.21288683448E+02  0.29532803698E+02  0.00000000000E+00 0. -1.
         -5    1    3    3    0  503 -0.20229748833E+02  0.51882869807E+02 -0.78869117362E+02  0.96661794887E+02  0.47000000000E+01 0.  1.
         13    1    4    4    0    0 -0.18280198683E+02 -0.17593310985E+01 -0.34596725404E+00  0.18367923213E+02  0.00000000000E+00 0. -1.
        -14    1    4    4    0    0  0.63090056696E+02 -0.66637362225E+02 -0.78457093435E+02  0.12073279922E+03  0.00000000000E+00 0.  1.
</event>
<event>
12    1  0.8344842E-002  0.2179743E+03  0.7818608E-02  0.1135863E+00
         21   -1    0    0  501  502  0.00000000000E+00  0.00000000000E+00  0.49699875875E+03  0.49699875875E+03  0.00000000000E+00 0.  1.
         21   -1    0    0  502  503 -0.00000000000E+00 -0.00000000000E+00 -0.33063222662E+03  0.33063222662E+03  0.00000000000E+00 0. -1.
         -6    2    1    2    0  503  0.12391230389E+03  0.26642689302E+02 -0.26636653759E+03  0.34418591688E+03  0.17733787267E+03 0.  0.
        -24    2    3    3    0    0  0.15970651136E+03  0.10420924177E+02 -0.21192464196E+03  0.27687781222E+03  0.78323071949E+02 0.  0.
          6    2    1    2  501    0 -0.12391230389E+03 -0.26642689302E+02  0.43273306973E+03  0.48344506849E+03  0.17434773491E+03 0.  0.
         24    2    5    5    0    0 -0.14313546515E+03 -0.52093920620E+02  0.29068651269E+03  0.33778584472E+03  0.79994314060E+02 0.  0.
          5    1    5    5  501    0  0.19223161267E+02  0.25451231318E+02  0.14204655704E+03  0.14565922378E+03  0.47000000000E+01 0. -1.
        -11    1    6    6    0    0 -0.67555302691E+02 -0.54669811832E+02  0.20962659175E+03  0.22692689399E+03  0.00000000000E+00 0.  1.
         12    1    6    6    0    0 -0.75580162463E+02  0.25758912126E+01  0.81059920934E+02  0.11085895072E+03  0.00000000000E+00 0. -1.
         -5    1    3    3    0  503 -0.35794207474E+02  0.16221765124E+02 -0.54441895632E+02  0.67308104657E+02  0.47000000000E+01 0.  1.
         13    1    4    4    0    0  0.14755591568E+03  0.27715335018E+01 -0.21631492586E+03  0.26186366071E+03  0.00000000000E+00 0. -1.
        -14    1    4    4    0    0  0.12150595682E+02  0.76493906756E+01  0.43902838951E+01  0.15014151518E+02  0.00000000000E+00 0.  1.
</event>
<event>
12    1  0.8344842E-002  0.2161008E+03  0.7818608E-02  0.1138192E+00
         21   -1    0    0  503  502  0.00000000000E+00  0.00000000000E+00  0.48428038428E+02  0.48428038428E+02  0.00000000000E+00 0.  1.
         21   -1    0    0  501  503 -0.00000000000E+00 -0.00000000000E+00 -0.10108344022E+04  0.10108344022E+04  0.00000000000E+00 0. -1.
          6    2    1    2  501    0 -0.61296621696E+02  0.10214397401E+03 -0.62067731596E+03  0.65493796068E+03  0.17179270800E+03 0.  0.
         24    2    3    3    0    0 -0.10106012536E+03  0.74991699994E+02 -0.34487271908E+03  0.37492251848E+03  0.76110436133E+02 0.  0.
         -6    2    1    2    0  502  0.61296621696E+02 -0.10214397401E+03 -0.34172904786E+03  0.40432448000E+03  0.18030217891E+03 0.  0.
        -24    2    5    5    0    0  0.57931289226E+02 -0.74187173906E+02 -0.97460672618E+02  0.15839351961E+03  0.82037511574E+02 0.  0.
          5    1    3    3  501    0  0.39763503663E+02  0.27152274020E+02 -0.27580459688E+03  0.28001544220E+03  0.47000000000E+01 0. -1.
        -13    1    4    4    0    0 -0.56768504200E+02  0.58296247145E+02 -0.11910819150E+03  0.14424935626E+03  0.00000000000E+00 0.  1.
         14    1    4    4    0    0 -0.44291621159E+02  0.16695452850E+02 -0.22576452758E+03  0.23067316221E+03  0.00000000000E+00 0. -1.
         -5    1    5    5    0  502  0.33653324703E+01 -0.27956800109E+02 -0.24426837524E+03  0.24593096039E+03  0.47000000000E+01 0.  1.
         13    1    6    6    0    0 -0.16127035478E+02 -0.20467684190E+02 -0.47432144578E+02  0.54118533874E+02  0.00000000000E+00 0. -1.
        -14    1    6    6    0    0  0.74058324704E+02 -0.53719489716E+02 -0.50028528040E+02  0.10427498574E+03  0.00000000000E+00 0.  1.
</event>
<event>
12    1  0.8344842E-002  0.2863080E+03  0.7818608E-02  0.1093231E+00
         21   -1    0    0  503  502  0.00000000000E+00  0.00000000000E+00  0.16270248716E+04  0.16270248716E+04  0.00000000000E+00 0. -1.
         21   -1    0    0  501  503 -0.00000000000E+00 -0.00000000000E+00 -0.49170472351E+02  0.49170472351E+02  0.00000000000E+00 0.  1.
          6    2    1    2  501    0 -0.19173643661E+03 -0.10966440499E+03  0.81004672733E+03  0.85915537844E+03  0.18216234788E+03 0.  0.
         24    2    3    3    0    0 -0.50936560023E+02 -0.30680637799E+02  0.49172211010E+03  0.50220203042E+03  0.82948243558E+02 0.  0.
         -6    2    1    2    0  502  0.19173643661E+03  0.10966440499E+03  0.76780767191E+03  0.81703996551E+03  0.17098696252E+03 0.  0.
        -24    2    5    5    0    0  0.13976678441E+03  0.14440545512E+03  0.57651365311E+03  0.61573602382E+03  0.79844657361E+02 0.  0.
          5    1    3    3  501    0 -0.14079987658E+03 -0.78983767192E+02  0.31832461723E+03  0.35695334802E+03  0.47000000000E+01 0. -1.
        -11    1    4    4    0    0  0.23102791144E+02 -0.10095475488E+02  0.12132122915E+03  0.12391326897E+03  0.00000000000E+00 0.  1.
         12    1    4    4    0    0 -0.74039351166E+02 -0.20585162310E+02  0.37040088095E+03  0.37828876145E+03  0.00000000000E+00 0. -1.
         -5    1    5    5    0  502  0.51969652196E+02 -0.34741050128E+02  0.19129401880E+03  0.20130394169E+03  0.47000000000E+01 0.  1.
         11    1    6    6    0    0  0.21776828327E+02  0.77204060799E+02  0.22843595155E+03  0.24211088620E+03  0.00000000000E+00 0. -1.
        -12    1    6    6    0    0  0.11798995608E+03  0.67201394320E+02  0.34807770157E+03  0.37362513762E+03  0.00000000000E+00 0.  1.
</event>
<event>
12    1  0.8344842E-002  0.2079648E+03  0.7818608E-02  0.1143332E+00
         21   -1    0    0  501  502  0.00000000000E+00  0.00000000000E+00  0.35372800928E+02  0.35372800928E+02  0.00000000000E+00 0.  1.
         21   -1    0    0  502  503 -0.00000000000E+00 -0.00000000000E+00 -0.12558731305E+04  0.12558731305E+04  0.00000000000E+00 0.  1.
         -6    2    1    2    0  503  0.45189989327E+02  0.10809209761E+03 -0.72065993496E+03  0.74986826229E+03  0.17095505912E+03 0.  0.
        -24    2    3    3    0    0  0.74808383346E+00  0.86923531198E+02 -0.24854129296E+03  0.27516699487E+03  0.79923969217E+02 0.  0.
          6    2    1    2  501    0 -0.45189989327E+02 -0.10809209761E+03 -0.49984039463E+03  0.54137766915E+03  0.17182352532E+03 0.  0.
         24    2    5    5    0    0 -0.64378832230E+02 -0.12023972476E+03 -0.49231184483E+03  0.51699436340E+03  0.79435469248E+02 0.  0.
          5    1    5    5  501    0  0.19188842903E+02  0.12147627154E+02 -0.75285498002E+01  0.24383305755E+02  0.47000000000E+01 0. -1.
        -13    1    6    6    0    0 -0.46500494992E+02 -0.41693776974E+02 -0.32923641762E+03  0.33510787183E+03  0.00000000000E+00 0.  1.
         14    1    6    6    0    0 -0.17878337238E+02 -0.78545947786E+02 -0.16307542721E+03  0.18188649157E+03  0.00000000000E+00 0. -1.
         -5    1    3    3    0  503  0.44441905494E+02  0.21168566408E+02 -0.47211864200E+03  0.47470126742E+03  0.47000000000E+01 0.  1.
         13    1    4    4    0    0 -0.32525804673E+02  0.36266056911E+02 -0.60938905576E+02  0.78017338242E+02  0.00000000000E+00 0. -1.
        -14    1    4    4    0    0  0.33273888506E+02  0.50657474287E+02 -0.18760238738E+03  0.19714965663E+03  0.00000000000E+00 0.  1.
</event>
<event>
12    1  0.8344842E-002  0.3463532E+03  0.7818608E-02  0.1064374E+00
         21   -1    0    0  503  502  0.00000000000E+00  0.00000000000E+00  0.74975181314E+03  0.74975181314E+03  0.00000000000E+00 0. -1.
         21   -1    0    0  501  503 -0.00000000000E+00 -0.00000000000E+00 -0.32424361660E+03  0.32424361660E+03  0.00000000000E+00 0.  1.
          6    2    1    2  501    0  0.18598482072E+03 -0.23281118696E+03 -0.17109383487E+03  0.38414434070E+03  0.17176254495E+03 0.  0.
         24    2    3    3    0    0  0.20418929182E+03 -0.16678406057E+03 -0.13193576388E+03  0.30510998923E+03  0.78580340973E+02 0.  0.
         -6    2    1    2    0  502 -0.18598482072E+03  0.23281118696E+03  0.59660203141E+03  0.68985108905E+03  0.17654783732E+03 0.  0.
        -24    2    5    5    0    0 -0.16428643298E+02  0.83745804173E+02  0.16284526197E+03  0.20083492297E+03  0.80825904892E+02 0.  0.
          5    1    3    3  501    0 -0.18204471099E+02 -0.66027126392E+02 -0.39158070991E+02  0.79034351464E+02  0.47000000000E+01 0. -1.
        -11    1    4    4    0    0  0.15245332826E+03 -0.97203439922E+02 -0.12136470573E+03  0.21776114857E+03  0.00000000000E+00 0.  1.
         12    1    4    4    0    0  0.51735963555E+02 -0.69580620647E+02 -0.10571058150E+02  0.87348840662E+02  0.00000000000E+00 0. -1.
         -5    1    5    5    0  502 -0.16955617742E+03  0.14906538279E+03  0.43375676944E+03  0.48901616608E+03  0.47000000000E+01 0.  1.
         11    1    6    6    0    0 -0.41174823235E+02  0.35366589206E+02  0.43005968290E+02  0.69250812335E+02  0.00000000000E+00 0. -1.
        -12    1    6    6    0    0  0.24746179937E+02  0.48379214967E+02  0.11983929368E+03  0.13158411063E+03  0.00000000000E+00 0.  1.
</event>
<event>
12    1  0.8344842E-002  0.2224921E+03  0.7818608E-02  0.1132184E+00
         21   -1    0    0  501  502  0.00000000000E+00  0.00000000000E+00  0.22226723014E+03  0.22226723014E+03  0.00000000000E+00 0. -1.
         21   -1    0    0  502  503 -0.00000000000E+00 -0.00000000000E+00 -0.33541881162E+03  0.33541881162E+03  0.00000000000E+00 0. -1.
         -6    2    1    2    0  503  0.88523630329E+02  0.10916464036E+03 -0.21870715644E+03  0.31142460555E+03  0.17146169495E+03 0.  0.
        -24    2    3    3    0    0  0.70788471772E+02  0.90914431269E+02 -0.23996832849E+03  0.27793231662E+03  0.79907023412E+02 0.  0.
          6    2    1    2  501    0 -0.88523630329E+02 -0.10916464036E+03  0.10555557495E+03  0.24626143621E+03  0.17248003864E+03 0.  0.
         24    2    5    5    0    0 -0.67843612544E+02 -0.13556270281E+03  0.11983474693E+03  0.20951221051E+03  0.80962939806E+02 0.  0.
          5    1    5    5  501    0 -0.20680017785E+02  0.26398062457E+02 -0.14279171985E+02  0.36749225701E+02  0.47000000000E+01 0. -1.
        -11    1    6    6    0    0  0.18176634063E+02 -0.34625030539E+02  0.23894196031E+02  0.45828106765E+02  0.00000000000E+00 0.  1.
         12    1    6    6    0    0 -0.86020246607E+02 -0.10093767228E+03  0.95940550900E+02  0.16368410374E+03  0.00000000000E+00 0. -1.
         -5    1    3    3    0  503  0.17735158557E+02  0.18250209088E+02  0.21261172058E+02  0.33492288934E+02  0.47000000000E+01 0.  1.
         11    1    4    4    0    0  0.80528173798E+02  0.84055908584E+02 -0.16444559477E+03  0.20147589479E+03  0.00000000000E+00 0. -1.
        -12    1    4    4    0    0 -0.97397020262E+01  0.68585226855E+01 -0.75522733722E+02  0.76456421822E+02  0.00000000000E+00 0.  1.
</event>
<event>
12    1  0.8344842E-002  0.2073127E+03  0.7818608E-02  0.1145288E+00
         21   -1    0    0  503  502  0.00000000000E+00  0.00000000000E+00  0.19927368752E+03  0.19927368752E+03  0.00000000000E+00 0.  1.
         21   -1    0    0  501  503 -0.00000000000E+00 -0.00000000000E+00 -0.32949332666E+03  0.32949332666E+03  0.00000000000E+00 0.  1.
          6    2    1    2  501    0 -0.87321769009E+02  0.46532641108E+02 -0.22656089646E+03  0.30709672437E+03  0.18217623413E+03 0.  0.
         24    2    3    3    0    0 -0.15399386472E+02  0.47251134531E+02 -0.21570153167E+03  0.23420391851E+03  0.76514795060E+02 0.  0.
         -6    2    1    2    0  502  0.87321769009E+02 -0.46532641108E+02  0.96341257331E+02  0.22167028981E+03  0.17339464089E+03 0.  0.
        -24    2    5    5    0    0  0.13057776338E+02  0.19677322017E+02  0.88553355658E+02  0.12176212579E+03  0.80166177122E+02 0.  0.
          5    1    3    3  501    0 -0.71922382537E+02 -0.71849342266E+00 -0.10859364795E+02  0.72892805861E+02  0.47000000000E+01 0. -1.
        -11    1    4    4    0    0 -0.88323465180E+01  0.21726251247E+02 -0.79150098257E+01  0.24752529544E+02  0.00000000000E+00 0.  1.
         12    1    4    4    0    0 -0.65670399543E+01  0.25524883284E+02 -0.20778652184E+03  0.20945138897E+03  0.00000000000E+00 0. -1.
         -5    1    5    5    0  502  0.74263992671E+02 -0.66209963125E+02  0.77879016732E+01  0.99908164016E+02  0.47000000000E+01 0.  1.
         11    1    6    6    0    0  0.43089173186E+02  0.29218589548E+02  0.55237323656E+02  0.75904971812E+02  0.00000000000E+00 0. -1.
        -12    1    6    6    0    0 -0.30031396848E+02 -0.95412675316E+01  0.33316032002E+02  0.45857153980E+02  0.00000000000E+00 0.  1.
</event>
<event>
12    1  0.8344842E-002  0.6550317E+03  0.7818608E-02  0.9797541E-01
         21   -1    0    0  503  502  0.00000000000E+00  0.00000000000E+00  0.97792998821E+03  0.97792998821E+03  0.00000000000E+00 0.  1.
         21   -1    0    0  501  503 -0.00000000000E+00 -0.00000000000E+00 -0.43895604292E+03  0.43895604292E+03  0.00000000000E+00 0. -1.
          6    2    1    2  501    0 -0.19612212692E+03  0.60063653250E+03  0.24714583130E+03  0.69978761573E+03  0.17144536260E+03 0.  0.
         24    2    3    3    0    0 -0.19469458983E+03  0.39111467476E+03  0.18599307411E+03  0.48146859126E+03  0.79636101325E+02 0.  0.
         -6    2    1    2    0  502  0.19612212692E+03 -0.60063653250E+03  0.29182811399E+03  0.71709841540E+03  0.17273782567E+03 0.  0.
        -24    2    5    5    0    0  0.59252084589E+02 -0.12691975931E+03  0.80817949822E+02  0.18073252437E+03  0.80704829584E+02 0.  0.
          5    1    3    3  501    0 -0.14275370959E+01  0.20952185774E+03  0.61152757191E+02  0.21831902447E+03  0.47000000000E+01 0. -1.
        -11    1    4    4    0    0 -0.19653593585E+02  0.76925327549E+02  0.63022055550E+02  0.10136838385E+03  0.00000000000E+00 0.  1.
         12    1    4    4    0    0 -0.17504099624E+03  0.31418934721E+03  0.12297101856E+03  0.38010020740E+03  0.00000000000E+00 0. -1.
         -5    1    5    5    0  502  0.13687004233E+03 -0.47371677318E+03  0.21101016417E+03  0.53636589103E+03  0.47000000000E+01 0.  1.
         13    1    6    6    0    0 -0.11880173305E+02 -0.31661688691E+02 -0.48953781986E+01  0.34169661635E+02  0.00000000000E+00 0. -1.
        -14    1    6    6    0    0  0.71132257895E+02 -0.95258070624E+02  0.85713328021E+02  0.14656286273E+03  0.00000000000E+00 0.  1.
</event>
<event>
12    1  0.8344842E-002  0.1722631E+03  0.7818608E-02  0.1176192E+00
         21   -1    0    0  503  502  0.00000000000E+00  0.00000000000E+00  0.63220947058E+02  0.63220947058E+02  0.00000000000E+00 0. -1.
         21   -1    0    0  501  503 -0.00000000000E+00 -0.00000000000E+00 -0.77952743557E+03  0.77952743557E+03  0.00000000000E+00 0. -1.
          6    2    1    2  501    0  0.16372505332E+02  0.13830029878E+00 -0.62864297319E+03  0.65181788745E+03  0.17148321376E+03 0.  0.
         24    2    3    3    0    0  0.70307550764E+02 -0.56625676973E+01 -0.51797233504E+03  0.52847803443E+03  0.77578841432E+02 0.  0.
         -6    2    1    2    0  502 -0.16372505332E+02 -0.13830029878E+00 -0.87663515316E+02  0.19093049517E+03  0.16882382537E+03 0.  0.
        -24    2    5    5    0    0 -0.39148149472E+02  0.51919587280E+02 -0.31472395158E+02  0.11087872686E+03  0.84115154775E+02 0.  0.
          5    1    3    3  501    0 -0.53935045432E+02  0.58008679961E+01 -0.11067063816E+03  0.12333985303E+03  0.47000000000E+01 0. -1.
        -11    1    4    4    0    0  0.57351668445E+02  0.30095707532E+02 -0.37400172308E+03  0.37956851074E+03  0.00000000000E+00 0.  1.
         12    1    4    4    0    0  0.12955882318E+02 -0.35758275229E+02 -0.14397061196E+03  0.14890952368E+03  0.00000000000E+00 0. -1.
         -5    1    5    5    0  502  0.22775644140E+02 -0.52057887579E+02 -0.56191120158E+02  0.80051768311E+02  0.47000000000E+01 0.  1.
         13    1    6    6    0    0 -0.34299695210E+02 -0.32808895687E+00  0.18021341883E+02  0.38747199861E+02  0.00000000000E+00 0. -1.
        -14    1    6    6    0    0 -0.48484542622E+01  0.52247676237E+02 -0.49493737041E+02  0.72131526998E+02  0.00000000000E+00 0.  1.
</event>
<event>
12    1  0.8344842E-002  0.4214364E+03  0.7818608E-02  0.1036618E+00
         21   -1    0    0  501  502  0.00000000000E+00  0.00000000000E+00  0.12611196563E+03  0.12611196563E+03  0.00000000000E+00 0.  1.
         21   -1    0    0  502  503 -0.00000000000E+00 -0.00000000000E+00 -0.18446638332E+04  0.18446638332E+04  0.00000000000E+00 0. -1.
         -6    2    1    2    0  503 -0.38047541579E+03 -0.56515146481E+02 -0.13387562780E+04  0.14034545813E+04  0.17164173723E+03 0.  0.
        -24    2    3    3    0    0 -0.33084682010E+03 -0.72269132590E+02 -0.12718693369E+04  0.13185597140E+04  0.79155944038E+02 0.  0.
          6    2    1    2  501    0  0.38047541579E+03  0.56515146481E+02 -0.37979558955E+03  0.56732121756E+03  0.17220095889E+03 0.  0.
         24    2    5    5    0    0  0.83991987648E+02 -0.17620338446E+02 -0.89903920481E+02  0.14606385788E+03  0.76725519507E+02 0.  0.
          5    1    5    5  501    0  0.29648342815E+03  0.74135484927E+02 -0.28989166907E+03  0.42125735968E+03  0.47000000000E+01 0. -1.
        -13    1    6    6    0    0  0.86699305315E+02 -0.23820040108E+02 -0.44799195520E+02  0.10045462544E+03  0.00000000000E+00 0.  1.
         14    1    6    6    0    0 -0.27073176669E+01  0.61997016625E+01 -0.45104724961E+02  0.45609232437E+02  0.00000000000E+00 0. -1.
         -5    1    3    3    0  503 -0.49628595692E+02  0.15753986109E+02 -0.66886941127E+02  0.84894867231E+02  0.47000000000E+01 0.  1.
         11    1    4    4    0    0 -0.10706078959E+03  0.18534251567E+01 -0.30096852075E+03  0.31944874133E+03  0.00000000000E+00 0. -1.
        -12    1    4    4    0    0 -0.22378603051E+03 -0.74122557747E+02 -0.97090081612E+03  0.99911097270E+03  0.00000000000E+00 0.  1.
</event>
<event>
12    1  0.8344842E-002  0.2140945E+03  0.7818608E-02  0.1138834E+00
         21   -1    0    0  503  502  0.00000000000E+00  0.00000000000E+00  0.19752339709E+03  0.19752339709E+03  0.00000000000E+00 0.  1.
         21   -1    0    0  501  503 -0.00000000000E+00 -0.00000000000E+00 -0.26476348300E+03  0.26476348300E+03  0.00000000000E+00 0.  1.
          6    2    1    2  501    0  0.85273807606E+02 -0.89784437894E+02 -0.11820963335E+03  0.24456076070E+03  0.17465274320E+03 0.  0.
         24    2    3    3    0    0  0.10383877753E+03 -0.10004223489E+02 -0.70472650542E+02  0.14963736924E+03  0.80884928100E+02 0.  0.
         -6    2    1    2    0  502 -0.85273807606E+02  0.89784437894E+02  0.50969547435E+02  0.21772611939E+03  0.17167964569E+03 0.  0.
        -24    2    5    5    0    0 -0.86256559268E+02  0.15781438381E+02  0.81655514322E+02  0.13746947915E+03  0.67386844897E+02 0.  0.
          5    1    3    3  501    0 -0.18564969921E+02 -0.79780214406E+02 -0.47736982804E+02  0.94923391459E+02  0.47000000000E+01 0. -1.
        -11    1    4    4    0    0 -0.10418508419E+02 -0.11824009505E+02 -0.17910226355E+02  0.23856418980E+02  0.00000000000E+00 0.  1.
         12    1    4    4    0    0  0.11425728595E+03  0.18197860164E+01 -0.52562424187E+02  0.12578095026E+03  0.00000000000E+00 0. -1.
         -5    1    5    5    0  502  0.98275166206E+00  0.74002999513E+02 -0.30685966887E+02  0.80256640234E+02  0.47000000000E+01 0.  1.
         11    1    6    6    0    0 -0.76935307334E+02 -0.12152114935E+02  0.43307581187E+02  0.89119369389E+02  0.00000000000E+00 0. -1.
        -12    1    6    6    0    0 -0.93212519338E+01  0.27933553316E+02  0.38347933134E+02  0.48350109764E+02  0.00000000000E+00 0.  1.
</event>
<event>
12    1  0.8344842E-002  0.2054979E+03  0.7818608E-02  0.1145307E+00
         21   -1    0    0  503  502  0.00000000000E+00  0.00000000000E+00  0.11404757260E+03  0.11404757260E+03  0.00000000000E+00 0.  1.
         21   -1    0    0  501  503 -0.00000000000E+00 -0.00000000000E+00 -0.36986227689E+03  0.36986227689E+03  0.00000000000E+00 0. -1.
          6    2    1    2  501    0  0.12409283136E+02  0.11106952340E+03 -0.11728253875E+03  0.23607819333E+03  0.17171863654E+03 0.  0.
         24    2    3    3    0    0  0.49454405252E+02  0.28317579931E+02 -0.13668867405E+02  0.98317138930E+02  0.78941740159E+02 0.  0.
         -6    2    1    2    0  502 -0.12409283136E+02 -0.11106952340E+03 -0.13853216555E+03  0.24783165616E+03  0.17244981754E+03 0.  0.
        -24    2    5    5    0    0  0.17067625412E+02 -0.53374103836E+01 -0.18024245683E+02  0.84759841890E+02  0.80867580512E+02 0.  0.
          5    1    3    3  501    0 -0.37045122116E+02  0.82751943464E+02 -0.10361367134E+03  0.13776105440E+03  0.47000000000E+01 0. -1.
        -11    1    4    4    0    0 -0.19371368508E+02 -0.20053413197E+01 -0.12418208766E+02  0.23097255695E+02  0.00000000000E+00 0.  1.
         12    1    4    4    0    0  0.68825773760E+02  0.30322921251E+02 -0.12506586388E+01  0.75219883235E+02  0.00000000000E+00 0. -1.
         -5    1    5    5    0  502 -0.29476908549E+02 -0.10573211301E+03 -0.12050791987E+03  0.16307181427E+03  0.47000000000E+01 0.  1.
         11    1    6    6    0    0  0.39943259849E+02 -0.18447511494E+02 -0.32483189794E+02  0.54689416772E+02  0.00000000000E+00 0. -1.
        -12    1    6    6    0    0 -0.22875634436E+02  0.13110101110E+02  0.14458944111E+02  0.30070425118E+02  0.00000000000E+00 0.  1.
</event>
<event>
12    1  0.8344842E-002  0.1898590E+03  0.7818608E-02  0.1158781E+00
         21   -1    0    0  503  502  0.00000000000E+00  0.00000000000E+00  0.22255743484E+03  0.22255743484E+03  0.00000000000E+00 0.  1.
         21   -1    0    0  501  503 -0.00000000000E+00 -0.00000000000E+00 -0.19375824123E+03  0.19375824123E+03  0.00000000000E+00 0.  1.
          6    2    1    2  501    0  0.13460941108E+02  0.79003490466E+02 -0.70904777256E+02  0.20186913080E+03  0.17117508607E+03 0.  0.
         24    2    3    3    0    0  0.63398375618E+02  0.45401281384E+02 -0.80535030360E+02  0.14073250025E+03  0.85082989658E+02 0.  0.
         -6    2    1    2    0  502 -0.13460941108E+02 -0.79003490466E+02  0.99703970859E+02  0.21444654527E+03  0.17211534078E+03 0.  0.
        -24    2    5    5    0    0 -0.25020884490E+02  0.16149377929E+02  0.21370183398E+02  0.90567681402E+02  0.82818917572E+02 0.  0.
          5    1    3    3  501    0 -0.49937434510E+02  0.33602209082E+02  0.96302531035E+01  0.61136630554E+02  0.47000000000E+01 0. -1.
        -11    1    4    4    0    0  0.10273026372E+02  0.54375476911E+02 -0.63493071624E+02  0.84223498529E+02  0.00000000000E+00 0.  1.
         12    1    4    4    0    0  0.53125349246E+02 -0.89741955276E+01 -0.17041958735E+02  0.56509001720E+02  0.00000000000E+00 0. -1.
         -5    1    5    5    0  502  0.11559943382E+02 -0.95152868395E+02  0.78333787461E+02  0.12387886387E+03  0.47000000000E+01 0.  1.
         13    1    6    6    0    0 -0.50928307064E+02  0.12513515034E+02 -0.59045821855E+01  0.52774469298E+02  0.00000000000E+00 0. -1.
        -14    1    6    6    0    0  0.25907422574E+02  0.36358628959E+01  0.27274765584E+02  0.37793212103E+02  0.00000000000E+00 0.  1.
</event>
<event>
12    1  0.8344842E-002  0.2025418E+03  0.7818608E-02  0.1147931E+00
         21   -1    0    0  501  502  0.00000000000E+00  0.00000000000E+00  0.57694374444E+03  0.57694374444E+03  0.00000000000E+00 0.  1.
         21   -1    0    0  502  503 -0.00000000000E+00 -0.00000000000E+00 -0.13143265459E+03  0.13143265459E+03  0.00000000000E+00 0.  1.
         -6    2    1    2    0  503 -0.56045401313E+02  0.87569041594E+02 -0.18726435413E+02  0.20187896103E+03  0.17203200711E+03 0.  0.
        -24    2    3    3    0    0 -0.18540700295E+02  0.11977907308E+03  0.83187058853E+01  0.14533147307E+03  0.79757459100E+02 0.  0.
          6    2    1    2  501    0  0.56045401313E+02 -0.87569041594E+02  0.46423752526E+03  0.50649743800E+03  0.17382103091E+03 0.  0.
         24    2    5    5    0    0  0.51259539111E+02 -0.96532975885E+02  0.20131949257E+03  0.24334113747E+03  0.82092723872E+02 0.  0.
          5    1    5    5  501    0  0.47858622016E+01  0.89639342909E+01  0.26291803269E+03  0.26315630053E+03  0.47000000000E+01 0. -1.
        -13    1    6    6    0    0  0.49711969036E+02 -0.10782661862E+02  0.71424636275E+02  0.87687081884E+02  0.00000000000E+00 0.  1.
         14    1    6    6    0    0  0.15475700752E+01 -0.85750314023E+02  0.12989485630E+03  0.15565405559E+03  0.00000000000E+00 0. -1.
         -5    1    3    3    0  503 -0.37504701018E+02 -0.32210031485E+02 -0.27045141298E+02  0.56547487960E+02  0.47000000000E+01 0.  1.
         11    1    4    4    0    0  0.13275170821E+02  0.19398221131E+01 -0.15992979487E+02  0.20875067977E+02  0.00000000000E+00 0. -1.
        -12    1    4    4    0    0 -0.31815871116E+02  0.11783925097E+03  0.24311685373E+02  0.12445640509E+03  0.00000000000E+00 0.  1.
</event>
<event>
12    1  0.8344842E-002  0.2330997E+03  0.7818608E-02  0.1124503E+00
         21   -1    0    0  501  502  0.00000000000E+00  0.00000000000E+00  0.31604707802E+03  0.31604707802E+03  0.00000000000E+00 0. -1.
         21   -1    0    0  502  503 -0.00000000000E+00 -0.00000000000E+00 -0.17868974074E+03  0.17868974074E+03  0.00000000000E+00 0. -1.
         -6    2    1    2    0  503 -0.14567741285E+03  0.59976351597E+02  0.20163615294E+02  0.23397022197E+03  0.17180344007E+03 0.  0.
        -24    2    3    3    0    0 -0.15185643924E+03  0.19863515379E+01  0.16724496937E+02  0.17536187778E+03  0.86068319650E+02 0.  0.
          6    2    1    2  501    0  0.14567741285E+03 -0.59976351597E+02  0.11719372198E+03  0.26076659679E+03  0.17159772190E+03 0.  0.
         24    2    5    5    0    0  0.17123479734E+02  0.51640811116E+01  0.33833592276E+01  0.77070439056E+02  0.74890080549E+02 0.  0.
          5    1    5    5  501    0  0.12855393312E+03 -0.65140432709E+02  0.11381036276E+03  0.18369615773E+03  0.47000000000E+01 0. -1.
        -13    1    6    6    0    0  0.20923096389E+02  0.37646202452E+02  0.86936788886E+01  0.43938509012E+02  0.00000000000E+00 0.  1.
         14    1    6    6    0    0 -0.37996166547E+01 -0.32482121341E+02 -0.53103196610E+01  0.33131930044E+02  0.00000000000E+00 0. -1.
         -5    1    3    3    0  503  0.61790263880E+01  0.57990000060E+02  0.34391183579E+01  0.58608344193E+02  0.47000000000E+01 0.  1.
         11    1    4    4    0    0 -0.11476917149E+03  0.33641676977E+02  0.32810437337E+02  0.12401713572E+03  0.00000000000E+00 0. -1.
        -12    1    4    4    0    0 -0.37087267749E+02 -0.31655325439E+02 -0.16085940400E+02  0.51344742051E+02  0.00000000000E+00 0.  1.
</event>
<event>
12    1  0.8344842E-002  0.2119449E+03  0.7818608E-02  0.1140689E+00
         21   -1    0    0  501  502  0.00000000000E+00  0.00000000000E+00  0.40139436351E+02  0.40139436351E+02  0.00000000000E+00 0.  1.
         21   -1    0    0  502  503 -0.00000000000E+00 -0.00000000000E+00 -0.11030239627E+04  0.11030239627E+04  0.00000000000E+00 0.  1.
         -6    2    1    2    0  503  0.94534428384E+02  0.74682101883E+02 -0.54720008614E+03  0.58562320225E+03  0.17033034451E+03 0.  0.
        -24    2    3    3    0    0 -0.35333681264E+01 -0.12513478619E+02 -0.26419930592E+03  0.27364260418E+03  0.70070890795E+02 0.  0.
          6    2    1    2  501    0 -0.94534428384E+02 -0.74682101883E+02 -0.51568444024E+03  0.55754019682E+03  0.17437446681E+03 0.  0.
         24    2    5    5    0    0 -0.34643264385E+01 -0.60417635417E+02 -0.15131959393E+03  0.18166645512E+03  0.80266986881E+02 0.  0.
          5    1    5    5  501    0 -0.91070101945E+02 -0.14264466467E+02 -0.36436484631E+03  0.37587374170E+03  0.47000000000E+01 0. -1.
        -11    1    6    6    0    0 -0.35963155083E+02 -0.39922074624E+02 -0.12208779160E+03  0.13338871550E+03  0.00000000000E+00 0.  1.
         12    1    6    6    0    0  0.32498828644E+02 -0.20495560793E+02 -0.29231802331E+02  0.48277739622E+02  0.00000000000E+00 0. -1.
         -5    1    3    3    0  503  0.98067796510E+02  0.87195580502E+02 -0.28300078021E+03  0.31198059807E+03  0.47000000000E+01 0.  1.
         11    1    4    4    0    0 -0.13679994144E+01  0.27545376058E+01  0.39746692520E+01  0.50256238899E+01  0.00000000000E+00 0. -1.
        -12    1    4    4    0    0 -0.21653687120E+01 -0.15268016225E+02 -0.26817397517E+03  0.26861698029E+03  0.00000000000E+00 0.  1.
</event>
<event>
12    1  0.8344842E-002  0.2500637E+03  0.7818608E-02  0.1113787E+00
         21   -1    0    0  501  502  0.00000000000E+00  0.00000000000E+00  0.62548313292E+03  0.62548313292E+03  0.00000000000E+00 0. -1.
         21   -1    0    0  502  503 -0.00000000000E+00 -0.00000000000E+00 -0.11997564390E+03  0.11997564390E+03  0.00000000000E+00 0.  1.
         -6    2    1    2    0  503 -0.11250023014E+03  0.14274901289E+03  0.94288002038E+02  0.26417576385E+03  0.16692820137E+03 0.  0.
        -24    2    3    3    0    0 -0.16976757135E+02  0.28654108244E+02  0.70350931626E+02  0.11338632622E+03  0.82449603940E+02 0.  0.
          6    2    1    2  501    0  0.11250023014E+03 -0.14274901289E+03  0.41121948698E+03  0.48128301297E+03  0.17175066126E+03 0.  0.
         24    2    5    5    0    0  0.28470253098E+02 -0.12985018293E+03  0.19802763051E+03  0.25171760939E+03  0.80468547358E+02 0.  0.
          5    1    5    5  501    0  0.84029977044E+02 -0.12898829956E+02  0.21319185647E+03  0.22956540358E+03  0.47000000000E+01 0. -1.
        -11    1    6    6    0    0  0.10614058581E+02 -0.51300587235E+02  0.19572363266E+02  0.55923929530E+02  0.00000000000E+00 0.  1.
         12    1    6    6    0    0  0.17856194517E+02 -0.78549595697E+02  0.17845526725E+03  0.19579367986E+03  0.00000000000E+00 0. -1.
         -5    1    3    3    0  503 -0.95523473007E+02  0.11409490464E+03  0.23937070412E+02  0.15078943763E+03  0.47000000000E+01 0.  1.
         13    1    4    4    0    0 -0.29595194146E+02 -0.30819377418E+00  0.75758925709E+02  0.81335019054E+02  0.00000000000E+00 0. -1.
        -14    1    4    4    0    0  0.12618437011E+02  0.28962302018E+02 -0.54079940825E+01  0.32051307162E+02  0.00000000000E+00 0.  1.
</event>
<event>
12    1  0.8344842E-002  0.2024778E+03  0.7818608E-02  0.1149368E+00
         21   -1    0    0  501  502  0.00000000000E+00  0.00000000000E+00  0.74923042928E+02  0.74923042928E+02  0.00000000000E+00 0. -1.
         21   -1    0    0  502  503 -0.00000000000E+00 -0.00000000000E+00 -0.57882399035E+03  0.57882399035E+03  0.00000000000E+00 0. -1.
         -6    2    1    2    0  503 -0.24930829676E+02  0.10394845744E+03 -0.15758161569E+03  0.25657204742E+03  0.17196052408E+03 0.  0.
        -24    2    3    3    0    0  0.73634415157E+01  0.11232695280E+03 -0.55547679799E+02  0.14911911256E+03  0.80494722833E+02 0.  0.
          6    2    1    2  501    0  0.24930829676E+02 -0.10394845744E+03 -0.34631933173E+03  0.39717498585E+03  0.16243171422E+03 0.  0.
         24    2    5    5    0    0  0.88587487041E+01 -0.87068405477E+01 -0.80590774709E+02  0.11439762928E+03  0.80235018014E+02 0.  0.
          5    1    5    5  501    0  0.16072080972E+02 -0.95241616888E+02 -0.26572855702E+03  0.28277735657E+03  0.47000000000E+01 0. -1.
        -13    1    6    6    0    0 -0.10865855025E+02  0.32942708357E+02 -0.40409650031E+02  0.53256254609E+02  0.00000000000E+00 0.  1.
         14    1    6    6    0    0  0.19724603729E+02 -0.41649548905E+02 -0.40181124678E+02  0.61141374671E+02  0.00000000000E+00 0. -1.
         -5    1    3    3    0  503 -0.32294271192E+02 -0.83784953655E+01 -0.10203393589E+03  0.10745293486E+03  0.47000000000E+01 0.  1.
         13    1    4    4    0    0  0.10141526296E+02  0.76983111587E+02 -0.75613219324E+02  0.10838177412E+03  0.00000000000E+00 0. -1.
        -14    1    4    4    0    0 -0.27780847802E+01  0.35343841214E+02  0.20065539525E+02  0.40737338441E+02  0.00000000000E+00 0.  1.
</event>
<event>
12    1  0.8344842E-002  0.1927599E+03  0.7818608E-02  0.1156369E+00
         21   -1    0    0  501  502  0.00000000000E+00  0.00000000000E+00  0.15260272894E+03  0.15260272894E+03  0.00000000000E+00 0. -1.
         21   -1    0    0  502  503 -0.00000000000E+00 -0.00000000000E+00 -0.28960416979E+03  0.28960416979E+03  0.00000000000E+00 0. -1.
         -6    2    1    2    0  503  0.46202205845E+02  0.74312520423E+02  0.21487771769E+02  0.19395390320E+03  0.17175388704E+03 0.  0.
        -24    2    3    3    0    0  0.43187957416E+02  0.58957264989E+02  0.79210689387E+02  0.13396311406E+03  0.79565217620E+02 0.  0.
          6    2    1    2  501    0 -0.46202205845E+02 -0.74312520423E+02 -0.15848921262E+03  0.24825299553E+03  0.16986384181E+03 0.  0.
         24    2    5    5    0    0 -0.49252718677E+02  0.17222256844E+02 -0.44095144961E+02  0.10163780602E+03  0.75255733180E+02 0.  0.
          5    1    5    5  501    0  0.30505128321E+01 -0.91534777267E+02 -0.11439406765E+03  0.14661518950E+03  0.47000000000E+01 0. -1.
        -13    1    6    6    0    0 -0.98221447016E+00  0.24886408039E+02  0.11654192872E+02  0.27497604657E+02  0.00000000000E+00 0.  1.
         14    1    6    6    0    0 -0.48270504207E+02 -0.76641511957E+01 -0.55749337833E+02  0.74140201367E+02  0.00000000000E+00 0. -1.
         -5    1    3    3    0  503  0.30142484285E+01  0.15355255434E+02 -0.57722917618E+02  0.59990789138E+02  0.47000000000E+01 0.  1.
         11    1    4    4    0    0  0.25087427553E+02 -0.45500309053E+01  0.59994556970E+02  0.65187641992E+02  0.00000000000E+00 0. -1.
        -12    1    4    4    0    0  0.18100529864E+02  0.63507295894E+02  0.19216132417E+02  0.68775472068E+02  0.00000000000E+00 0.  1.
</event>
<event>
12    1  0.8344842E-002  0.2203027E+03  0.7818608E-02  0.1133877E+00
         21   -1    0    0  501  502  0.00000000000E+00  0.00000000000E+00  0.91821451636E+03  0.91821451636E+03  0.00000000000E+00 0. -1.
         21   -1    0    0  502  503 -0.00000000000E+00 -0.00000000000E+00 -0.20517263089E+03  0.20517263089E+03  0.00000000000E+00 0. -1.
         -6    2    1    2    0  503 -0.13430049753E+03  0.26461834848E+02 -0.12764544479E+03  0.25461077912E+03  0.17261644454E+03 0.  0.
        -24    2    3    3    0    0 -0.84820123358E+02 -0.25298524360E+02 -0.13773796118E+03  0.18214429651E+03  0.79814347972E+02 0.  0.
          6    2    1    2  501    0  0.13430049753E+03 -0.26461834848E+02  0.84068733026E+03  0.86877636813E+03  0.17111498538E+03 0.  0.
         24    2    5    5    0    0  0.58359649306E+02 -0.65446215315E+02  0.63661289770E+03  0.64751801603E+03  0.79464103829E+02 0.  0.
          5    1    5    5  501    0  0.75940848228E+02  0.38984380467E+02  0.20407443256E+03  0.22125835210E+03  0.47000000000E+01 0. -1.
        -13    1    6    6    0    0  0.68641100059E+02 -0.49277896561E+02  0.34204190621E+03  0.35232453407E+03  0.00000000000E+00 0.  1.
         14    1    6    6    0    0 -0.10281450753E+02 -0.16168318755E+02  0.29457099149E+03  0.29519348195E+03  0.00000000000E+00 0. -1.
         -5    1    3    3    0  503 -0.49480374176E+02  0.51760359208E+02  0.10092516384E+02  0.72466482603E+02  0.47000000000E+01 0.  1.
         11    1    4    4    0    0 -0.58859777652E+02 -0.54383345124E+02 -0.95368174308E+02  0.12456769374E+03  0.00000000000E+00 0. -1.
        -12    1    4    4    0    0 -0.25960345706E+02  0.29084820764E+02 -0.42369786868E+02  0.57576602776E+02  0.00000000000E+00 0.  1.
</event>
<event>
12    1  0.8344842E-002  0.1949463E+03  0.7818608E-02  0.1154375E+00
         21   -1    0    0  501  502  0.00000000000E+00  0.00000000000E+00  0.75685096305E+03  0.75685096305E+03  0.00000000000E+00 0. -1.
         21   -1    0    0  502  503 -0.00000000000E+00 -0.00000000000E+00 -0.18064584977E+03  0.18064584977E+03  0.00000000000E+00 0. -1.
         -6    2    1    2    0  503 -0.81921618284E+02 -0.42049183046E+02 -0.11102373550E+03  0.22315268324E+03  0.17026909543E+03 0.  0.
        -24    2    3    3    0    0 -0.11681623382E+03 -0.10600586269E+02 -0.82716629249E+02  0.16810696864E+03  0.87518610806E+02 0.  0.
          6    2    1    2  501    0  0.81921618284E+02  0.42049183046E+02  0.68722884878E+03  0.71434412957E+03  0.17182770301E+03 0.  0.
         24    2    5    5    0    0  0.55166111149E+02  0.73867270045E+02  0.63463612444E+03  0.64714046542E+03  0.86764613363E+02 0.  0.
          5    1    5    5  501    0  0.26755507135E+02 -0.31818086999E+02  0.52592724339E+02  0.67203664153E+02  0.47000000000E+01 0. -1.
        -13    1    6    6    0    0  0.16980861730E+02 -0.37021607510E+01  0.20184426214E+02  0.26635816506E+02  0.00000000000E+00 0.  1.
         14    1    6    6    0    0  0.38185249419E+02  0.77569430796E+02  0.61445169823E+03  0.62050464891E+03  0.00000000000E+00 0. -1.
         -5    1    3    3    0  503  0.34894615533E+02 -0.31448596777E+02 -0.28307106249E+02  0.55045714607E+02  0.47000000000E+01 0.  1.
         13    1    4    4    0    0 -0.47210826188E+02 -0.39377854269E+02 -0.67436077492E+02  0.91252956466E+02  0.00000000000E+00 0. -1.
        -14    1    4    4    0    0 -0.69605407629E+02  0.28777268000E+02 -0.15280551757E+02  0.76854012171E+02  0.00000000000E+00 0.  1.
</event>
<event>
12    1  0.8344842E-002  0.2724523E+03  0.7818608E-02  0.1101220E+00
         21   -1    0    0  501  502  0.00000000000E+00  0.00000000000E+00  0.31894079237E+03  0.31894079237E+03  0.00000000000E+00 0. -1.
         21   -1    0    0  502  503 -0.00000000000E+00 -0.00000000000E+00 -0.25538540047E+03  0.25538540047E+03  0.00000000000E+00 0.  1.
         -6    2    1    2    0  503 -0.17616317303E+03 -0.11614068755E+03 -0.67934327025E+02  0.27180375279E+03  0.15728981024E+03 0.  0.
        -24    2    3    3    0    0 -0.94586615915E+02 -0.31652460002E+02  0.14747784104E+02  0.12809774469E+03  0.79012840242E+02 0.  0.
          6    2    1    2  501    0  0.17616317303E+03  0.11614068755E+03  0.13148971893E+03  0.30252244006E+03  0.17236054572E+03 0.  0.
         24    2    5    5    0    0  0.79238174446E+02  0.63932872172E+02  0.14162128028E+03  0.19186599030E+03  0.79936667261E+02 0.  0.
          5    1    5    5  501    0  0.96924998580E+02  0.52207815375E+02 -0.10131561357E+02  0.11065644975E+03  0.47000000000E+01 0. -1.
        -13    1    6    6    0    0  0.26258631605E+02  0.18981929631E+02 -0.18526396403E+01  0.32453992973E+02  0.00000000000E+00 0.  1.
         14    1    6    6    0    0  0.52979542841E+02  0.44950942541E+02  0.14347391992E+03  0.15941199733E+03  0.00000000000E+00 0. -1.
         -5    1    3    3    0  503 -0.81576557111E+02 -0.84488227546E+02 -0.82682111129E+02  0.14370600810E+03  0.47000000000E+01 0.  1.
         13    1    4    4    0    0 -0.26560747975E+02 -0.50145135146E+02  0.72049236297E+01  0.57200689125E+02  0.00000000000E+00 0. -1.
        -14    1    4    4    0    0 -0.68025867940E+02  0.18492675145E+02  0.75428604738E+01  0.70897055561E+02  0.00000000000E+00 0.  1.
</event>
<event>
12    1  0.8344842E-002  0.2207687E+03  0.7818608E-02  0.1133651E+00
         21   -1    0    0  501  502  0.00000000000E+00  0.00000000000E+00  0.55336669177E+03  0.55336669177E+03  0.00000000000E+00 0. -1.
         21   -1    0    0  502  503 -0.00000000000E+00 -0.00000000000E+00 -0.26158210020E+03  0.26158210020E+03  0.00000000000E+00 0. -1.
         -6    2    1    2    0  503 -0.10424676607E+03  0.90698165050E+02 -0.18645653711E+03  0.28897206586E+03  0.17217801612E+03 0.  0.
        -24    2    3    3    0    0 -0.76999380251E+01  0.56422902270E+01 -0.11917901255E+03  0.14369940099E+03  0.79716725519E+02 0.  0.
          6    2    1    2  501    0  0.10424676607E+03 -0.90698165050E+02  0.47824112868E+03  0.52597672610E+03  0.16983342975E+03 0.  0.
         24    2    5    5    0    0  0.90865540105E+02  0.48088004407E+01  0.31170234028E+03  0.33347245159E+03  0.75933234425E+02 0.  0.
          5    1    5    5  501    0  0.13381225964E+02 -0.95506965491E+02  0.16653878840E+03  0.19250427451E+03  0.47000000000E+01 0. -1.
        -11    1    6    6    0    0  0.17933399296E+01 -0.13673092897E+02  0.69698245812E+01  0.15451472168E+02  0.00000000000E+00 0.  1.
         12    1    6    6    0    0  0.89072200176E+02  0.18481893338E+02  0.30473251570E+03  0.31802097942E+03  0.00000000000E+00 0. -1.
         -5    1    3    3    0  503 -0.96546828044E+02  0.85055874823E+02 -0.67277524556E+02  0.14527266487E+03  0.47000000000E+01 0.  1.
         11    1    4    4    0    0 -0.30658888116E+02  0.19335154177E+01 -0.11627213324E+03  0.12026185959E+03  0.00000000000E+00 0. -1.
        -12    1    4    4    0    0  0.22958950091E+02  0.37087748093E+01 -0.29068793132E+01  0.23437541407E+02  0.00000000000E+00 0.  1.
</event>
<event>
12    1  0.8344842E-002  0.2534680E+03  0.7818608E-02  0.1111628E+00
         21   -1    0    0  501  502  0.00000000000E+00  0.00000000000E+00  0.21780939313E+03  0.21780939313E+03  0.00000000000E+00 0.  1.
         21   -1    0    0  502  503 -0.00000000000E+00 -0.00000000000E+00 -0.70529974394E+03  0.70529974394E+03  0.00000000000E+00 0. -1.
         -6    2    1    2    0  503  0.17755610474E+03  0.59769963517E+02 -0.59800056237E+03  0.64950035994E+03  0.17072617286E+03 0.  0.
        -24    2    3    3    0    0  0.28436300968E+02  0.50491419611E+02 -0.17286842087E+03  0.19885389652E+03  0.79381197782E+02 0.  0.
          6    2    1    2  501    0 -0.17755610474E+03 -0.59769963517E+02  0.11051021156E+03  0.27360877714E+03  0.16598384619E+03 0.  0.
         24    2    5    5    0    0 -0.17417242952E+03 -0.42693809356E+02  0.38489107344E+02  0.19936476221E+03  0.78141541224E+02 0.  0.
          5    1    5    5  501    0 -0.33836752186E+01 -0.17076154161E+02  0.72021104220E+02  0.74244014924E+02  0.47000000000E+01 0. -1.
        -13    1    6    6    0    0 -0.41278050640E+02 -0.41845738460E+02 -0.63182187042E+01  0.59117367833E+02  0.00000000000E+00 0.  1.
         14    1    6    6    0    0 -0.13289437888E+03 -0.84807089673E+00  0.44807326048E+02  0.14024739438E+03  0.00000000000E+00 0. -1.
         -5    1    3    3    0  503  0.14911980377E+03  0.92785439061E+01 -0.42513214150E+03  0.45064646342E+03  0.47000000000E+01 0.  1.
         13    1    4    4    0    0  0.55700192906E+02  0.38129050782E+02 -0.13121402624E+03  0.14755831622E+03  0.00000000000E+00 0. -1.
        -14    1    4    4    0    0 -0.27263891938E+02  0.12362368829E+02 -0.41654394626E+02  0.51295580301E+02  0.00000000000E+00 0.  1.
</event>
<event>
12    1  0.8344842E-002  0.2089060E+03  0.7818608E-02  0.1142555E+00
         21   -1    0    0  503  502  0.00000000000E+00  0.00000000000E+00  0.41237651066E+03  0.41237651066E+03  0.00000000000E+00 0.  1.
         21   -1    0    0  501  503 -0.00000000000E+00 -0.00000000000E+00 -0.15282472888E+03  0.15282472888E+03  0.00000000000E+00 0. -1.
          6    2    1    2  501    0  0.97750402174E+02  0.67293102258E+02 -0.27571330943E+02  0.21012178630E+03  0.17119428743E+03 0.  0.
         24    2    3    3    0    0  0.99734886787E+02  0.51643119422E+01  0.24268374172E+02  0.12904546551E+03  0.78038839207E+02 0.  0.
         -6    2    1    2    0  502 -0.97750402174E+02 -0.67293102258E+02  0.28712311272E+03  0.35507945323E+03  0.17192508111E+03 0.  0.
        -24    2    5    5    0    0 -0.11809891625E+03 -0.56014608709E+02  0.29304334071E+03  0.33061712421E+03  0.79676175128E+02 0.  0.
          5    1    3    3  501    0 -0.19844846135E+01  0.62128790315E+02 -0.51839705114E+02  0.81076320782E+02  0.47000000000E+01 0. -1.
        -13    1    4    4    0    0 -0.86672040992E+01  0.99058981787E+01 -0.85376527087E+01  0.15688810006E+02  0.00000000000E+00 0.  1.
         14    1    4    4    0    0  0.10840209089E+03 -0.47415862364E+01  0.32806026880E+02  0.11335665551E+03  0.00000000000E+00 0. -1.
         -5    1    5    5    0  502  0.20348514074E+02 -0.11278493549E+02 -0.59202279839E+01  0.24462329021E+02  0.47000000000E+01 0.  1.
         13    1    6    6    0    0 -0.94747247652E+02 -0.24343077120E+02  0.12886699027E+03  0.16179099951E+03  0.00000000000E+00 0. -1.
        -14    1    6    6    0    0 -0.23351668595E+02 -0.31671531589E+02  0.16417635044E+03  0.16882612470E+03  0.00000000000E+00 0.  1.
</event>
<event>
12    1  0.8344842E-002  0.2859093E+03  0.7818608E-02  0.1092576E+00
         21   -1    0    0  503  502  0.00000000000E+00  0.00000000000E+00  0.71187309471E+02  0.71187309471E+02  0.00000000000E+00 0.  1.
         21   -1    0    0  501  503 -0.00000000000E+00 -0.00000000000E+00 -0.12177684882E+04  0.12177684882E+04  0.00000000000E+00 0. -1.
          6    2    1    2  501    0  0.89227501188E+02  0.21058735311E+03 -0.41647984915E+03  0.50486900880E+03  0.17067123670E+03 0.  0.
         24    2    3    3    0    0  0.39499038317E+02  0.16423154655E+03 -0.18598533485E+03  0.26451179142E+03  0.82727070012E+02 0.  0.
         -6    2    1    2    0  502 -0.89227501188E+02 -0.21058735311E+03 -0.73010132954E+03  0.78408678884E+03  0.17156794798E+03 0.  0.
        -24    2    5    5    0    0 -0.10124966966E+03 -0.19195681712E+03 -0.72494635127E+03  0.76084258081E+03  0.78963949351E+02 0.  0.
          5    1    3    3  501    0  0.49728462871E+02  0.46355806563E+02 -0.23049451431E+03  0.24035721738E+03  0.47000000000E+01 0. -1.
        -11    1    4    4    0    0  0.47920444602E+02  0.13500095110E+03 -0.18512668279E+03  0.23408014544E+03  0.00000000000E+00 0.  1.
         12    1    4    4    0    0 -0.84214062847E+01  0.29230595441E+02 -0.85865206252E+00  0.30431645980E+02  0.00000000000E+00 0. -1.
         -5    1    5    5    0  502  0.12022168473E+02 -0.18630535988E+02 -0.51549782658E+01  0.23244208030E+02  0.47000000000E+01 0.  1.
         13    1    6    6    0    0 -0.20126072584E+02 -0.80087427874E+02 -0.38743686276E+03  0.39613934104E+03  0.00000000000E+00 0. -1.
        -14    1    6    6    0    0 -0.81123597077E+02 -0.11186938925E+03 -0.33750948852E+03  0.36470323976E+03  0.00000000000E+00 0.  1.
</event>
<event>
12    1  0.8344842E-002  0.3144226E+03  0.7818608E-02  0.1078258E+00
         21   -1    0    0  501  502  0.00000000000E+00  0.00000000000E+00  0.19411617184E+03  0.19411617184E+03  0.00000000000E+00 0.  1.
         21   -1    0    0  502  503 -0.00000000000E+00 -0.00000000000E+00 -0.58935440974E+03  0.58935440974E+03  0.00000000000E+00 0.  1.
         -6    2    1    2    0  503 -0.24811129123E+03 -0.86902834026E+02 -0.53103577876E+02  0.31887549703E+03  0.17248268675E+03 0.  0.
        -24    2    3    3    0    0 -0.12364277841E+03 -0.42484052792E+02 -0.94549337102E+02  0.18029238202E+03  0.80457034945E+02 0.  0.
          6    2    1    2  501    0  0.24811129123E+03  0.86902834026E+02 -0.34213466002E+03  0.46459508454E+03  0.17228218595E+03 0.  0.
         24    2    5    5    0    0  0.26774392037E+03  0.78365621489E+02 -0.30183563044E+03  0.41872106236E+03  0.79966259992E+02 0.  0.
          5    1    5    5  501    0 -0.19632629147E+02  0.85372125373E+01 -0.40299029588E+02  0.45874022179E+02  0.47000000000E+01 0. -1.
        -11    1    6    6    0    0  0.13808260644E+03  0.71944958164E+02 -0.12682256192E+03  0.20081545114E+03  0.00000000000E+00 0.  1.
         12    1    6    6    0    0  0.12966131393E+03  0.64206633246E+01 -0.17501306852E+03  0.21790561122E+03  0.00000000000E+00 0. -1.
         -5    1    3    3    0  503 -0.12446851282E+03 -0.44418781234E+02  0.41445759226E+02  0.13858311501E+03  0.47000000000E+01 0.  1.
         11    1    4    4    0    0 -0.20958914529E+02  0.23269984016E+02 -0.23662875211E+02  0.39251750504E+02  0.00000000000E+00 0. -1.
        -12    1    4    4    0    0 -0.10268386388E+03 -0.65754036808E+02 -0.70886461892E+02  0.14104063151E+03  0.00000000000E+00 0.  1.
</event>
<event>
12    1  0.8344842E-002  0.1975910E+03  0.7818608E-02  0.1151948E+00
         21   -1    0    0  503  502  0.00000000000E+00  0.00000000000E+00  0.13037329730E+04  0.13037329730E+04  0.00000000000E+00 0. -1.
         21   -1    0    0  501  503 -0.00000000000E+00 -0.00000000000E+00 -0.30425364919E+02  0.30425364919E+02  0.00000000000E+00 0. -1.
          6    2    1    2  501    0  0.74104744433E+02 -0.62759029986E+02  0.54479714193E+03  0.57952234096E+03  0.17208140173E+03 0.  0.
         24    2    3    3    0    0 -0.23034849411E+01  0.17900481999E+02  0.15574354588E+03  0.17488798133E+03  0.77485615649E+02 0.  0.
         -6    2    1    2    0  502 -0.74104744433E+02  0.62759029986E+02  0.72851046614E+03  0.75463599695E+03  0.17122435465E+03 0.  0.
        -24    2    5    5    0    0 -0.51430920720E+02 -0.72212886342E+00  0.18756325504E+03  0.20948470143E+03  0.77834468046E+02 0.  0.
          5    1    3    3  501    0  0.76408229375E+02 -0.80659511985E+02  0.38905359605E+03  0.40463435963E+03  0.47000000000E+01 0. -1.
        -13    1    4    4    0    0 -0.36383185242E+02  0.38130022059E+00  0.10616627177E+03  0.11222815520E+03  0.00000000000E+00 0.  1.
         14    1    4    4    0    0  0.34079700301E+02  0.17519181779E+02  0.49577274117E+02  0.62659826138E+02  0.00000000000E+00 0. -1.
         -5    1    5    5    0  502 -0.22673823714E+02  0.63481158850E+02  0.54094721110E+03  0.54515129552E+03  0.47000000000E+01 0.  1.
         11    1    6    6    0    0 -0.50295905248E+02  0.31197016655E+02  0.14201164626E+03  0.15385135556E+03  0.00000000000E+00 0. -1.
        -12    1    6    6    0    0 -0.11350154721E+01 -0.31919145519E+02  0.45551608780E+02  0.55633345875E+02  0.00000000000E+00 0.  1.
</event>
<event>
12    1  0.8344842E-002  0.1755142E+03  0.7818608E-02  0.1172449E+00
         21   -1    0    0  503  502  0.00000000000E+00  0.00000000000E+00  0.15587249584E+03  0.15587249584E+03  0.00000000000E+00 0. -1.
         21   -1    0    0  501  503 -0.00000000000E+00 -0.00000000000E+00 -0.21297758513E+03  0.21297758513E+03  0.00000000000E+00 0. -1.
          6    2    1    2  501    0  0.28622993205E+02 -0.20090249147E+02  0.22678807564E+02  0.17605305321E+03  0.17104810839E+03 0.  0.
         24    2    3    3    0    0  0.42277449454E+02 -0.74014951592E+02  0.30994344386E+02  0.11961232446E+03  0.77979888355E+02 0.  0.
         -6    2    1    2    0  502 -0.28622993205E+02  0.20090249147E+02 -0.79783896859E+02  0.19279702775E+03  0.17199514488E+03 0.  0.
        -24    2    5    5    0    0 -0.79359632504E+02  0.96384866139E+01 -0.23555295612E+02  0.11619943311E+03  0.80972863404E+02 0.  0.
          5    1    3    3  501    0 -0.13654456249E+02  0.53924702445E+02 -0.83155368230E+01  0.56440728751E+02  0.47000000000E+01 0. -1.
        -11    1    4    4    0    0  0.96281660738E+01  0.69142263917E+01  0.30090147207E+02  0.32340764795E+02  0.00000000000E+00 0.  1.
         12    1    4    4    0    0  0.32649283380E+02 -0.80929177984E+02  0.90419717923E+00  0.87271559668E+02  0.00000000000E+00 0. -1.
         -5    1    5    5    0  502  0.50736639300E+02  0.10451762533E+02 -0.56228601247E+02  0.76597594646E+02  0.47000000000E+01 0.  1.
         13    1    6    6    0    0  0.80720357646E+01  0.22769254548E+02  0.17960295565E+01  0.24224418182E+02  0.00000000000E+00 0. -1.
        -14    1    6    6    0    0 -0.87431668269E+02 -0.13130767935E+02 -0.25351325169E+02  0.91975014926E+02  0.00000000000E+00 0.  1.
</event>
<event>
12    1  0.8344842E-002  0.2530150E+03  0.7818608E-02  0.1111504E+00
         21   -1    0    0  501  502  0.00000000000E+00  0.00000000000E+00  0.85181550176E+02  0.85181550176E+02  0.00000000000E+00 0.  1.
         21   -1    0    0  502  503 -0.00000000000E+00 -0.00000000000E+00 -0.75067602014E+03  0.75067602014E+03  0.00000000000E+00 0. -1.
         -6    2    1    2    0  503 -0.12359301152E+03 -0.13718009890E+03 -0.31893547116E+03  0.40710740206E+03  0.17298262924E+03 0.  0.
        -24    2    3    3    0    0 -0.13397048261E+03 -0.16248864416E+03 -0.27856024023E+03  0.35811287541E+03  0.79362298390E+02 0.  0.
          6    2    1    2  501    0  0.12359301152E+03  0.13718009890E+03 -0.34655899881E+03  0.42875016826E+03  0.17213353856E+03 0.  0.
         24    2    5    5    0    0  0.19444718716E+02  0.81578390981E+02 -0.94832778360E+02  0.15067356572E+03  0.81707628746E+02 0.  0.
          5    1    5    5  501    0  0.10414829280E+03  0.55601707918E+02 -0.25172622045E+03  0.27807660254E+03  0.47000000000E+01 0. -1.
        -13    1    6    6    0    0 -0.24047796668E+02  0.61199906057E+02 -0.71951439865E+02  0.97471712433E+02  0.00000000000E+00 0.  1.
         14    1    6    6    0    0  0.43492515384E+02  0.20378484925E+02 -0.22881338495E+02  0.53201853291E+02  0.00000000000E+00 0. -1.
         -5    1    3    3    0  503  0.10377471092E+02  0.25308545257E+02 -0.40375230921E+02  0.48994526646E+02  0.47000000000E+01 0.  1.
         13    1    4    4    0    0 -0.94720450484E+02 -0.88803716308E+02 -0.22229640585E+03  0.25743689678E+03  0.00000000000E+00 0. -1.
        -14    1    4    4    0    0 -0.39250032124E+02 -0.73684927848E+02 -0.56263834386E+02  0.10067597863E+03  0.00000000000E+00 0.  1.
</event>
<event>
12    1  0.8344842E-002  0.1758242E+03  0.7818608E-02  0.1172026E+00
         21   -1    0    0  503  502  0.00000000000E+00  0.00000000000E+00  0.62335119618E+03  0.62335119618E+03  0.00000000000E+00 0.  1.
         21   -1    0    0  501  503 -0.00000000000E+00 -0.00000000000E+00 -0.87615001878E+02  0.87615001878E+02  0.00000000000E+00 0.  1.
          6    2    1    2  501    0 -0.33100044795E+02  0.12523582870E+02  0.33071023320E+02  0.17843787107E+03  0.17173796363E+03 0.  0.
         24    2    3    3    0    0 -0.13331938907E+01 -0.75970446394E+01 -0.45559668841E+02  0.91151857194E+02  0.78571528888E+02 0.  0.
         -6    2    1    2    0  502  0.33100044795E+02 -0.12523582870E+02  0.50266517098E+03  0.53252832699E+03  0.17222570028E+03 0.  0.
        -24    2    5    5    0    0 -0.16306319779E+02  0.96206915529E+01  0.97085179801E+02  0.12332351642E+03  0.73652588510E+02 0.  0.
          5    1    3    3  501    0 -0.31766850904E+02  0.20120627510E+02  0.78630692161E+02  0.87286013871E+02  0.47000000000E+01 0. -1.
        -13    1    4    4    0    0  0.36973530483E+02 -0.15017463047E+02 -0.24146179673E+02  0.46643371936E+02  0.00000000000E+00 0.  1.
         14    1    4    4    0    0 -0.38306724374E+02  0.74204184077E+01 -0.21413489168E+02  0.44508485258E+02  0.00000000000E+00 0. -1.
         -5    1    5    5    0  502  0.49406364574E+02 -0.22144274423E+02  0.40557999118E+03  0.40920481057E+03  0.47000000000E+01 0.  1.
         11    1    6    6    0    0 -0.38863086393E+02 -0.67111337925E+01  0.26691917744E+02  0.47621815102E+02  0.00000000000E+00 0. -1.
        -12    1    6    6    0    0  0.22556766614E+02  0.16331825345E+02  0.70393262057E+02  0.75701701317E+02  0.00000000000E+00 0.  1.
</event>
<event>
12    1  0.8344842E-002  0.1839339E+03  0.7818608E-02  0.1164574E+00
         21   -1    0    0  503  502  0.00000000000E+00  0.00000000000E+00  0.23783269940E+03  0.23783269940E+03  0.00000000000E+00 0. -1.
         21   -1    0    0  501  503 -0.00000000000E+00 -0.00000000000E+00 -0.16893708108E+03  0.16893708108E+03  0.00000000000E+00 0. -1.
          6    2    1    2  501    0  0.35279990093E+02  0.57139775769E+02 -0.49108959708E+02  0.18823659108E+03  0.16885405717E+03 0.  0.
         24    2    3    3    0    0  0.87961338103E+02  0.46834212231E+02 -0.30653203501E+02  0.13127841340E+03  0.79773194138E+02 0.  0.
         -6    2    1    2    0  502 -0.35279990093E+02 -0.57139775769E+02  0.11800457803E+03  0.21853318940E+03  0.17123680316E+03 0.  0.
        -24    2    5    5    0    0 -0.57789870442E+02  0.12164413494E+02  0.33910130982E+02  0.10716114898E+03  0.82740393924E+02 0.  0.
          5    1    3    3  501    0 -0.52681348010E+02  0.10305563537E+02 -0.18455756207E+02  0.56958177685E+02  0.47000000000E+01 0. -1.
        -11    1    4    4    0    0  0.12170497904E+02  0.41326376852E+02  0.11215016447E+02  0.44517042095E+02  0.00000000000E+00 0.  1.
         12    1    4    4    0    0  0.75790840199E+02  0.55078353792E+01 -0.41868219948E+02  0.86761371303E+02  0.00000000000E+00 0. -1.
         -5    1    5    5    0  502  0.22509880349E+02 -0.69304189262E+02  0.84094447044E+02  0.11137204042E+03  0.47000000000E+01 0.  1.
         13    1    6    6    0    0 -0.74337293186E+02  0.26196513926E+02  0.19755774658E+02  0.81256268266E+02  0.00000000000E+00 0. -1.
        -14    1    6    6    0    0  0.16547422744E+02 -0.14032100432E+02  0.14154356324E+02  0.25904880717E+02  0.00000000000E+00 0.  1.
</event>
<event>
12    1  0.8344842E-002  0.1813016E+03  0.7818608E-02  0.1166698E+00
         21   -1    0    0  503  502  0.00000000000E+00  0.00000000000E+00  0.10838356540E+03  0.10838356540E+03  0.00000000000E+00 0. -1.
         21   -1    0    0  501  503 -0.00000000000E+00 -0.00000000000E+00 -0.38061999305E+03  0.38061999305E+03  0.00000000000E+00 0. -1.
          6    2    1    2  501    0  0.53926951956E+02 -0.37937406585E+02 -0.24688485238E+03  0.30593802390E+03  0.16822182132E+03 0.  0.
         24    2    3    3    0    0 -0.24657648722E+02  0.69872653097E+01 -0.13559154327E+03  0.16240385981E+03  0.85633670706E+02 0.  0.
         -6    2    1    2    0  502 -0.53926951956E+02  0.37937406585E+02 -0.25351575276E+02  0.18306553455E+03  0.16888731333E+03 0.  0.
        -24    2    5    5    0    0  0.27078525216E+01 -0.23291574708E+02 -0.48962738036E+02  0.96255015396E+02  0.79484893881E+02 0.  0.
          5    1    3    3  501    0  0.78584600677E+02 -0.44924671895E+02 -0.11129330911E+03  0.14353416409E+03  0.47000000000E+01 0. -1.
        -11    1    4    4    0    0 -0.23350654182E+02 -0.20950431464E+02 -0.13019300443E+03  0.13391934898E+03  0.00000000000E+00 0.  1.
         12    1    4    4    0    0 -0.13069945403E+01  0.27937696774E+02 -0.53985388422E+01  0.28484510833E+02  0.00000000000E+00 0. -1.
         -5    1    5    5    0  502 -0.56634804477E+02  0.61228981293E+02  0.23611162760E+02  0.86810519151E+02  0.47000000000E+01 0.  1.
         13    1    6    6    0    0 -0.29270875755E+02 -0.37721146424E+02 -0.26704573082E+02  0.54706519525E+02  0.00000000000E+00 0. -1.
        -14    1    6    6    0    0  0.31978728276E+02  0.14429571716E+02 -0.22258164954E+02  0.41548495872E+02  0.00000000000E+00 0.  1.
</event>
<event>
12    1  0.8344842E-002  0.2023037E+03  0.7818608E-02  0.1148255E+00
         21   -1    0    0  501  502  0.00000000000E+00  0.00000000000E+00  0.27209102963E+03  0.27209102963E+03  0.00000000000E+00 0. -1.
         21   -1    0    0  502  503 -0.00000000000E+00 -0.00000000000E+00 -0.15521624604E+03  0.15521624604E+03  0.00000000000E+00 0.  1.
         -6    2    1    2    0  503  0.85728353744E+02  0.57852099134E+02  0.10145593096E+03  0.22441685671E+03  0.17138670788E+03 0.  0.
        -24    2    3    3    0    0  0.42194132653E+02  0.34828700849E+02  0.13352606483E+03  0.16546018821E+03  0.80959747161E+02 0.  0.
          6    2    1    2  501    0 -0.85728353744E+02 -0.57852099134E+02  0.15418852620E+02  0.20289041896E+03  0.17386939086E+03 0.  0.
         24    2    5    5    0    0 -0.39435935521E+02 -0.28215786648E+02  0.76760509151E+02  0.12039079576E+03  0.79059751526E+02 0.  0.
          5    1    5    5  501    0 -0.46292418223E+02 -0.29636312487E+02 -0.61341656530E+02  0.82499623203E+02  0.47000000000E+01 0. -1.
        -11    1    6    6    0    0 -0.33519875820E+02 -0.18697647685E+02 -0.42428420775E+01  0.38615875140E+02  0.00000000000E+00 0.  1.
         12    1    6    6    0    0 -0.59160597011E+01 -0.95181389624E+01  0.81003351228E+02  0.81774920617E+02  0.00000000000E+00 0. -1.
         -5    1    3    3    0  503  0.43534221091E+02  0.23023398286E+02 -0.32070133865E+02  0.58956668501E+02  0.47000000000E+01 0.  1.
         13    1    4    4    0    0  0.58639504699E+02  0.48619379731E+02  0.10683759295E+03  0.13121244935E+03  0.00000000000E+00 0. -1.
        -14    1    4    4    0    0 -0.16445372047E+02 -0.13790678882E+02  0.26688471873E+02  0.34247738855E+02  0.00000000000E+00 0.  1.
</event>
<event>
12    1  0.8344842E-002  0.3541174E+03  0.7818608E-02  0.1061024E+00
         21   -1    0    0  503  502  0.00000000000E+00  0.00000000000E+00  0.76579900222E+03  0.76579900222E+03  0.00000000000E+00 0.  1.
         21   -1    0    0  501  503 -0.00000000000E+00 -0.00000000000E+00 -0.29484175269E+03  0.29484175269E+03  0.00000000000E+00 0. -1.
          6    2    1    2  501    0  0.19893931084E+03 -0.23484393260E+03 -0.11851258778E+03  0.37342252820E+03  0.17513032012E+03 0.  0.
         24    2    3    3    0    0  0.22278217060E+02 -0.86266520434E+02 -0.65243212947E+02  0.13647505352E+03  0.80190597291E+02 0.  0.
         -6    2    1    2    0  502 -0.19893931084E+03  0.23484393260E+03  0.58946983731E+03  0.68721822671E+03  0.17339457876E+03 0.  0.
        -24    2    5    5    0    0 -0.83540530491E+02  0.14347436337E+03  0.20474325497E+03  0.27526931016E+03  0.79306238595E+02 0.  0.
          5    1    3    3  501    0  0.17666109378E+03 -0.14857741217E+03 -0.53269374829E+02  0.23694747468E+03  0.47000000000E+01 0. -1.
        -11    1    4    4    0    0  0.55262967287E+01 -0.32529881123E+02  0.16763190253E+02  0.37009967155E+02  0.00000000000E+00 0.  1.
         12    1    4    4    0    0  0.16751920331E+02 -0.53736639311E+02 -0.82006403200E+02  0.99465086363E+02  0.00000000000E+00 0. -1.
         -5    1    5    5    0  502 -0.11539878035E+03  0.91369569232E+02  0.38472658233E+03  0.41194891654E+03  0.47000000000E+01 0.  1.
         11    1    6    6    0    0 -0.53723443156E+02  0.40141966684E+02  0.38672342677E+02  0.77415346811E+02  0.00000000000E+00 0. -1.
        -12    1    6    6    0    0 -0.29817087335E+02  0.10333239669E+03  0.16607091230E+03  0.19785396335E+03  0.00000000000E+00 0.  1.
</event>
<event>
12    1  0.8344842E-002  0.2039538E+03  0.7818608E-02  0.1146671E+00
         21   -1    0    0  503  502  0.00000000000E+00  0.00000000000E+00  0.10832626510E+03  0.10832626510E+03  0.00000000000E+00 0. -1.
         21   -1    0    0  501  503 -0.00000000000E+00 -0.00000000000E+00 -0.76569317820E+03  0.76569317820E+03  0.00000000000E+00 0. -1.
          6    2    1    2  501    0 -0.11227391949E+03 -0.16717201371E+02 -0.63761874508E+03  0.66911179262E+03  0.16813098801E+03 0.  0.
         24    2    3    3    0    0 -0.80664904261E+02 -0.65970665208E+02 -0.33514924560E+03  0.36099668157E+03  0.84466749853E+02 0.  0.
         -6    2    1    2    0  502  0.11227391949E+03  0.16717201371E+02 -0.19748168023E+02  0.20490765069E+03  0.16944691602E+03 0.  0.
        -24    2    5    5    0    0  0.11885726841E+03 -0.38209132062E+02 -0.81873458509E+01  0.14819799369E+03  0.79426851092E+02 0.  0.
          5    1    3    3  501    0 -0.31609015229E+02  0.49253463837E+02 -0.30246949948E+03  0.30811511105E+03  0.47000000000E+01 0. -1.
        -13    1    4    4    0    0 -0.11005978288E+02 -0.47278683032E+02 -0.63459325434E+02  0.79896754701E+02  0.00000000000E+00 0.  1.
         14    1    4    4    0    0 -0.69658925974E+02 -0.18691982176E+02 -0.27168992017E+03  0.28109992687E+03  0.00000000000E+00 0. -1.
         -5    1    5    5    0  502 -0.65833489197E+01  0.54926333433E+02 -0.11560822172E+02  0.56709656996E+02  0.47000000000E+01 0.  1.
         13    1    6    6    0    0  0.97273472137E+02 -0.28082640321E+02  0.27833154429E+02  0.10500213119E+03  0.00000000000E+00 0. -1.
        -14    1    6    6    0    0  0.21583796273E+02 -0.10126491741E+02 -0.36020500280E+02  0.43195862499E+02  0.00000000000E+00 0.  1.
</event>
<event>
12    1  0.8344842E-002  0.1848780E+03  0.7818608E-02  0.1163303E+00
         21   -1    0    0  501  502  0.00000000000E+00  0.00000000000E+00  0.69088370178E+03  0.69088370178E+03  0.00000000000E+00 0.  1.
         21   -1    0    0  502  503 -0.00000000000E+00 -0.00000000000E+00 -0.62459830561E+02  0.62459830561E+02  0.00000000000E+00 0.  1.
         -6    2    1    2    0  503  0.79407738538E+01  0.65374515455E+02  0.14180463787E+03  0.23299875867E+03  0.17275121725E+03 0.  0.
        -24    2    3    3    0    0 -0.55379659200E+02  0.57676255729E+02  0.54068246510E+02  0.12442387754E+03  0.78514131802E+02 0.  0.
          6    2    1    2  501    0 -0.79407738538E+01 -0.65374515455E+02  0.48661923335E+03  0.52034477367E+03  0.17211485136E+03 0.  0.
         24    2    5    5    0    0 -0.23885994533E+02  0.19812405522E+02  0.33366929837E+03  0.34448450477E+03  0.79820430980E+02 0.  0.
          5    1    5    5  501    0  0.15945220679E+02 -0.85186920977E+02  0.15294993498E+03  0.17586026890E+03  0.47000000000E+01 0. -1.
        -13    1    6    6    0    0 -0.40804226942E+02  0.35655402405E+02  0.15255129605E+03  0.16188943939E+03  0.00000000000E+00 0.  1.
         14    1    6    6    0    0  0.16918232410E+02 -0.15842996883E+02  0.18111800231E+03  0.18259506538E+03  0.00000000000E+00 0. -1.
         -5    1    3    3    0  503  0.63320433053E+02  0.76982597261E+01  0.87736391360E+02  0.10857488114E+03  0.47000000000E+01 0.  1.
         13    1    4    4    0    0 -0.54450459854E+02  0.67683428592E+02  0.65800676469E+02  0.10897535551E+03  0.00000000000E+00 0. -1.
        -14    1    4    4    0    0 -0.92919934555E+00 -0.10007172864E+02 -0.11732429958E+02  0.15448522029E+02  0.00000000000E+00 0.  1.
</event>
<event>
12    1  0.8344842E-002  0.1768088E+03  0.7818608E-02  0.1171014E+00
         21   -1    0    0  501  502  0.00000000000E+00  0.00000000000E+00  0.34376854801E+02  0.34376854801E+02  0.00000000000E+00 0. -1.
         21   -1    0    0  502  503 -0.00000000000E+00 -0.00000000000E+00 -0.97039969476E+03  0.97039969476E+03  0.00000000000E+00 0. -1.
         -6    2    1    2    0  503 -0.62493470058E+01  0.35851058637E+02 -0.59625919294E+03  0.62192151898E+03  0.17302311367E+03 0.  0.
        -24    2    3    3    0    0  0.41571625234E+02  0.55821867449E+02 -0.51257957850E+03  0.52338195097E+03  0.79665308621E+02 0.  0.
          6    2    1    2  501    0  0.62493470058E+01 -0.35851058637E+02 -0.33976364702E+03  0.38285503058E+03  0.17266813795E+03 0.  0.
         24    2    5    5    0    0 -0.47986743684E+02 -0.17028906573E+02 -0.10528637349E+03  0.14140626015E+03  0.79484581761E+02 0.  0.
          5    1    5    5  501    0  0.54236090690E+02 -0.18822152064E+02 -0.23447727353E+03  0.24144877044E+03  0.47000000000E+01 0. -1.
        -13    1    6    6    0    0  0.14967874700E+02 -0.18632279301E+02 -0.74129534757E+01  0.25023009096E+02  0.00000000000E+00 0.  1.
         14    1    6    6    0    0 -0.62954618384E+02  0.16033727281E+01 -0.97873420012E+02  0.11638325105E+03  0.00000000000E+00 0. -1.
         -5    1    3    3    0  503 -0.47820972240E+02 -0.19970808812E+02 -0.83679614438E+02  0.98539568008E+02  0.47000000000E+01 0.  1.
         11    1    4    4    0    0  0.21464844723E+01  0.46055724454E+02 -0.41685235607E+03  0.41939435370E+03  0.00000000000E+00 0. -1.
        -12    1    4    4    0    0  0.39425140762E+02  0.97661429946E+01 -0.95727222428E+02  0.10398759727E+03  0.00000000000E+00 0.  1.
</event>
<event>
12    1  0.8344842E-002  0.1864011E+03  0.7818608E-02  0.1162331E+00
         21   -1    0    0  501  502  0.00000000000E+00  0.00000000000E+00  0.63766489542E+03  0.63766489542E+03  0.00000000000E+00 0. -1.
         21   -1    0    0  502  503 -0.00000000000E+00 -0.00000000000E+00 -0.12874206919E+03  0.12874206919E+03  0.00000000000E+00 0. -1.
         -6    2    1    2    0  503  0.38694986780E+02 -0.50369774297E+02 -0.38703725885E+02  0.18792601333E+03  0.17257981320E+03 0.  0.
        -24    2    3    3    0    0 -0.31748173673E+02  0.41978883930E+01  0.78608572848E+01  0.87277023907E+02  0.80807902004E+02 0.  0.
          6    2    1    2  501    0 -0.38694986780E+02  0.50369774297E+02  0.54762655211E+03  0.57848095128E+03  0.17524541149E+03 0.  0.
         24    2    5    5    0    0  0.49629880311E+02  0.14418594308E+02  0.23188944431E+03  0.24862373863E+03  0.73280475908E+02 0.  0.
          5    1    5    5  501    0 -0.88324867091E+02  0.35951179989E+02  0.31573710781E+03  0.32985721265E+03  0.47000000000E+01 0. -1.
        -13    1    6    6    0    0  0.43032837402E+02  0.14705768578E+02  0.53941479363E+02  0.70553298436E+02  0.00000000000E+00 0.  1.
         14    1    6    6    0    0  0.65970429087E+01 -0.28717426960E+00  0.17794796495E+03  0.17807044020E+03  0.00000000000E+00 0. -1.
         -5    1    3    3    0  503  0.70443160453E+02 -0.54567662690E+02 -0.46564583170E+02  0.10064898942E+03  0.47000000000E+01 0.  1.
         11    1    4    4    0    0  0.17179167591E+02 -0.10487916362E+02 -0.20599308138E+02  0.28800202855E+02  0.00000000000E+00 0. -1.
        -12    1    4    4    0    0 -0.48927341265E+02  0.14685804755E+02  0.28460165423E+02  0.58476821052E+02  0.00000000000E+00 0.  1.
</event>
<event>
12    1  0.8344842E-002  0.2018805E+03  0.7818608E-02  0.1148631E+00
         21   -1    0    0  503  502  0.00000000000E+00  0.00000000000E+00  0.12731114468E+03  0.12731114468E+03  0.00000000000E+00 0. -1.
         21   -1    0    0  501  503 -0.00000000000E+00 -0.00000000000E+00 -0.31910872491E+03  0.31910872491E+03  0.00000000000E+00 0.  1.
          6    2    1    2  501    0 -0.10121249967E+03 -0.81019470888E+01 -0.11519546037E+03  0.23049479051E+03  0.17189602302E+03 0.  0.
         24    2    3    3    0    0 -0.55419501870E+02 -0.34393659909E+02 -0.13835168778E+03  0.17264538535E+03  0.80068686402E+02 0.  0.
         -6    2    1    2    0  502  0.10121249967E+03  0.81019470888E+01 -0.76602119861E+02  0.21592507907E+03  0.17448823275E+03 0.  0.
        -24    2    5    5    0    0  0.12170261893E+03 -0.35982018058E+02 -0.77698613395E+02  0.16707292182E+03  0.75960868900E+02 0.  0.
          5    1    3    3  501    0 -0.45792997796E+02  0.26291712820E+02  0.23156227407E+02  0.57849405165E+02  0.47000000000E+01 0. -1.
        -11    1    4    4    0    0 -0.53680716398E+02 -0.89437367067E+01 -0.13664025682E+03  0.14707878679E+03  0.00000000000E+00 0.  1.
         12    1    4    4    0    0 -0.17387854725E+01 -0.25449923202E+02 -0.17114309541E+01  0.25566598558E+02  0.00000000000E+00 0. -1.
         -5    1    5    5    0  502 -0.20490119261E+02  0.44083965146E+02  0.10964935344E+01  0.48852157254E+02  0.47000000000E+01 0.  1.
         13    1    6    6    0    0  0.81435241931E+02 -0.27190498203E+02 -0.81653556571E+01  0.86242071252E+02  0.00000000000E+00 0. -1.
        -14    1    6    6    0    0  0.40267376996E+02 -0.87915198543E+01 -0.69533257738E+02  0.80830850566E+02  0.00000000000E+00 0.  1.
</event>
<event>
12    1  0.8344842E-002  0.2919125E+03  0.7818608E-02  0.1089381E+00
         21   -1    0    0  501  502  0.00000000000E+00  0.00000000000E+00  0.22082252489E+04  0.22082252489E+04  0.00000000000E+00 0. -1.
         21   -1    0    0  502  503 -0.00000000000E+00 -0.00000000000E+00 -0.53394460774E+02  0.53394460774E+02  0.00000000000E+00 0.  1.
         -6    2    1    2    0  503 -0.11179128379E+03  0.20507195075E+03  0.48115480984E+03  0.56267762660E+03  0.17476946052E+03 0.  0.
        -24    2    3    3    0    0  0.79107657845E+01  0.10274114695E+03  0.26141173007E+03  0.29229033920E+03  0.80493641254E+02 0.  0.
          6    2    1    2  501    0  0.11179128379E+03 -0.20507195075E+03  0.16736759783E+04  0.16989420831E+04  0.17510318450E+03 0.  0.
         24    2    5    5    0    0  0.78666318212E+02 -0.15534628782E+03  0.77735948699E+03  0.80062407286E+03  0.79939197334E+02 0.  0.
          5    1    5    5  501    0  0.33124965582E+02 -0.49725662927E+02  0.89631649132E+03  0.89831801023E+03  0.47000000000E+01 0. -1.
        -13    1    6    6    0    0  0.32204171689E+02 -0.12015692891E+02  0.24333220478E+03  0.24574793475E+03  0.00000000000E+00 0.  1.
         14    1    6    6    0    0  0.46462146523E+02 -0.14333059493E+03  0.53402728221E+03  0.55487613811E+03  0.00000000000E+00 0. -1.
         -5    1    3    3    0  503 -0.11970204958E+03  0.10233080380E+03  0.21974307977E+03  0.27038728740E+03  0.47000000000E+01 0.  1.
         13    1    4    4    0    0  0.58562458213E+01  0.23248777592E+02  0.16762184397E+03  0.16932774094E+03  0.00000000000E+00 0. -1.
        -14    1    4    4    0    0  0.20545199633E+01  0.79492369355E+02  0.93789886097E+02  0.12296259827E+03  0.00000000000E+00 0.  1.
</event>
<event>
12    1  0.8344842E-002  0.1823419E+03  0.7818608E-02  0.1165640E+00
         21   -1    0    0  501  502  0.00000000000E+00  0.00000000000E+00  0.30200601409E+03  0.30200601409E+03  0.00000000000E+00 0. -1.
         21   -1    0    0  502  503 -0.00000000000E+00 -0.00000000000E+00 -0.19653874784E+03  0.19653874784E+03  0.00000000000E+00 0. -1.
         -6    2    1    2    0  503 -0.59439039567E+02  0.88948747184E+01 -0.11281841324E+03  0.21412041429E+03  0.17177729543E+03 0.  0.
        -24    2    3    3    0    0  0.33180458898E+02 -0.11619449301E+02 -0.50321849479E+02  0.10042292325E+03  0.79476540716E+02 0.  0.
          6    2    1    2  501    0  0.59439039567E+02 -0.88948747184E+01  0.21828567949E+03  0.28442434765E+03  0.17215241341E+03 0.  0.
         24    2    5    5    0    0  0.97625111358E+02 -0.73085686433E+01  0.10610867664E+03  0.16582222956E+03  0.81571336967E+02 0.  0.
          5    1    5    5  501    0 -0.38186071791E+02 -0.15863060751E+01  0.11217700286E+03  0.11860211809E+03  0.47000000000E+01 0. -1.
        -11    1    6    6    0    0  0.18878719219E+02  0.33074040786E+02  0.40975892370E+02  0.55940342945E+02  0.00000000000E+00 0.  1.
         12    1    6    6    0    0  0.78746392138E+02 -0.40382609430E+02  0.65132784266E+02  0.10988188661E+03  0.00000000000E+00 0. -1.
         -5    1    3    3    0  503 -0.92619498465E+02  0.20514324019E+02 -0.62496563761E+02  0.11369749104E+03  0.47000000000E+01 0.  1.
         11    1    4    4    0    0 -0.10114909768E+02 -0.31656020387E+02 -0.39284779628E+02  0.51455893120E+02  0.00000000000E+00 0. -1.
        -12    1    4    4    0    0  0.43295368666E+02  0.20036571086E+02 -0.11037069851E+02  0.48967030130E+02  0.00000000000E+00 0.  1.
</event>
<event>
12    1  0.8344842E-002  0.1933345E+03  0.7818608E-02  0.1157880E+00
         21   -1    0    0  503  502  0.00000000000E+00  0.00000000000E+00  0.14623502350E+03  0.14623502350E+03  0.00000000000E+00 0. -1.
         21   -1    0    0  501  503 -0.00000000000E+00 -0.00000000000E+00 -0.38674245589E+03  0.38674245589E+03  0.00000000000E+00 0. -1.
          6    2    1    2  501    0  0.68555861556E+02 -0.33332215040E+02 -0.28121048901E+03  0.33540479686E+03  0.16615082279E+03 0.  0.
         24    2    3    3    0    0  0.86418754967E+02  0.10747187058E+02 -0.12917316784E+03  0.17603254809E+03  0.81963695965E+02 0.  0.
         -6    2    1    2    0  502 -0.68555861556E+02  0.33332215040E+02  0.40703056625E+02  0.19757268253E+03  0.17767184175E+03 0.  0.
        -24    2    5    5    0    0  0.72812578003E+01 -0.11059803093E+02  0.67843020664E+02  0.10548257669E+03  0.79677867522E+02 0.  0.
          5    1    3    3  501    0 -0.17862893411E+02 -0.44079402098E+02 -0.15203732117E+03  0.15937224877E+03  0.47000000000E+01 0. -1.
        -11    1    4    4    0    0  0.74089551324E+01 -0.26214483156E+02 -0.11534608682E+02  0.29582747350E+02  0.00000000000E+00 0.  1.
         12    1    4    4    0    0  0.79009799834E+02  0.36961670215E+02 -0.11763855916E+03  0.14644980074E+03  0.00000000000E+00 0. -1.
         -5    1    5    5    0  502 -0.75837119356E+02  0.44392018133E+02 -0.27139964039E+02  0.92090105843E+02  0.47000000000E+01 0.  1.
         13    1    6    6    0    0  0.22190796179E+01  0.29902020273E+02  0.51501755379E+01  0.30423337076E+02  0.00000000000E+00 0. -1.
        -14    1    6    6    0    0  0.50621781824E+01 -0.40961823366E+02  0.62692845127E+02  0.75059239615E+02  0.00000000000E+00 0.  1.
</event>
<event>
12    1  0.8344842E-002  0.2131235E+03  0.7818608E-02  0.1139687E+00
         21   -1    0    0  503  502  0.00000000000E+00  0.00000000000E+00  0.42997608524E+03  0.42997608524E+03  0.00000000000E+00 0. -1.
         21   -1    0    0  501  503 -0.00000000000E+00 -0.00000000000E+00 -0.16258678612E+03  0.16258678612E+03  0.00000000000E+00 0. -1.
          6    2    1    2  501    0 -0.70524044836E+02 -0.10422750338E+03 -0.43266319456E+02  0.21747092582E+03  0.17200179016E+03 0.  0.
         24    2    3    3    0    0 -0.14718638423E+02 -0.13012904573E+03 -0.25679458521E+02  0.15331080613E+03  0.75462320576E+02 0.  0.
         -6    2    1    2    0  502  0.70524044836E+02  0.10422750338E+03  0.31065561857E+03  0.37509194554E+03  0.16837470386E+03 0.  0.
        -24    2    5    5    0    0  0.93264935414E+02  0.10278465177E+03  0.17329707300E+03  0.23577687110E+03  0.79346232538E+02 0.  0.
          5    1    3    3  501    0 -0.55805406414E+02  0.25901542355E+02 -0.17586860935E+02  0.64160119692E+02  0.47000000000E+01 0. -1.
        -13    1    4    4    0    0 -0.34112370279E+01 -0.67110244394E+01  0.19887392805E+02  0.21264589807E+02  0.00000000000E+00 0.  1.
         14    1    4    4    0    0 -0.11307401395E+02 -0.12341802129E+03 -0.45566851325E+02  0.13204621632E+03  0.00000000000E+00 0. -1.
         -5    1    5    5    0  502 -0.22740890577E+02  0.14428516087E+01  0.13735854557E+03  0.13931507444E+03  0.47000000000E+01 0.  1.
         11    1    6    6    0    0  0.44041623960E+02  0.20620488078E+02  0.15237036526E+02  0.50961126868E+02  0.00000000000E+00 0. -1.
        -12    1    6    6    0    0  0.49223311454E+02  0.82164163689E+02  0.15806003647E+03  0.18481574423E+03  0.00000000000E+00 0.  1.
</event>
<event>
12    1  0.8344842E-002  0.2255641E+03  0.7818608E-02  0.1129952E+00
         21   -1    0    0  503  502  0.00000000000E+00  0.00000000000E+00  0.59068750860E+02  0.59068750860E+02  0.00000000000E+00 0.  1.
         21   -1    0    0  501  503 -0.00000000000E+00 -0.00000000000E+00 -0.88713500996E+03  0.88713500996E+03  0.00000000000E+00 0.  1.
          6    2    1    2  501    0  0.14508550654E+03 -0.11477649456E+02 -0.32781143562E+03  0.39744693633E+03  0.17123723086E+03 0.  0.
         24    2    3    3    0    0  0.10365351634E+03  0.83016475757E+01 -0.10047760239E+03  0.16547583440E+03  0.80458277294E+02 0.  0.
         -6    2    1    2    0  502 -0.14508550654E+03  0.11477649456E+02 -0.50025482347E+03  0.54875682448E+03  0.17232998393E+03 0.  0.
        -24    2    5    5    0    0 -0.69236734194E+02  0.89127067730E+00 -0.11330317640E+03  0.15427136866E+03  0.78533595873E+02 0.  0.
          5    1    3    3  501    0  0.41431990199E+02 -0.19779297032E+02 -0.22733383323E+03  0.23197110194E+03  0.47000000000E+01 0. -1.
        -11    1    4    4    0    0  0.10876484513E+03 -0.39363822636E+00 -0.10770327033E+03  0.15306841910E+03  0.00000000000E+00 0.  1.
         12    1    4    4    0    0 -0.51113287890E+01  0.86952858020E+01  0.72256679371E+01  0.12407415295E+02  0.00000000000E+00 0. -1.
         -5    1    5    5    0  502 -0.75848772344E+02  0.10586378779E+02 -0.38695164707E+03  0.39448545582E+03  0.47000000000E+01 0.  1.
         11    1    6    6    0    0  0.46593705711E+01  0.14006103630E+02 -0.61081634853E+02  0.62839850329E+02  0.00000000000E+00 0. -1.
        -12    1    6    6    0    0 -0.73896104765E+02 -0.13114832953E+02 -0.52221541547E+02  0.91431518331E+02  0.00000000000E+00 0.  1.
</event>
<event>
12    1  0.8344842E-002  0.1809908E+03  0.7818608E-02  0.1167295E+00
         21   -1    0    0  501  502  0.00000000000E+00  0.00000000000E+00  0.16815138610E+04  0.16815138610E+04  0.00000000000E+00 0. -1.
         21   -1    0    0  502  503 -0.00000000000E+00 -0.00000000000E+00 -0.19505647321E+02  0.19505647321E+02  0.00000000000E+00 0.  1.
         -6    2    1    2    0  503  0.18213397633E+02 -0.52893737282E+02  0.92622395274E+03  0.94374173880E+03  0.17212839285E+03 0.  0.
        -24    2    3    3    0    0  0.56597430820E+02 -0.61280767530E+02  0.85084342266E+03  0.85860660742E+03  0.79449196188E+02 0.  0.
          6    2    1    2  501    0 -0.18213397633E+02  0.52893737282E+02  0.73578426091E+03  0.75727776950E+03  0.17018127473E+03 0.  0.
         24    2    5    5    0    0 -0.21627306432E+02  0.94129694783E+02  0.40502393598E+03  0.42390629274E+03  0.79523685056E+02 0.  0.
          5    1    5    5  501    0  0.34139087991E+01 -0.41235957501E+02  0.33076032494E+03  0.33337147676E+03  0.47000000000E+01 0. -1.
        -11    1    6    6    0    0  0.90236397425E+01 -0.75755473346E+01  0.12145818782E+02  0.16921462866E+02  0.00000000000E+00 0.  1.
         12    1    6    6    0    0 -0.30650946174E+02  0.10170524212E+03  0.39287811719E+03  0.40698482987E+03  0.00000000000E+00 0. -1.
         -5    1    3    3    0  503 -0.38384033187E+02  0.83870302474E+01  0.75380530078E+02  0.85135131379E+02  0.47000000000E+01 0.  1.
         13    1    4    4    0    0  0.54017565675E+01 -0.63501224377E+02  0.44481434016E+03  0.44935663085E+03  0.00000000000E+00 0. -1.
        -14    1    4    4    0    0  0.51195674252E+02  0.22204568472E+01  0.40602908250E+03  0.40924997657E+03  0.00000000000E+00 0.  1.
</event>
<event>
12    1  0.8344842E-002  0.1906994E+03  0.7818608E-02  0.1158262E+00
         21   -1    0    0  501  502  0.00000000000E+00  0.00000000000E+00  0.22154693138E+03  0.22154693138E+03  0.00000000000E+00 0.  1.
         21   -1    0    0  502  503 -0.00000000000E+00 -0.00000000000E+00 -0.20570950582E+03  0.20570950582E+03  0.00000000000E+00 0.  1.
         -6    2    1    2    0  503 -0.75111726896E+02  0.18969267975E+02 -0.89945071502E+02  0.21084680097E+03  0.17425456364E+03 0.  0.
        -24    2    3    3    0    0 -0.67024253407E+02 -0.54255851326E+02 -0.57590633377E+02  0.13024763851E+03  0.78815089517E+02 0.  0.
          6    2    1    2  501    0  0.75111726896E+02 -0.18969267975E+02  0.10578249706E+03  0.21640963622E+03  0.17216732942E+03 0.  0.
         24    2    5    5    0    0  0.20715260755E+02  0.12782402110E+02 -0.10816160291E+02  0.83803147024E+02  0.79457323739E+02 0.  0.
          5    1    5    5  501    0  0.54396466141E+02 -0.31751670085E+02  0.11659865735E+03  0.13260648920E+03  0.47000000000E+01 0. -1.
        -13    1    6    6    0    0  0.51991636951E+00  0.36614180842E+02  0.18444978348E+02  0.41001046060E+02  0.00000000000E+00 0.  1.
         14    1    6    6    0    0  0.20195344385E+02 -0.23831778733E+02 -0.29261138639E+02  0.42802100963E+02  0.00000000000E+00 0. -1.
         -5    1    3    3    0  503 -0.80874734887E+01  0.73225119301E+02 -0.32354438125E+02  0.80599162467E+02  0.47000000000E+01 0.  1.
         13    1    4    4    0    0  0.30981106599E+01 -0.18338539216E+02  0.14402261122E+02  0.23522870481E+02  0.00000000000E+00 0. -1.
        -14    1    4    4    0    0 -0.70122364067E+02 -0.35917312110E+02 -0.71992894499E+02  0.10672476802E+03  0.00000000000E+00 0.  1.
</event>
<event>
12    1  0.8344842E-002  0.1909041E+03  0.7818608E-02  0.1158244E+00
         21   -1    0    0  503  502  0.00000000000E+00  0.00000000000E+00  0.11183932306E+04  0.11183932306E+04  0.00000000000E+00 0. -1.
         21   -1    0    0  501  503 -0.00000000000E+00 -0.00000000000E+00 -0.46200984631E+02  0.46200984631E+02  0.00000000000E+00 0. -1.
          6    2    1    2  501    0 -0.98298572809E+01 -0.74719046899E+02  0.21743090447E+03  0.28934505430E+03  0.17539897425E+03 0.  0.
         24    2    3    3    0    0 -0.29696850768E+02 -0.43038269240E+02  0.32551568482E+02  0.10066323753E+03  0.79619640890E+02 0.  0.
         -6    2    1    2    0  502  0.98298572809E+01  0.74719046899E+02  0.85476134146E+03  0.87524916089E+03  0.17252414533E+03 0.  0.
        -24    2    5    5    0    0 -0.44131276127E+02  0.43663735949E+01  0.30763930676E+03  0.32096952622E+03  0.80080328080E+02 0.  0.
          5    1    3    3  501    0  0.19866993487E+02 -0.31680777659E+02  0.18487933599E+03  0.18868181677E+03  0.47000000000E+01 0. -1.
        -13    1    4    4    0    0 -0.16490155122E+02 -0.18216687666E+02  0.57842831687E+02  0.62845573457E+02  0.00000000000E+00 0.  1.
         14    1    4    4    0    0 -0.13206695646E+02 -0.24821581574E+02 -0.25291263206E+02  0.37817664077E+02  0.00000000000E+00 0. -1.
         -5    1    5    5    0  502  0.53961133408E+02  0.70352673304E+02  0.54712203470E+03  0.55427963467E+03  0.47000000000E+01 0.  1.
         13    1    6    6    0    0 -0.12245168229E+02  0.37593183539E+02  0.20035949139E+03  0.20422320481E+03  0.00000000000E+00 0. -1.
        -14    1    6    6    0    0 -0.31886107898E+02 -0.33226809944E+02  0.10727981537E+03  0.11674632141E+03  0.00000000000E+00 0.  1.
</event>
<event>
12    1  0.8344842E-002  0.3141981E+03  0.7818608E-02  0.1078377E+00
         21   -1    0    0  501  502  0.00000000000E+00  0.00000000000E+00  0.80677371769E+03  0.80677371769E+03  0.00000000000E+00 0. -1.
         21   -1    0    0  502  503 -0.00000000000E+00 -0.00000000000E+00 -0.16119574322E+03  0.16119574322E+03  0.00000000000E+00 0. -1.
         -6    2    1    2    0  503 -0.24960898576E+03  0.81343078003E+02  0.56068882294E+03  0.64272266546E+03  0.17262423473E+03 0.  0.
        -24    2    3    3    0    0 -0.26822889885E+03  0.80166794091E+02  0.50694299300E+03  0.58563686124E+03  0.87211685201E+02 0.  0.
          6    2    1    2  501    0  0.24960898576E+03 -0.81343078003E+02  0.84889151528E+02  0.32524679546E+03  0.17221488843E+03 0.  0.
         24    2    5    5    0    0  0.17730670128E+03 -0.14758605255E+01  0.96762337217E+02  0.21675967499E+03  0.78625455906E+02 0.  0.
          5    1    5    5  501    0  0.72302284479E+02 -0.79867217477E+02 -0.11873185689E+02  0.10848712047E+03  0.47000000000E+01 0. -1.
        -11    1    6    6    0    0  0.80954223472E+01  0.21675148504E+02  0.10165214908E+02  0.25272109524E+02  0.00000000000E+00 0.  1.
         12    1    6    6    0    0  0.16921127893E+03 -0.23151009030E+02  0.86597122309E+02  0.19148756547E+03  0.00000000000E+00 0. -1.
         -5    1    3    3    0  503  0.18619913095E+02  0.11762839118E+01  0.53745829939E+02  0.57085804219E+02  0.47000000000E+01 0.  1.
         13    1    4    4    0    0 -0.23919076764E+02 -0.17368865303E+02  0.63387929417E+02  0.69941613586E+02  0.00000000000E+00 0. -1.
        -14    1    4    4    0    0 -0.24430982209E+03  0.97535659394E+02  0.44355506358E+03  0.51569524765E+03  0.00000000000E+00 0.  1.
</event>
<event>
12    1  0.8344842E-002  0.2348157E+03  0.7818608E-02  0.1123296E+00
         21   -1    0    0  503  502  0.00000000000E+00  0.00000000000E+00  0.10694444537E+04  0.10694444537E+04  0.00000000000E+00 0. -1.
         21   -1    0    0  501  503 -0.00000000000E+00 -0.00000000000E+00 -0.11866241017E+03  0.11866241017E+03  0.00000000000E+00 0. -1.
          6    2    1    2  501    0  0.15739734923E+03  0.17601770989E+02  0.28660345168E+02  0.23655827364E+03  0.17336278020E+03 0.  0.
         24    2    3    3    0    0  0.16685428903E+03 -0.17589767631E+02 -0.45314291816E+01  0.18704401322E+03  0.82554075224E+02 0.  0.
         -6    2    1    2    0  502 -0.15739734923E+03 -0.17601770989E+02  0.92212169837E+03  0.95154859025E+03  0.17335669905E+03 0.  0.
        -24    2    5    5    0    0 -0.42611267315E+02 -0.18406014621E+02  0.64803607100E+03  0.65435923556E+03  0.77979217518E+02 0.  0.
          5    1    3    3  501    0 -0.94569398038E+01  0.35191538621E+02  0.33191774350E+02  0.49514260425E+02  0.47000000000E+01 0. -1.
        -11    1    4    4    0    0  0.18174605855E+02 -0.32751473557E+02 -0.31277551229E+01  0.37586675435E+02  0.00000000000E+00 0.  1.
         12    1    4    4    0    0  0.14867968318E+03  0.15161705925E+02 -0.14036740587E+01  0.14945733778E+03  0.00000000000E+00 0. -1.
         -5    1    5    5    0  502 -0.11478608191E+03  0.80424363132E+00  0.27408562737E+03  0.29718935469E+03  0.47000000000E+01 0.  1.
         11    1    6    6    0    0 -0.53630914977E+02 -0.16016041403E+02  0.25107749124E+03  0.25724053963E+03  0.00000000000E+00 0. -1.
        -12    1    6    6    0    0  0.11019647662E+02 -0.23899732178E+01  0.39695857977E+03  0.39711869593E+03  0.00000000000E+00 0.  1.
</event>
<event>
12    1  0.8344842E-002  0.1944186E+03  0.7818608E-02  0.1155011E+00
         21   -1    0    0  503  502  0.00000000000E+00  0.00000000000E+00  0.17687263489E+03  0.17687263489E+03  0.00000000000E+00 0. -1.
         21   -1    0    0  501  503 -0.00000000000E+00 -0.00000000000E+00 -0.25488041368E+03  0.25488041368E+03  0.00000000000E+00 0. -1.
          6    2    1    2  501    0 -0.84969487311E+02 -0.19702235815E+02 -0.12804982736E+03  0.23099743699E+03  0.17133320092E+03 0.  0.
         24    2    3    3    0    0 -0.10437007496E+03 -0.56194787446E+02 -0.12435239219E+03  0.18923800509E+03  0.79350730574E+02 0.  0.
         -6    2    1    2    0  502  0.84969487311E+02  0.19702235815E+02  0.50042048574E+02  0.20075561159E+03  0.17375447358E+03 0.  0.
        -24    2    5    5    0    0  0.97921553100E+02 -0.75163039677E+01  0.86672851988E+02  0.15308475388E+03  0.79231516531E+02 0.  0.
          5    1    3    3  501    0  0.19400587651E+02  0.36492551631E+02 -0.36974351741E+01  0.41759431900E+02  0.47000000000E+01 0. -1.
        -11    1    4    4    0    0 -0.13754989217E+02  0.19273260474E+02 -0.29958160251E+02  0.38185725910E+02  0.00000000000E+00 0.  1.
         12    1    4    4    0    0 -0.90615085746E+02 -0.75468047920E+02 -0.94394231939E+02  0.15105227918E+03  0.00000000000E+00 0. -1.
         -5    1    5    5    0  502 -0.12952065789E+02  0.27218539783E+02 -0.36630803414E+02  0.47670857710E+02  0.47000000000E+01 0.  1.
         11    1    6    6    0    0  0.45342374026E+02  0.31740443145E+02  0.18240061027E+02  0.58275950783E+02  0.00000000000E+00 0. -1.
        -12    1    6    6    0    0  0.52579179074E+02 -0.39256747113E+02  0.68432790961E+02  0.94808803097E+02  0.00000000000E+00 0.  1.
</event>
<event>
12    1  0.8344842E-002  0.2848447E+03  0.7818608E-02  0.1094041E+00
         21   -1    0    0  503  502  0.00000000000E+00  0.00000000000E+00  0.10293930346E+04  0.10293930346E+04  0.00000000000E+00 0. -1.
         21   -1    0    0  501  503 -0.00000000000E+00 -0.00000000000E+00 -0.15415151845E+03  0.15415151845E+03  0.00000000000E+00 0.  1.
          6    2    1    2  501    0 -0.21905638737E+03  0.63281619063E+02  0.21358409810E+02  0.28564437300E+03  0.17072276356E+03 0.  0.
         24    2    3    3    0    0 -0.22999751310E+03  0.60675114150E+02  0.49739553765E+02  0.25475616437E+03  0.76461458062E+02 0.  0.
         -6    2    1    2    0  502  0.21905638737E+03 -0.63281619063E+02  0.85388310638E+03  0.89790018009E+03  0.15848693920E+03 0.  0.
        -24    2    5    5    0    0  0.18228527847E+03 -0.91316568741E+02  0.78218069962E+03  0.81245196193E+03  0.81883484948E+02 0.  0.
          5    1    3    3  501    0  0.10941125725E+02  0.26065049125E+01 -0.28381143955E+02  0.30888208627E+02  0.47000000000E+01 0. -1.
        -11    1    4    4    0    0 -0.57838098381E+02  0.10541536543E+01 -0.17683007998E+02  0.60490045761E+02  0.00000000000E+00 0.  1.
         12    1    4    4    0    0 -0.17215941472E+03  0.59620960496E+02  0.67422561763E+02  0.19426611861E+03  0.00000000000E+00 0. -1.
         -5    1    5    5    0  502  0.36771108899E+02  0.28034949679E+02  0.71702406758E+02  0.85448218167E+02  0.47000000000E+01 0.  1.
         11    1    6    6    0    0  0.16882174580E+03 -0.66286622167E+02  0.73768620699E+03  0.75965494675E+03  0.00000000000E+00 0. -1.
        -12    1    6    6    0    0  0.13463532678E+02 -0.25029946574E+02  0.44494492625E+02  0.52797015177E+02  0.00000000000E+00 0.  1.
</event>
<event>
12    1  0.8344842E-002  0.2106336E+03  0.7818608E-02  0.1141234E+00
         21   -1    0    0  501  502  0.00000000000E+00  0.00000000000E+00  0.62184314348E+03  0.62184314348E+03  0.00000000000E+00 0. -1.
         21   -1    0    0  502  503 -0.00000000000E+00 -0.00000000000E+00 -0.89310760802E+02  0.89310760802E+02  0.00000000000E+00 0.  1.
         -6    2    1    2    0  503  0.10850404153E+03  0.50330222474E+02  0.10509006357E+03  0.23463167758E+03  0.17234223029E+03 0.  0.
        -24    2    3    3    0    0  0.53374769210E+02  0.74460719534E+02  0.12035839338E+03  0.17236828987E+03  0.82652403191E+02 0.  0.
          6    2    1    2  501    0 -0.10850404153E+03 -0.50330222474E+02  0.42744231911E+03  0.47652222670E+03  0.17337888584E+03 0.  0.
         24    2    5    5    0    0 -0.77896603495E+02 -0.81505304613E+02  0.18439180746E+03  0.22953165558E+03  0.77288076310E+02 0.  0.
          5    1    5    5  501    0 -0.30607438033E+02  0.31175082138E+02  0.24305051165E+03  0.24699057112E+03  0.47000000000E+01 0. -1.
        -13    1    6    6    0    0  0.97363261984E+01 -0.24005895025E+02  0.13900041456E+02  0.29398812838E+02  0.00000000000E+00 0.  1.
         14    1    6    6    0    0 -0.87632929693E+02 -0.57499409587E+02  0.17049176600E+03  0.20013284274E+03  0.00000000000E+00 0. -1.
         -5    1    3    3    0  503  0.55129272318E+02 -0.24130497060E+02 -0.15268329807E+02  0.62263387715E+02  0.47000000000E+01 0.  1.
         11    1    4    4    0    0  0.66818421684E+02  0.78674504151E+02  0.83031663287E+02  0.13247126552E+03  0.00000000000E+00 0. -1.
        -12    1    4    4    0    0 -0.13443652474E+02 -0.42137846167E+01  0.37326730089E+02  0.39897024348E+02  0.00000000000E+00 0.  1.
</event>
<event>
12    1  0.8344842E-002  0.1826344E+03  0.7818608E-02  0.1165297E+00
         21   -1    0    0  501  502  0.00000000000E+00  0.00000000000E+00  0.12770732144E+04  0.12770732144E+04  0.00000000000E+00 0.  1.
         21   -1    0    0  502  503 -0.00000000000E+00 -0.00000000000E+00 -0.39778443979E+02  0.39778443979E+02  0.00000000000E+00 0.  1.
         -6    2    1    2    0  503  0.57751524660E+02  0.21119043999E+02  0.23255271002E+03  0.29564554504E+03  0.17188447499E+03 0.  0.
        -24    2    3    3    0    0  0.95413784484E+02  0.11720399268E+02  0.22406205585E+03  0.25563352752E+03  0.76834481145E+02 0.  0.
          6    2    1    2  501    0 -0.57751524660E+02 -0.21119043999E+02  0.10047420603E+04  0.10212061133E+04  0.17197111783E+03 0.  0.
         24    2    5    5    0    0  0.34203493153E+02 -0.14450732812E+02  0.57858479462E+03  0.58516449050E+03  0.79236442059E+02 0.  0.
          5    1    5    5  501    0 -0.91955017813E+02 -0.66683111865E+01  0.42615726573E+03  0.43604162279E+03  0.47000000000E+01 0. -1.
        -11    1    6    6    0    0  0.11340906869E+01 -0.43284763894E+02  0.31280925860E+03  0.31579184476E+03  0.00000000000E+00 0.  1.
         12    1    6    6    0    0  0.33069402466E+02  0.28834031082E+02  0.26577553602E+03  0.26937264574E+03  0.00000000000E+00 0. -1.
         -5    1    3    3    0  503 -0.37662259823E+02  0.93986447309E+01  0.84906541769E+01  0.40012017521E+02  0.47000000000E+01 0.  1.
         11    1    4    4    0    0  0.66110285257E+02 -0.17686905061E+02  0.18994893699E+03  0.20190095366E+03  0.00000000000E+00 0. -1.
        -12    1    4    4    0    0  0.29303499227E+02  0.29407304329E+02  0.34113118860E+02  0.53732573856E+02  0.00000000000E+00 0.  1.
</event>
<event>
12    1  0.8344842E-002  0.2618650E+03  0.7818608E-02  0.1106049E+00
         21   -1    0    0  503  502  0.00000000000E+00  0.00000000000E+00  0.26443846539E+04  0.26443846539E+04  0.00000000000E+00 0.  1.
         21   -1    0    0  501  503 -0.00000000000E+00 -0.00000000000E+00 -0.61566515238E+02  0.61566515238E+02  0.00000000000E+00 0. -1.
          6    2    1    2  501    0 -0.15861511172E+03  0.11760570863E+03  0.26172254017E+03  0.37013053381E+03  0.17177912462E+03 0.  0.
         24    2    3    3    0    0 -0.86840436718E+02  0.49731915777E+02  0.23458064656E+03  0.26757699600E+03  0.80961992016E+02 0.  0.
         -6    2    1    2    0  502  0.15861511172E+03 -0.11760570863E+03  0.23210955985E+04  0.23358206353E+04  0.17199827534E+03 0.  0.
        -24    2    5    5    0    0  0.11937416571E+03 -0.41844077240E+02  0.91100269218E+03  0.92314099328E+03  0.79134506194E+02 0.  0.
          5    1    3    3  501    0 -0.71774675002E+02  0.67873792858E+02  0.27141893610E+02  0.10255353781E+03  0.47000000000E+01 0. -1.
        -13    1    4    4    0    0 -0.10575796640E+02 -0.21039209400E+02  0.30774894214E+02  0.38750353813E+02  0.00000000000E+00 0.  1.
         14    1    4    4    0    0 -0.76264640079E+02  0.70771125176E+02  0.20380575235E+03  0.22882664219E+03  0.00000000000E+00 0. -1.
         -5    1    5    5    0  502  0.39240946010E+02 -0.75761631395E+02  0.14100929063E+04  0.14126796420E+04  0.47000000000E+01 0.  1.
         13    1    6    6    0    0  0.13471313859E+02 -0.67191296863E+01  0.39160365869E+03  0.39189290438E+03  0.00000000000E+00 0. -1.
        -14    1    6    6    0    0  0.10590285185E+03 -0.35124947553E+02  0.51939903349E+03  0.53124808890E+03  0.00000000000E+00 0.  1.
</event>
<event>
12    1  0.8344842E-002  0.2125763E+03  0.7818608E-02  0.1139565E+00
         21   -1    0    0  503  502  0.00000000000E+00  0.00000000000E+00  0.10933636705E+03  0.10933636705E+03  0.00000000000E+00 0.  1.
         21   -1    0    0  501  503 -0.00000000000E+00 -0.00000000000E+00 -0.41936282899E+03  0.41936282899E+03  0.00000000000E+00 0.  1.
          6    2    1    2  501    0  0.12350665288E+03  0.18293731594E+01 -0.12267578371E+03  0.24543440751E+03  0.17300711133E+03 0.  0.
         24    2    3    3    0    0  0.81222026143E+02  0.44259008165E+01  0.13998981547E+01  0.11424143345E+03  0.80203112608E+02 0.  0.
         -6    2    1    2    0  502 -0.12350665288E+03 -0.18293731594E+01 -0.18735067823E+03  0.28326478853E+03  0.17286244206E+03 0.  0.
        -24    2    5    5    0    0 -0.23418005571E+02 -0.82420823283E+01 -0.52337141191E+02  0.11501020362E+03  0.99357111886E+02 0.  0.
          5    1    3    3  501    0  0.42284626741E+02 -0.25965276571E+01 -0.12407568187E+03  0.13119297407E+03  0.47000000000E+01 0. -1.
        -11    1    4    4    0    0  0.62228831351E+02  0.37984413272E+02 -0.11011706201E+02  0.73732630337E+02  0.00000000000E+00 0.  1.
         12    1    4    4    0    0  0.18993194792E+02 -0.33558512456E+02  0.12411604355E+02  0.40508803109E+02  0.00000000000E+00 0. -1.
         -5    1    5    5    0  502 -0.10008864731E+03  0.64127091689E+01 -0.13501353704E+03  0.16825458491E+03  0.47000000000E+01 0.  1.
         11    1    6    6    0    0  0.64077487640E+01  0.41977135913E+02 -0.12341830425E+02  0.44220583012E+02  0.00000000000E+00 0. -1.
        -12    1    6    6    0    0 -0.29825754335E+02 -0.50219218241E+02 -0.39995310766E+02  0.70789620607E+02  0.00000000000E+00 0.  1.
</event>
<event>
12    1  0.8344842E-002  0.2125231E+03  0.7818608E-02  0.1139651E+00
         21   -1    0    0  503  502  0.00000000000E+00  0.00000000000E+00  0.25611570960E+03  0.25611570960E+03  0.00000000000E+00 0.  1.
         21   -1    0    0  501  503 -0.00000000000E+00 -0.00000000000E+00 -0.25008088505E+03  0.25008088505E+03  0.00000000000E+00 0.  1.
          6    2    1    2  501    0 -0.10723336606E+03 -0.65975834012E+02 -0.13467891444E+03  0.25131145111E+03  0.17078416201E+03 0.  0.
         24    2    3    3    0    0 -0.42527213792E+02 -0.41550838019E+02 -0.15060650887E+03  0.18018308240E+03  0.79048001992E+02 0.  0.
         -6    2    1    2    0  502  0.10723336606E+03  0.65975834012E+02  0.14071373899E+03  0.25488514353E+03  0.17121411911E+03 0.  0.
        -24    2    5    5    0    0  0.12816252460E+02  0.73175898297E+02  0.11226495783E+03  0.15590102654E+03  0.78630406974E+02 0.  0.
          5    1    3    3  501    0 -0.64706152271E+02 -0.24424995993E+02  0.15927594422E+02  0.71128368708E+02  0.47000000000E+01 0. -1.
        -13    1    4    4    0    0  0.10274658278E+01 -0.24910805550E+01 -0.10745049231E+03  0.10748427543E+03  0.00000000000E+00 0.  1.
         14    1    4    4    0    0 -0.43554679620E+02 -0.39059757464E+02 -0.43156016562E+02  0.72698806974E+02  0.00000000000E+00 0. -1.
         -5    1    5    5    0  502  0.94417113603E+02 -0.72000642850E+01  0.28448781159E+02  0.98984116990E+02  0.47000000000E+01 0.  1.
         11    1    6    6    0    0  0.34402004995E+02  0.29874922111E+01  0.31452489109E+02  0.46708480263E+02  0.00000000000E+00 0. -1.
        -12    1    6    6    0    0 -0.21585752535E+02  0.70188406086E+02  0.80812468725E+02  0.10919254628E+03  0.00000000000E+00 0.  1.
</event>
<event>
12    1  0.8344842E-002  0.2448604E+03  0.7818608E-02  0.1116697E+00
         21   -1    0    0  501  502  0.00000000000E+00  0.00000000000E+00  0.66969837502E+03  0.66969837502E+03  0.00000000000E+00 0.  1.
         21   -1    0    0  502  503 -0.00000000000E+00 -0.00000000000E+00 -0.33788549240E+03  0.33788549240E+03  0.00000000000E+00 0. -1.
         -6    2    1    2    0  503  0.10253544742E+03 -0.14117440306E+03 -0.26615585087E+03  0.36165668638E+03  0.17179316574E+03 0.  0.
        -24    2    3    3    0    0  0.19091451197E+02 -0.10272862015E+03 -0.80620110835E+02  0.15456593439E+03  0.80457273731E+02 0.  0.
          6    2    1    2  501    0 -0.10253544742E+03  0.14117440306E+03  0.59796873349E+03  0.64592718103E+03  0.17091397515E+03 0.  0.
         24    2    5    5    0    0 -0.13343201988E+02  0.48173331534E+02  0.39476246522E+03  0.40526282261E+03  0.76823437365E+02 0.  0.
          5    1    5    5  501    0 -0.89192245435E+02  0.93001071527E+02  0.20320626827E+03  0.24066435842E+03  0.47000000000E+01 0. -1.
        -13    1    6    6    0    0 -0.58608606422E+00  0.52684162641E+02  0.13163467653E+03  0.14178734977E+03  0.00000000000E+00 0.  1.
         14    1    6    6    0    0 -0.12757115924E+02 -0.45108311072E+01  0.26312778869E+03  0.26347547283E+03  0.00000000000E+00 0. -1.
         -5    1    3    3    0  503  0.83443996226E+02 -0.38445782909E+02 -0.18553574004E+03  0.20709075199E+03  0.47000000000E+01 0.  1.
         11    1    4    4    0    0  0.41740699318E+02 -0.58116764655E+02 -0.75902130742E+02  0.10431192532E+03  0.00000000000E+00 0. -1.
        -12    1    4    4    0    0 -0.22649248121E+02 -0.44611855496E+02 -0.47179800928E+01  0.50254009068E+02  0.00000000000E+00 0.  1.
</event>
<event>
12    1  0.8344842E-002  0.2037399E+03  0.7818608E-02  0.1147325E+00
         21   -1    0    0  503  502  0.00000000000E+00  0.00000000000E+00  0.15111789292E+03  0.15111789292E+03  0.00000000000E+00 0.  1.
         21   -1    0    0  501  503 -0.00000000000E+00 -0.00000000000E+00 -0.30228810624E+03  0.30228810624E+03  0.00000000000E+00 0. -1.
          6    2    1    2  501    0  0.49510599918E+02 -0.96121921369E+02 -0.15008367195E+03  0.25305146345E+03  0.17268240008E+03 0.  0.
         24    2    3    3    0    0 -0.36370225395E+02 -0.79630014289E+02 -0.10186385243E+03  0.15307776616E+03  0.73435860378E+02 0.  0.
         -6    2    1    2    0  502 -0.49510599918E+02  0.96121921369E+02 -0.10865413601E+01  0.20035453571E+03  0.16867138505E+03 0.  0.
        -24    2    5    5    0    0 -0.66510855665E+02  0.90904797857E+02 -0.55037058232E+02  0.14335475199E+03  0.69527914856E+02 0.  0.
          5    1    3    3  501    0  0.85880825313E+02 -0.16491907080E+02 -0.48219819525E+02  0.99973697294E+02  0.47000000000E+01 0. -1.
        -13    1    4    4    0    0 -0.60317014993E+01 -0.55137253403E+02 -0.14382780697E+02  0.57300632774E+02  0.00000000000E+00 0.  1.
         14    1    4    4    0    0 -0.30338523896E+02 -0.24492760887E+02 -0.87481071729E+02  0.95777133382E+02  0.00000000000E+00 0. -1.
         -5    1    5    5    0  502  0.17000255747E+02  0.52171235119E+01  0.53950516872E+02  0.56999783719E+02  0.47000000000E+01 0.  1.
         11    1    6    6    0    0 -0.32727772883E+02 -0.26174121848E+01 -0.16085315172E+02  0.36560844200E+02  0.00000000000E+00 0. -1.
        -12    1    6    6    0    0 -0.33783082782E+02  0.93522210042E+02 -0.38951743060E+02  0.10679390779E+03  0.00000000000E+00 0.  1.
</event>
<event>
12    1  0.8344842E-002  0.2748883E+03  0.7818608E-02  0.1099422E+00
         21   -1    0    0  503  502  0.00000000000E+00  0.00000000000E+00  0.75235822730E+03  0.75235822730E+03  0.00000000000E+00 0.  1.
         21   -1    0    0  501  503 -0.00000000000E+00 -0.00000000000E+00 -0.10800558164E+03  0.10800558164E+03  0.00000000000E+00 0. -1.
          6    2    1    2  501    0 -0.16911296635E+03 -0.13200648234E+03  0.45585316612E+03  0.53232104461E+03  0.17186820155E+03 0.  0.
         24    2    3    3    0    0 -0.17981686959E+03 -0.11720661006E+03  0.31020429747E+03  0.38545616555E+03  0.79235429927E+02 0.  0.
         -6    2    1    2    0  502  0.16911296635E+03  0.13200648234E+03  0.18849947955E+03  0.32804276433E+03  0.16141590587E+03 0.  0.
        -24    2    5    5    0    0  0.17277207286E+03  0.60558939883E+02  0.12256847330E+03  0.23064087539E+03  0.68224690515E+02 0.  0.
          5    1    3    3  501    0  0.10703903238E+02 -0.14799872276E+02  0.14564886865E+03  0.14686487907E+03  0.47000000000E+01 0. -1.
        -11    1    4    4    0    0 -0.10688744818E+03 -0.89786994617E+02  0.25243739354E+03  0.28846363487E+03  0.00000000000E+00 0.  1.
         12    1    4    4    0    0 -0.72929421409E+02 -0.27419615445E+02  0.57766903928E+02  0.96992530680E+02  0.00000000000E+00 0. -1.
         -5    1    5    5    0  502 -0.36591065018E+01  0.71447542455E+02  0.65931006245E+02  0.97401888933E+02  0.47000000000E+01 0.  1.
         13    1    6    6    0    0  0.21002345625E+02 -0.35797215312E+01 -0.54447561460E+01  0.21989959015E+02  0.00000000000E+00 0. -1.
        -14    1    6    6    0    0  0.15176972723E+03  0.64138661415E+02  0.12801322945E+03  0.20865091638E+03  0.00000000000E+00 0.  1.
</event>
<event>
12    1  0.8344842E-002  0.2058627E+03  0.7818608E-02  0.1145195E+00
         21   -1    0    0  501  502  0.00000000000E+00  0.00000000000E+00  0.23479128801E+02  0.23479128801E+02  0.00000000000E+00 0. -1.
         21   -1    0    0  502  503 -0.00000000000E+00 -0.00000000000E+00 -0.22549608446E+04  0.22549608446E+04  0.00000000000E+00 0. -1.
         -6    2    1    2    0  503 -0.33855720050E+02  0.10584370566E+03 -0.16354116159E+04  0.16483175086E+04  0.17329268853E+03 0.  0.
        -24    2    3    3    0    0  0.38843379402E+02  0.64441016376E+02 -0.63424532656E+03  0.64365071276E+03  0.79734892326E+02 0.  0.
          6    2    1    2  501    0  0.33855720050E+02 -0.10584370566E+03 -0.59607009989E+03  0.63012246481E+03  0.17148077693E+03 0.  0.
         24    2    5    5    0    0  0.62308573991E+02 -0.68857615018E+02 -0.55260235048E+03  0.56617662023E+03  0.81011591826E+02 0.  0.
          5    1    5    5  501    0 -0.28452853941E+02 -0.36986090641E+02 -0.43467749418E+02  0.63945844570E+02  0.47000000000E+01 0. -1.
        -13    1    6    6    0    0 -0.15779457770E+02  0.34796031306E+01 -0.55436189379E+02  0.57743138280E+02  0.00000000000E+00 0.  1.
         14    1    6    6    0    0  0.78088031761E+02 -0.72337218148E+02 -0.49716616110E+03  0.50843348196E+03  0.00000000000E+00 0. -1.
         -5    1    3    3    0  503 -0.72699099452E+02  0.41402689283E+02 -0.10011662894E+04  0.10046667959E+04  0.47000000000E+01 0.  1.
         13    1    4    4    0    0 -0.78448257437E+01  0.62407998978E+02 -0.36434180910E+03  0.36973132608E+03  0.00000000000E+00 0. -1.
        -14    1    4    4    0    0  0.46688205146E+02  0.20330173973E+01 -0.26990351746E+03  0.27391938667E+03  0.00000000000E+00 0.  1.
</event>
<event>
12    1  0.8344842E-002  0.3086018E+03  0.7818608E-02  0.1081060E+00
         21   -1    0    0  501  502  0.00000000000E+00  0.00000000000E+00  0.14312185715E+03  0.14312185715E+03  0.00000000000E+00 0. -1.
         21   -1    0    0  502  503 -0.00000000000E+00 -0.00000000000E+00 -0.66880139516E+03  0.66880139516E+03  0.00000000000E+00 0.  1.
         -6    2    1    2    0  503  0.11332089662E+03  0.23028138266E+03 -0.29464171464E+03  0.42641895913E+03  0.17072857960E+03 0.  0.
        -24    2    3    3    0    0  0.13129462037E+03  0.16022822122E+03 -0.27191869603E+03  0.35046551452E+03  0.77297732230E+02 0.  0.
          6    2    1    2  501    0 -0.11332089662E+03 -0.23028138266E+03 -0.23103782337E+03  0.38550429318E+03  0.17135910663E+03 0.  0.
         24    2    5    5    0    0 -0.11195670527E+03 -0.20455441566E+03 -0.12571774809E+03  0.27697712558E+03  0.80836644496E+02 0.  0.
          5    1    5    5  501    0 -0.13641913508E+01 -0.25726966998E+02 -0.10532007528E+03  0.10852716760E+03  0.47000000000E+01 0. -1.
        -11    1    6    6    0    0  0.24854273153E+01 -0.26984447099E+02  0.63578062221E+01  0.27834500788E+02  0.00000000000E+00 0.  1.
         12    1    6    6    0    0 -0.11444213258E+03 -0.17756996856E+03 -0.13207555431E+03  0.24914262480E+03  0.00000000000E+00 0. -1.
         -5    1    3    3    0  503 -0.17973723750E+02  0.70053161440E+02 -0.22723018612E+02  0.75953444609E+02  0.47000000000E+01 0.  1.
         13    1    4    4    0    0  0.55441051410E+02  0.32117459119E+02 -0.12925512744E+03  0.14426409578E+03  0.00000000000E+00 0. -1.
        -14    1    4    4    0    0  0.75853568958E+02  0.12811076210E+03 -0.14266356859E+03  0.20620141874E+03  0.00000000000E+00 0.  1.
</event>
<event>
12    1  0.8344842E-002  0.1957153E+03  0.7818608E-02  0.1153587E+00
         21   -1    0    0  503  502  0.00000000000E+00  0.00000000000E+00  0.64178175384E+03  0.64178175384E+03  0.00000000000E+00 0. -1.
         21   -1    0    0  501  503 -0.00000000000E+00 -0.00000000000E+00 -0.81629843391E+02  0.81629843391E+02  0.00000000000E+00 0. -1.
          6    2    1    2  501    0 -0.15381578589E+01  0.93345271570E+02  0.46913811358E+03  0.50832571855E+03  0.17201383919E+03 0.  0.
         24    2    3    3    0    0 -0.26370329386E+02  0.54929865499E+02  0.12137857331E+03  0.15753921936E+03  0.79832093685E+02 0.  0.
         -6    2    1    2    0  502  0.15381578589E+01 -0.93345271570E+02  0.91013796867E+02  0.21508587868E+03  0.17106349211E+03 0.  0.
        -24    2    5    5    0    0 -0.41006988260E+00 -0.39151564317E+01 -0.95665027706E+01  0.80400958363E+02  0.79732675380E+02 0.  0.
          5    1    3    3  501    0  0.24832171527E+02  0.38415406072E+02  0.34775954027E+03  0.35078649919E+03  0.47000000000E+01 0. -1.
        -13    1    4    4    0    0 -0.48196567020E+02  0.50834876086E+02  0.11461179612E+03  0.13432407643E+03  0.00000000000E+00 0.  1.
         14    1    4    4    0    0  0.21826237634E+02  0.40949894123E+01  0.67667771860E+01  0.23215142925E+02  0.00000000000E+00 0. -1.
         -5    1    5    5    0  502  0.19482277415E+01 -0.89430115139E+02  0.10058029964E+03  0.13468492031E+03  0.47000000000E+01 0.  1.
         13    1    6    6    0    0 -0.22301543151E+02 -0.34500444996E+02 -0.11740824989E+02  0.42725712437E+02  0.00000000000E+00 0. -1.
        -14    1    6    6    0    0  0.21891473269E+02  0.30585288564E+02  0.21743222185E+01  0.37675245925E+02  0.00000000000E+00 0.  1.
</event>
<event>
12    1  0.8344842E-002  0.2223402E+03  0.7818608E-02  0.1132259E+00
         21   -1    0    0  503  502  0.00000000000E+00  0.00000000000E+00  0.53819694580E+02  0.53819694580E+02  0.00000000000E+00 0.  1.
         21   -1    0    0  501  503 -0.00000000000E+00 -0.00000000000E+00 -0.13060623955E+04  0.13060623955E+04  0.00000000000E+00 0.  1.
          6    2    1    2  501    0  0.13875951587E+03 -0.32934153647E+02 -0.99707693274E+03  0.10214375091E+04  0.16980375016E+03 0.  0.
         24    2    3    3    0    0  0.94721438246E+02 -0.44580750293E+02 -0.93560071325E+03  0.94477975640E+03  0.79375684555E+02 0.  0.
         -6    2    1    2    0  502 -0.13875951587E+03  0.32934153647E+02 -0.25516576817E+03  0.33844458092E+03  0.17057638579E+03 0.  0.
        -24    2    5    5    0    0 -0.89909526731E+02 -0.19984710327E+02 -0.72692769480E+02  0.14221712909E+03  0.80363931134E+02 0.  0.
          5    1    3    3  501    0  0.44038077623E+02  0.11646596646E+02 -0.61476219483E+02  0.76657752746E+02  0.47000000000E+01 0. -1.
        -13    1    4    4    0    0  0.76685589035E+02  0.51695418650E+01 -0.62426571986E+03  0.62897940564E+03  0.00000000000E+00 0.  1.
         14    1    4    4    0    0  0.18035849212E+02 -0.49750292158E+02 -0.31133499340E+03  0.31580035076E+03  0.00000000000E+00 0. -1.
         -5    1    5    5    0  502 -0.48849989139E+02  0.52918863974E+02 -0.18247299869E+03  0.19622745183E+03  0.47000000000E+01 0.  1.
         13    1    6    6    0    0 -0.11525675994E+02 -0.23517695876E+02  0.10174098435E+02  0.28096894942E+02  0.00000000000E+00 0. -1.
        -14    1    6    6    0    0 -0.78383850737E+02  0.35329855488E+01 -0.82866867915E+02  0.11412023414E+03  0.00000000000E+00 0.  1.
</event>
<event>
12    1  0.8344842E-002  0.2065497E+03  0.7818608E-02  0.1144504E+00
         21   -1    0    0  503  502  0.00000000000E+00  0.00000000000E+00  0.11135813408E+03  0.11135813408E+03  0.00000000000E+00 0. -1.
         21   -1    0    0  501  503 -0.00000000000E+00 -0.00000000000E+00 -0.82485592302E+03  0.82485592302E+03  0.00000000000E+00 0. -1.
          6    2    1    2  501    0  0.73193852731E+02 -0.87014568366E+02 -0.69958857433E+03  0.72919651983E+03  0.17138995309E+03 0.  0.
         24    2    3    3    0    0  0.34071311586E+02 -0.84051243313E+02 -0.66732473867E+03  0.67818279999E+03  0.79900798396E+02 0.  0.
         -6    2    1    2    0  502 -0.73193852731E+02  0.87014568366E+02 -0.13909214613E+02  0.20701753728E+03  0.17243526119E+03 0.  0.
        -24    2    5    5    0    0 -0.30383045842E+02  0.11091698290E+03  0.24752865529E+02  0.14440015113E+03  0.83743613041E+02 0.  0.
          5    1    3    3  501    0  0.39122541144E+02 -0.29633250531E+01 -0.32263835658E+02  0.51013719844E+02  0.47000000000E+01 0. -1.
        -11    1    4    4    0    0  0.39061785283E+02 -0.28321322140E+02 -0.14384266938E+03  0.15171893057E+03  0.00000000000E+00 0.  1.
         12    1    4    4    0    0 -0.49904736964E+01 -0.55729921174E+02 -0.52348206929E+03  0.52646386942E+03  0.00000000000E+00 0. -1.
         -5    1    5    5    0  502 -0.42810806889E+02 -0.23902414530E+02 -0.38662080141E+02  0.62617386146E+02  0.47000000000E+01 0.  1.
         11    1    6    6    0    0 -0.45308387661E+02  0.73333823095E+02 -0.15225755957E+02  0.87535839784E+02  0.00000000000E+00 0. -1.
        -12    1    6    6    0    0  0.14925341819E+02  0.37583159801E+02  0.39978621486E+02  0.56864311347E+02  0.00000000000E+00 0.  1.
</event>
<event>
12    1  0.8344842E-002  0.1764575E+03  0.7818608E-02  0.1171381E+00
         21   -1    0    0  503  502  0.00000000000E+00  0.00000000000E+00  0.18403440069E+03  0.18403440069E+03  0.00000000000E+00 0. -1.
         21   -1    0    0  501  503 -0.00000000000E+00 -0.00000000000E+00 -0.28473298776E+03  0.28473298776E+03  0.00000000000E+00 0. -1.
          6    2    1    2  501    0 -0.55422329727E+01 -0.40864174665E+02 -0.19988006669E+03  0.26634650377E+03  0.17113685135E+03 0.  0.
         24    2    3    3    0    0  0.18619841856E+02 -0.87911425607E+02 -0.10839228109E+03  0.16056675809E+03  0.77186008711E+02 0.  0.
         -6    2    1    2    0  502  0.55422329727E+01  0.40864174665E+02  0.99181479623E+02  0.20242088467E+03  0.17157112675E+03 0.  0.
        -24    2    5    5    0    0 -0.55516160459E+02  0.55035523703E+02  0.45593249512E+02  0.11982098789E+03  0.78532616134E+02 0.  0.
          5    1    3    3  501    0 -0.24162074828E+02  0.47047250942E+02 -0.91487785604E+02  0.10577974568E+03  0.47000000000E+01 0. -1.
        -13    1    4    4    0    0 -0.25964394964E+02 -0.60357769857E+02 -0.54192433237E+02  0.85170593564E+02  0.00000000000E+00 0.  1.
         14    1    4    4    0    0  0.44584236819E+02 -0.27553655750E+02 -0.54199847853E+02  0.75396164526E+02  0.00000000000E+00 0. -1.
         -5    1    5    5    0  502  0.61058393431E+02 -0.14171349038E+02  0.53588230110E+02  0.82599896782E+02  0.47000000000E+01 0.  1.
         13    1    6    6    0    0 -0.63448068226E+01 -0.17209731742E+02  0.23258929061E+02  0.29621094195E+02  0.00000000000E+00 0. -1.
        -14    1    6    6    0    0 -0.49171353636E+02  0.72245255446E+02  0.22334320452E+02  0.90199893696E+02  0.00000000000E+00 0.  1.
</event>
<event>
12    1  0.8344842E-002  0.2610054E+03  0.7818608E-02  0.1106655E+00
         21   -1    0    0  501  502  0.00000000000E+00  0.00000000000E+00  0.18504374567E+03  0.18504374567E+03  0.00000000000E+00 0. -1.
         21   -1    0    0  502  503 -0.00000000000E+00 -0.00000000000E+00 -0.41416968715E+03  0.41416968715E+03  0.00000000000E+00 0.  1.
         -6    2    1    2    0  503 -0.13712010038E+03  0.14042378007E+03 -0.21573815221E+03  0.33862484799E+03  0.17205544869E+03 0.  0.
        -24    2    3    3    0    0 -0.45383240013E+02  0.70999486550E+02 -0.18729282276E+03  0.22002210415E+03  0.78933891898E+02 0.  0.
          6    2    1    2  501    0  0.13712010038E+03 -0.14042378007E+03 -0.13387789268E+02  0.26058858483E+03  0.17089885226E+03 0.  0.
         24    2    5    5    0    0  0.16418431613E+03 -0.11180885799E+03 -0.32689378483E+02  0.21647592354E+03  0.79595977393E+02 0.  0.
          5    1    5    5  501    0 -0.27064215754E+02 -0.28614922081E+02  0.19301589216E+02  0.44112661292E+02  0.47000000000E+01 0. -1.
        -13    1    6    6    0    0  0.79336431354E+02 -0.79350731148E+01 -0.15958152889E+02  0.81313574322E+02  0.00000000000E+00 0.  1.
         14    1    6    6    0    0  0.84847884778E+02 -0.10387378488E+03 -0.16731225594E+02  0.13516234922E+03  0.00000000000E+00 0. -1.
         -5    1    3    3    0  503 -0.91736860366E+02  0.69424293522E+02 -0.28445329446E+02  0.11860274385E+03  0.47000000000E+01 0.  1.
         13    1    4    4    0    0 -0.12141024499E+02  0.63069078721E+02 -0.58853883709E+02  0.87114251384E+02  0.00000000000E+00 0. -1.
        -14    1    4    4    0    0 -0.33242215515E+02  0.79304078291E+01 -0.12843893905E+03  0.13290785276E+03  0.00000000000E+00 0.  1.
</event>
<event>
12    1  0.8344842E-002  0.2238835E+03  0.7818608E-02  0.1131091E+00
         21   -1    0    0  503  502  0.00000000000E+00  0.00000000000E+00  0.99488213410E+03  0.99488213410E+03  0.00000000000E+00 0. -1.
         21   -1    0    0  501  503 -0.00000000000E+00 -0.00000000000E+00 -0.54747373989E+02  0.54747373989E+02  0.00000000000E+00 0.  1.
          6    2    1    2  501    0 -0.13659551203E+03  0.41309728889E+02  0.61936894877E+03  0.65845879681E+03  0.17200367668E+03 0.  0.
         24    2    3    3    0    0 -0.51594608617E+02  0.85290591392E+02  0.35457264641E+03  0.37685865195E+03  0.79775894500E+02 0.  0.
         -6    2    1    2    0  502  0.13659551203E+03 -0.41309728889E+02  0.32076581134E+03  0.39117071128E+03  0.17250794772E+03 0.  0.
        -24    2    5    5    0    0  0.90939720213E+02 -0.11067461062E+02  0.82555520993E+02  0.14670132972E+03  0.79456558498E+02 0.  0.
          5    1    3    3  501    0 -0.85000903416E+02 -0.43980862502E+02  0.26479630235E+03  0.28160014487E+03  0.47000000000E+01 0. -1.
        -13    1    4    4    0    0 -0.32828895922E+02  0.75069822096E+02  0.34281213831E+03  0.35246755421E+03  0.00000000000E+00 0.  1.
         14    1    4    4    0    0 -0.18765712695E+02  0.10220769296E+02  0.11760508103E+02  0.24391097736E+02  0.00000000000E+00 0. -1.
         -5    1    5    5    0  502  0.45655791819E+02 -0.30242267827E+02  0.23821029035E+03  0.24446938156E+03  0.47000000000E+01 0.  1.
         11    1    6    6    0    0  0.20488056221E+02  0.50982888656E+01  0.70281327941E+02  0.73384044957E+02  0.00000000000E+00 0. -1.
        -12    1    6    6    0    0  0.70451663992E+02 -0.16165749928E+02  0.12274193052E+02  0.73317284763E+02  0.00000000000E+00 0.  1.
</event>
<event>
12    1  0.8344842E-002  0.1765060E+03  0.7818608E-02  0.1172211E+00
         21   -1    0    0  501  502  0.00000000000E+00  0.00000000000E+00  0.14880942096E+03  0.14880942096E+03  0.00000000000E+00 0. -1.
         21   -1    0    0  502  503 -0.00000000000E+00 -0.00000000000E+00 -0.21176403657E+03  0.21176403657E+03  0.00000000000E+00 0. -1.
         -6    2    1    2    0  503 -0.16680332058E+02 -0.32609718236E+01  0.10059275925E+01  0.17650891488E+03  0.17568584953E+03 0.  0.
        -24    2    3    3    0    0 -0.28637228866E+02 -0.53320857428E+02  0.45196101630E+02  0.10851023100E+03  0.77901077749E+02 0.  0.
          6    2    1    2  501    0  0.16680332058E+02  0.32609718236E+01 -0.63960543200E+02  0.18406454265E+03  0.17175545802E+03 0.  0.
         24    2    5    5    0    0  0.51984847850E+02  0.42394110351E+02 -0.79231914980E+02  0.12899080878E+03  0.76558783944E+02 0.  0.
          5    1    5    5  501    0 -0.35304515793E+02 -0.39133138527E+02  0.15271371780E+02  0.55073733870E+02  0.47000000000E+01 0. -1.
        -13    1    6    6    0    0 -0.19902077875E+02  0.11593315194E+02 -0.23877080174E+02  0.33175482190E+02  0.00000000000E+00 0.  1.
         14    1    6    6    0    0  0.71886925725E+02  0.30800795157E+02 -0.55354834806E+02  0.95815326587E+02  0.00000000000E+00 0. -1.
         -5    1    3    3    0  503  0.11956896808E+02  0.50059885605E+02 -0.44190174038E+02  0.67998683881E+02  0.47000000000E+01 0.  1.
         11    1    4    4    0    0 -0.10636280809E+02 -0.76065864219E+01 -0.21805435347E+02  0.25425727858E+02  0.00000000000E+00 0. -1.
        -12    1    4    4    0    0 -0.18000948058E+02 -0.45714271007E+02  0.67001536977E+02  0.83084503139E+02  0.00000000000E+00 0.  1.
</event>
<event>
12    1  0.8344842E-002  0.2307734E+03  0.7818608E-02  0.1126291E+00
         21   -1    0    0  501  502  0.00000000000E+00  0.00000000000E+00  0.70920058443E+02  0.70920058443E+02  0.00000000000E+00 0.  1.
         21   -1    0    0  502  503 -0.00000000000E+00 -0.00000000000E+00 -0.12458772879E+04  0.12458772879E+04  0.00000000000E+00 0. -1.
         -6    2    1    2    0  503  0.15085667334E+03  0.26660302135E+02 -0.10048114568E+04  0.10309716029E+04  0.17259164097E+03 0.  0.
        -24    2    3    3    0    0  0.64463987368E+02  0.73043548445E+01 -0.80838955976E+03  0.81546754134E+03  0.85350286352E+02 0.  0.
          6    2    1    2  501    0 -0.15085667334E+03 -0.26660302135E+02 -0.17014577261E+03  0.28582574346E+03  0.17110892463E+03 0.  0.
         24    2    5    5    0    0 -0.15481667926E+03 -0.64796772254E+02 -0.11179133609E+03  0.21584430120E+03  0.76971641942E+02 0.  0.
          5    1    5    5  501    0  0.39600059187E+01  0.38136470120E+02 -0.58354436514E+02  0.69981442261E+02  0.47000000000E+01 0. -1.
        -13    1    6    6    0    0 -0.11327360130E+03 -0.28624187346E+02 -0.36204169019E+02  0.12231514504E+03  0.00000000000E+00 0.  1.
         14    1    6    6    0    0 -0.41543077962E+02 -0.36172584908E+02 -0.75587167072E+02  0.93529156158E+02  0.00000000000E+00 0. -1.
         -5    1    3    3    0  503  0.86392685972E+02  0.19355947290E+02 -0.19642189706E+03  0.21550406152E+03  0.47000000000E+01 0.  1.
         11    1    4    4    0    0 -0.11050975046E+02  0.12879197778E+02 -0.38406784592E+03  0.38444259396E+03  0.00000000000E+00 0. -1.
        -12    1    4    4    0    0  0.75514962414E+02 -0.55748429335E+01 -0.42432171384E+03  0.43102494737E+03  0.00000000000E+00 0.  1.
</event>
<event>
12    1  0.8344842E-002  0.2358999E+03  0.7818608E-02  0.1122699E+00
         21   -1    0    0  501  502  0.00000000000E+00  0.00000000000E+00  0.35898489328E+03  0.35898489328E+03  0.00000000000E+00 0. -1.
         21   -1    0    0  502  503 -0.00000000000E+00 -0.00000000000E+00 -0.18368070609E+03  0.18368070609E+03  0.00000000000E+00 0. -1.
         -6    2    1    2    0  503 -0.51340167089E+02  0.15223568902E+03 -0.20434706264E+02  0.23678327774E+03  0.17273455251E+03 0.  0.
        -24    2    3    3    0    0 -0.59072613182E+02  0.41046153153E+02 -0.55167154139E+02  0.11994434354E+03  0.78542156420E+02 0.  0.
          6    2    1    2  501    0  0.51340167089E+02 -0.15223568902E+03  0.19573889345E+03  0.30588232163E+03  0.17157727853E+03 0.  0.
         24    2    5    5    0    0  0.13878455039E+02 -0.10913149801E+02  0.10593691692E+03  0.13423755779E+03  0.80531876942E+02 0.  0.
          5    1    5    5  501    0  0.37461712050E+02 -0.14132253922E+03  0.89801976530E+02  0.17164476383E+03  0.47000000000E+01 0. -1.
        -13    1    6    6    0    0  0.19437081133E+02  0.32688675059E+02  0.42130552731E+02  0.56756788788E+02  0.00000000000E+00 0.  1.
         14    1    6    6    0    0 -0.55586260947E+01 -0.43601824860E+02  0.63806364185E+02  0.77480769006E+02  0.00000000000E+00 0. -1.
         -5    1    3    3    0  503  0.77324460929E+01  0.11118953587E+03  0.34732447876E+02  0.11683893420E+03  0.47000000000E+01 0.  1.
         11    1    4    4    0    0 -0.10881600300E+02  0.36663950917E+02 -0.60170869958E+02  0.71296480372E+02  0.00000000000E+00 0. -1.
        -12    1    4    4    0    0 -0.48191012882E+02  0.43822022361E+01  0.50037158185E+01  0.48647863170E+02  0.00000000000E+00 0.  1.
</event>
<event>
12    1  0.8344842E-002  0.1858914E+03  0.7818608E-02  0.1164456E+00
         21   -1    0    0  501  502  0.00000000000E+00  0.00000000000E+00  0.15309252422E+03  0.15309252422E+03  0.00000000000E+00 0.  1.
         21   -1    0    0  502  503 -0.00000000000E+00 -0.00000000000E+00 -0.28930967274E+03  0.28930967274E+03  0.00000000000E+00 0.  1.
         -6    2    1    2    0  503 -0.42742109635E+02 -0.52896034521E+02 -0.17927200173E+03  0.25158987658E+03  0.16289302314E+03 0.  0.
        -24    2    3    3    0    0 -0.20278239635E+02 -0.14638279650E+02 -0.19238275363E+03  0.20508973595E+03  0.66522099051E+02 0.  0.
          6    2    1    2  501    0  0.42742109635E+02  0.52896034521E+02  0.43054853207E+02  0.19081232038E+03  0.17300503698E+03 0.  0.
         24    2    5    5    0    0 -0.94142170396E+01  0.82326627237E+02  0.52937619417E+02  0.12993374231E+03  0.84935768709E+02 0.  0.
          5    1    5    5  501    0  0.52156326674E+02 -0.29430592716E+02 -0.98827662093E+01  0.60878578069E+02  0.47000000000E+01 0. -1.
        -13    1    6    6    0    0  0.34259204403E+02  0.57634116446E+02  0.20190849049E+02  0.70021816958E+02  0.00000000000E+00 0.  1.
         14    1    6    6    0    0 -0.43673421443E+02  0.24692510791E+02  0.32746770368E+02  0.59911925351E+02  0.00000000000E+00 0. -1.
         -5    1    3    3    0  503 -0.22463869999E+02 -0.38257754871E+02  0.13110751904E+02  0.46500140630E+02  0.47000000000E+01 0.  1.
         11    1    4    4    0    0  0.24367491690E+02 -0.75339051138E+01 -0.79494613414E+02  0.83486094287E+02  0.00000000000E+00 0. -1.
        -12    1    4    4    0    0 -0.44645731325E+02 -0.71043745359E+01 -0.11288814022E+03  0.12160364166E+03  0.00000000000E+00 0.  1.
</event>
<event>
12    1  0.8344842E-002  0.3156598E+03  0.7818608E-02  0.1077721E+00
         21   -1    0    0  501  502  0.00000000000E+00  0.00000000000E+00  0.11792663272E+04  0.11792663272E+04  0.00000000000E+00 0. -1.
         21   -1    0    0  502  503 -0.00000000000E+00 -0.00000000000E+00 -0.44987055494E+03  0.44987055494E+03  0.00000000000E+00 0.  1.
         -6    2    1    2    0  503 -0.25554409735E+03 -0.62404101438E+02 -0.36958153330E+03  0.48572433825E+03  0.17361038402E+03 0.  0.
        -24    2    3    3    0    0 -0.86627420019E+02 -0.67595488469E+02 -0.10319878855E+03  0.17022211784E+03  0.79070345159E+02 0.  0.
          6    2    1    2  501    0  0.25554409735E+03  0.62404101438E+02  0.10989773056E+04  0.11434125439E+04  0.17448229091E+03 0.  0.
         24    2    5    5    0    0  0.19216314429E+03  0.69448001389E+02  0.57473965035E+03  0.61528947976E+03  0.80658411186E+02 0.  0.
          5    1    5    5  501    0  0.63380953056E+02 -0.70438999513E+01  0.52423765521E+03  0.52812306414E+03  0.47000000000E+01 0. -1.
        -13    1    6    6    0    0  0.16391457214E+03  0.24551929798E+02  0.45787987782E+03  0.48695458385E+03  0.00000000000E+00 0.  1.
         14    1    6    6    0    0  0.28248572156E+02  0.44896071591E+02  0.11685977253E+03  0.12833489592E+03  0.00000000000E+00 0. -1.
         -5    1    3    3    0  503 -0.16891667733E+03  0.51913870306E+01 -0.26638274475E+03  0.31550222041E+03  0.47000000000E+01 0.  1.
         11    1    4    4    0    0 -0.67240459223E+02 -0.44061704576E+02 -0.21791678627E+02  0.83292199059E+02  0.00000000000E+00 0. -1.
        -12    1    4    4    0    0 -0.19386960795E+02 -0.23533783893E+02 -0.81407109926E+02  0.86929918783E+02  0.00000000000E+00 0.  1.
</event>
<event>
12    1  0.8344842E-002  0.1805038E+03  0.7818608E-02  0.1167801E+00
         21   -1    0    0  501  502  0.00000000000E+00  0.00000000000E+00  0.54901302848E+02  0.54901302848E+02  0.00000000000E+00 0. -1.
         21   -1    0    0  502  503 -0.00000000000E+00 -0.00000000000E+00 -0.59708946079E+03  0.59708946079E+03  0.00000000000E+00 0.  1.
         -6    2    1    2    0  503  0.38137063061E+02 -0.30240079227E+02 -0.22704623753E+03  0.28881581998E+03  0.17174308115E+03 0.  0.
        -24    2    3    3    0    0 -0.98172462985E+01 -0.65979103127E+02 -0.89245859678E+02  0.13852301326E+03  0.82305415123E+02 0.  0.
          6    2    1    2  501    0 -0.38137063061E+02  0.30240079227E+02 -0.31514192042E+03  0.36317494366E+03  0.17381804202E+03 0.  0.
         24    2    5    5    0    0 -0.67112265779E+02 -0.77585839885E+01 -0.29135016136E+03  0.30958764500E+03  0.79970879510E+02 0.  0.
          5    1    5    5  501    0  0.28975202718E+02  0.37998663216E+02 -0.23791759054E+02  0.53587298659E+02  0.47000000000E+01 0. -1.
        -11    1    6    6    0    0 -0.82459158203E+02  0.69633937052E+01 -0.21654725066E+03  0.23182043351E+03  0.00000000000E+00 0.  1.
         12    1    6    6    0    0  0.15346892424E+02 -0.14721977694E+02 -0.74802910704E+02  0.77767211497E+02  0.00000000000E+00 0. -1.
         -5    1    3    3    0  503  0.47954309360E+02  0.35739023900E+02 -0.13780037785E+03  0.15029280672E+03  0.47000000000E+01 0.  1.
         11    1    4    4    0    0 -0.12978706010E+02  0.64184326789E+01  0.85418651475E+01  0.16810905626E+02  0.00000000000E+00 0. -1.
        -12    1    4    4    0    0  0.31614597117E+01 -0.72397535806E+02 -0.97787724825E+02  0.12171210763E+03  0.00000000000E+00 0.  1.
</event>
<event>
12    1  0.8344842E-002  0.2742150E+03  0.7818608E-02  0.1099095E+00
         21   -1    0    0  503  502  0.00000000000E+00  0.00000000000E+00  0.15171835860E+03  0.15171835860E+03  0.00000000000E+00 0. -1.
         21   -1    0    0  501  503 -0.00000000000E+00 -0.00000000000E+00 -0.54916917979E+03  0.54916917979E+03  0.00000000000E+00 0. -1.
          6    2    1    2  501    0 -0.15753859905E+03  0.14231295201E+03 -0.31032730332E+03  0.41316482843E+03  0.17126223684E+03 0.  0.
         24    2    3    3    0    0 -0.12382875918E+03  0.23359927196E+02 -0.14882268338E+03  0.20971456995E+03  0.77154144156E+02 0.  0.
         -6    2    1    2    0  502  0.15753859905E+03 -0.14231295201E+03 -0.87123517876E+02  0.28772270996E+03  0.17355824372E+03 0.  0.
        -24    2    5    5    0    0  0.11749510765E+03 -0.10067906360E+03 -0.12985094981E+03  0.21571864545E+03  0.75709250795E+02 0.  0.
          5    1    3    3  501    0 -0.33709839871E+02  0.11895302481E+03 -0.16150461994E+03  0.20345025848E+03  0.47000000000E+01 0. -1.
        -13    1    4    4    0    0 -0.65082248260E+02 -0.12524449532E+02 -0.11566093966E+03  0.13330421538E+03  0.00000000000E+00 0.  1.
         14    1    4    4    0    0 -0.58746510916E+02  0.35884376728E+02 -0.33161743718E+02  0.76410354563E+02  0.00000000000E+00 0. -1.
         -5    1    5    5    0  502  0.40043491400E+02 -0.41633888404E+02  0.42727431938E+02  0.72004064518E+02  0.47000000000E+01 0.  1.
         13    1    6    6    0    0  0.69107966582E+02 -0.70521900903E+02 -0.34444304042E+02  0.10457370431E+03  0.00000000000E+00 0. -1.
        -14    1    6    6    0    0  0.48387141065E+02 -0.30157162701E+02 -0.95406645772E+02  0.11114494114E+03  0.00000000000E+00 0.  1.
</event>
<event>
12    1  0.8344842E-002  0.1846312E+03  0.7818608E-02  0.1163404E+00
         21   -1    0    0  503  502  0.00000000000E+00  0.00000000000E+00  0.25057114738E+03  0.25057114738E+03  0.00000000000E+00 0.  1.
         21   -1    0    0  501  503 -0.00000000000E+00 -0.00000000000E+00 -0.22215648351E+03  0.22215648351E+03  0.00000000000E+00 0. -1.
          6    2    1    2  501    0  0.62368545798E+02 -0.22585291819E+02  0.16139076462E+03  0.24522571697E+03  0.17230421483E+03 0.  0.
         24    2    3    3    0    0  0.67455043910E+02 -0.75725508920E+02  0.98229104970E+02  0.16239311236E+03  0.80237336883E+02 0.  0.
         -6    2    1    2    0  502 -0.62368545798E+02  0.22585291819E+02 -0.13297610075E+03  0.22750191392E+03  0.17226301563E+03 0.  0.
        -24    2    5    5    0    0 -0.83155068050E+02 -0.37165026676E+02 -0.94130089609E+02  0.15311587592E+03  0.79296867138E+02 0.  0.
          5    1    3    3  501    0 -0.50864981121E+01  0.53140217101E+02  0.63161659650E+02  0.82832604609E+02  0.47000000000E+01 0. -1.
        -11    1    4    4    0    0  0.63755613682E+02 -0.27598111067E+02  0.23325605278E+02  0.73283817258E+02  0.00000000000E+00 0.  1.
         12    1    4    4    0    0  0.36994302287E+01 -0.48127397853E+02  0.74903499692E+02  0.89109295106E+02  0.00000000000E+00 0. -1.
         -5    1    5    5    0  502  0.20786522252E+02  0.59750318496E+02 -0.38846011138E+02  0.74386037997E+02  0.47000000000E+01 0.  1.
         13    1    6    6    0    0 -0.28194036148E+02 -0.38311004431E+02 -0.84979364455E+02  0.97386493509E+02  0.00000000000E+00 0. -1.
        -14    1    6    6    0    0 -0.54961031903E+02  0.11459777548E+01 -0.91507251542E+01  0.55729382409E+02  0.00000000000E+00 0.  1.
</event>
<event>
12    1  0.8344842E-002  0.1960258E+03  0.7818608E-02  0.1154287E+00
         21   -1    0    0  503  502  0.00000000000E+00  0.00000000000E+00  0.33981483251E+03  0.33981483251E+03  0.00000000000E+00 0.  1.
         21   -1    0    0  501  503 -0.00000000000E+00 -0.00000000000E+00 -0.11911247503E+03  0.11911247503E+03  0.00000000000E+00 0.  1.
          6    2    1    2  501    0 -0.82474882867E+02 -0.38714867846E+02  0.45772141569E+02  0.19619795296E+03  0.16762338890E+03 0.  0.
         24    2    3    3    0    0  0.26833257530E+01 -0.52880737711E+02 -0.52034045135E+01  0.95832676784E+02  0.79707301191E+02 0.  0.
         -6    2    1    2    0  502  0.82474882867E+02  0.38714867846E+02  0.17493021592E+03  0.26272935457E+03  0.17356608545E+03 0.  0.
        -24    2    5    5    0    0  0.72084501308E+02 -0.36026165368E+02  0.13705212188E+03  0.17816563846E+03  0.80409269968E+02 0.  0.
          5    1    3    3  501    0 -0.85158208620E+02  0.14165869865E+02  0.50975546082E+02  0.10036527618E+03  0.47000000000E+01 0. -1.
        -11    1    4    4    0    0 -0.35769813015E+02 -0.35492634753E+02 -0.14868364605E+02  0.52538318501E+02  0.00000000000E+00 0.  1.
         12    1    4    4    0    0  0.38453138768E+02 -0.17388102958E+02  0.96649600920E+01  0.43294358283E+02  0.00000000000E+00 0. -1.
         -5    1    5    5    0  502  0.10390381559E+02  0.74741033214E+02  0.37878094040E+02  0.84563716114E+02  0.47000000000E+01 0.  1.
         11    1    6    6    0    0  0.88701629524E+02 -0.32334088902E+02  0.10076067517E+03  0.13808036083E+03  0.00000000000E+00 0. -1.
        -12    1    6    6    0    0 -0.16617128217E+02 -0.36920764661E+01  0.36291446706E+02  0.40085277632E+02  0.00000000000E+00 0.  1.
</event>
<event>
12    1  0.8344842E-002  0.1838294E+03  0.7818608E-02  0.1164312E+00
         21   -1    0    0  503  502  0.00000000000E+00  0.00000000000E+00  0.59717659478E+03  0.59717659478E+03  0.00000000000E+00 0.  1.
         21   -1    0    0  501  503 -0.00000000000E+00 -0.00000000000E+00 -0.50564611614E+03  0.50564611614E+03  0.00000000000E+00 0.  1.
          6    2    1    2  501    0  0.58613484224E+02  0.25741805484E+02 -0.47400979325E+03  0.50815553814E+03  0.17157676348E+03 0.  0.
         24    2    3    3    0    0  0.43838415491E+02 -0.84245756345E+01 -0.45898485768E+03  0.46773916839E+03  0.78230747950E+02 0.  0.
         -6    2    1    2    0  502 -0.58613484224E+02 -0.25741805484E+02  0.56554027189E+03  0.59466717277E+03  0.17232256428E+03 0.  0.
        -24    2    5    5    0    0  0.29126395677E+02 -0.15627065924E+02  0.17454282174E+03  0.19379101920E+03  0.77441657949E+02 0.  0.
          5    1    3    3  501    0  0.14775068733E+02  0.34166381119E+02 -0.15024935575E+02  0.40416369751E+02  0.47000000000E+01 0. -1.
        -13    1    4    4    0    0  0.59721434320E+02  0.14880247280E+02 -0.29581246145E+03  0.30214745378E+03  0.00000000000E+00 0.  1.
         14    1    4    4    0    0 -0.15883018829E+02 -0.23304822915E+02 -0.16317239623E+03  0.16559171461E+03  0.00000000000E+00 0. -1.
         -5    1    5    5    0  502 -0.87739879901E+02 -0.10114739561E+02  0.39099745015E+03  0.40087615358E+03  0.47000000000E+01 0.  1.
         13    1    6    6    0    0  0.21854125103E+02  0.49172149047E+01  0.17007563587E+03  0.17154446568E+03  0.00000000000E+00 0. -1.
        -14    1    6    6    0    0  0.72722705735E+01 -0.20544280828E+02  0.44671858691E+01  0.22246553523E+02  0.00000000000E+00 0.  1.
</event>
<event>
12    1  0.8344842E-002  0.2219732E+03  0.7818608E-02  0.1132493E+00
         21   -1    0    0  503  502  0.00000000000E+00  0.00000000000E+00  0.16371253516E+03  0.16371253516E+03  0.00000000000E+00 0.  1.
         21   -1    0    0  501  503 -0.00000000000E+00 -0.00000000000E+00 -0.81739556807E+03  0.81739556807E+03  0.00000000000E+00 0. -1.
          6    2    1    2  501    0  0.13820779932E+03  0.27438243983E+02 -0.71685674186E+03  0.75032025264E+03  0.17100479566E+03 0.  0.
         24    2    3    3    0    0  0.51267380414E+02 -0.68537180087E+01 -0.55733711149E+03  0.56537924158E+03  0.79710182673E+02 0.  0.
         -6    2    1    2    0  502 -0.13820779932E+03 -0.27438243983E+02  0.63173708950E+02  0.23078785059E+03  0.17151635914E+03 0.  0.
        -24    2    5    5    0    0 -0.43216200077E+01 -0.35376006252E+02  0.15735213823E+02  0.88446648195E+02  0.79404498645E+02 0.  0.
          5    1    3    3  501    0  0.86940418905E+02  0.34291961992E+02 -0.15951963038E+03  0.18494101106E+03  0.47000000000E+01 0. -1.
        -13    1    4    4    0    0  0.17105760367E+02 -0.41856633716E+02 -0.22928635486E+03  0.23370241195E+03  0.00000000000E+00 0.  1.
         14    1    4    4    0    0  0.34161620047E+02  0.35002915707E+02 -0.32805075662E+03  0.33167682963E+03  0.00000000000E+00 0. -1.
         -5    1    5    5    0  502 -0.13388617931E+03  0.79377622684E+01  0.47438495126E+02  0.14234120240E+03  0.47000000000E+01 0.  1.
         11    1    6    6    0    0  0.10240975643E+02  0.13663780160E+02  0.30714836943E+02  0.35142249200E+02  0.00000000000E+00 0. -1.
        -12    1    6    6    0    0 -0.14562595651E+02 -0.49039786412E+02 -0.14979623120E+02  0.53304398995E+02  0.00000000000E+00 0.  1.
</event>
<event>
12    1  0.8344842E-002  0.1925256E+03  0.7818608E-02  0.1159646E+00
         21   -1    0    0  501  502  0.00000000000E+00  0.00000000000E+00  0.31987213562E+03  0.31987213562E+03  0.00000000000E+00 0. -1.
         21   -1    0    0  502  503 -0.00000000000E+00 -0.00000000000E+00 -0.11894312664E+03  0.11894312664E+03  0.00000000000E+00 0. -1.
         -6    2    1    2    0  503  0.91053339837E+01  0.46423044479E+02  0.34900076098E+02  0.19566332114E+03  0.18662291864E+03 0.  0.
        -24    2    3    3    0    0  0.61562647455E+02 -0.90708633111E+01 -0.15157160734E+02  0.10423487646E+03  0.82237034392E+02 0.  0.
          6    2    1    2  501    0 -0.91053339837E+01 -0.46423044479E+02  0.16602893288E+03  0.24315194111E+03  0.17122865925E+03 0.  0.
         24    2    5    5    0    0 -0.84730488798E+01 -0.35478521973E+02  0.14070917148E+02  0.90726513764E+02  0.81870577815E+02 0.  0.
          5    1    5    5  501    0 -0.63228510388E+00 -0.10944522506E+02  0.15195801573E+03  0.15242542735E+03  0.47000000000E+01 0. -1.
        -11    1    6    6    0    0 -0.15418723210E+02 -0.49336348986E+02  0.36631689187E+02  0.63353713462E+02  0.00000000000E+00 0.  1.
         12    1    6    6    0    0  0.69456743298E+01  0.13857827013E+02 -0.22560772038E+02  0.27372800303E+02  0.00000000000E+00 0. -1.
         -5    1    3    3    0  503 -0.52457313471E+02  0.55493907790E+02  0.50057236833E+02  0.91428444686E+02  0.47000000000E+01 0.  1.
         13    1    4    4    0    0  0.61301190938E+02 -0.36490334333E+02  0.29064513016E+01  0.71399075410E+02  0.00000000000E+00 0. -1.
        -14    1    4    4    0    0  0.26145651658E+00  0.27419471022E+02 -0.18063612036E+02  0.32835801047E+02  0.00000000000E+00 0.  1.
</event>
<event>
12    1  0.8344842E-002  0.2257514E+03  0.7818608E-02  0.1130184E+00
         21   -1    0    0  501  502  0.00000000000E+00  0.00000000000E+00  0.16241326687E+04  0.16241326687E+04  0.00000000000E+00 0. -1.
         21   -1    0    0  502  503 -0.00000000000E+00 -0.00000000000E+00 -0.33399410081E+02  0.33399410081E+02  0.00000000000E+00 0. -1.
         -6    2    1    2    0  503  0.45377986576E+02 -0.13470457739E+03  0.57717536428E+03  0.61975405610E+03  0.17538302107E+03 0.  0.
        -24    2    3    3    0    0  0.51043183887E+02 -0.40820188085E+02  0.44897852423E+03  0.46068522566E+03  0.79859048007E+02 0.  0.
          6    2    1    2  501    0 -0.45377986576E+02  0.13470457739E+03  0.10135578944E+04  0.10377780227E+04  0.17169488739E+03 0.  0.
         24    2    5    5    0    0 -0.53799110126E+02  0.53244871325E+02  0.41226381523E+03  0.43091456308E+03  0.99982732267E+02 0.  0.
          5    1    5    5  501    0  0.84211235505E+01  0.81459706068E+02  0.60129407915E+03  0.60686345965E+03  0.47000000000E+01 0. -1.
        -13    1    6    6    0    0 -0.57757380617E+02 -0.89768298261E+01  0.25778332780E+03  0.26432696151E+03  0.00000000000E+00 0.  1.
         14    1    6    6    0    0  0.39582704907E+01  0.62221701151E+02  0.15448048743E+03  0.16658760157E+03  0.00000000000E+00 0. -1.
         -5    1    3    3    0  503 -0.56651973119E+01 -0.93884389309E+02  0.12819684005E+03  0.15906883043E+03  0.47000000000E+01 0.  1.
         13    1    4    4    0    0  0.21443338615E+02 -0.23814167749E+02  0.44875835981E+02  0.55143195515E+02  0.00000000000E+00 0. -1.
        -14    1    4    4    0    0  0.29599845272E+02 -0.17006020336E+02  0.40410268825E+03  0.40554203015E+03  0.00000000000E+00 0.  1.
</event>
<event>
12    1  0.8344842E-002  0.1953338E+03  0.7818608E-02  0.1153829E+00
         21   -1    0    0  503  502  0.00000000000E+00  0.00000000000E+00  0.26012126673E+03  0.26012126673E+03  0.00000000000E+00 0.  1.
         21   -1    0    0  501  503 -0.00000000000E+00 -0.00000000000E+00 -0.14692952101E+03  0.14692952101E+03  0.00000000000E+00 0.  1.
          6    2    1    2  501    0  0.61592560544E+02  0.75040662125E+02  0.43924551053E+02  0.19979916583E+03  0.16901359707E+03 0.  0.
         24    2    3    3    0    0  0.83094840125E+02  0.36333481249E+02  0.78021947351E+02  0.14371604615E+03  0.79636695931E+02 0.  0.
         -6    2    1    2    0  502 -0.61592560544E+02 -0.75040662125E+02  0.69267194669E+02  0.20725162192E+03  0.16950087328E+03 0.  0.
        -24    2    5    5    0    0 -0.13925913412E+02 -0.35592669526E+02 -0.28109992983E+02  0.91784483544E+02  0.78571308539E+02 0.  0.
          5    1    3    3  501    0 -0.21502279581E+02  0.38707180875E+02 -0.34097396298E+02  0.56083119678E+02  0.47000000000E+01 0. -1.
        -13    1    4    4    0    0 -0.69913887600E+01  0.22346962425E+02 -0.46412218049E+00  0.23419685220E+02  0.00000000000E+00 0.  1.
         14    1    4    4    0    0  0.90086228885E+02  0.13986518824E+02  0.78486069531E+02  0.12029636093E+03  0.00000000000E+00 0. -1.
         -5    1    5    5    0  502 -0.47666647132E+02 -0.39447992599E+02  0.97377187651E+02  0.11546713837E+03  0.47000000000E+01 0.  1.
         11    1    6    6    0    0 -0.26629927711E+02 -0.10760016620E+01 -0.44220093144E+02  0.51630683388E+02  0.00000000000E+00 0. -1.
        -12    1    6    6    0    0  0.12704014299E+02 -0.34516667864E+02  0.16110100161E+02  0.40153800156E+02  0.00000000000E+00 0.  1.
</event>
<event>
12    1  0.8344842E-002  0.1796063E+03  0.7818608E-02  0.1168284E+00
         21   -1    0    0  501  502  0.00000000000E+00  0.00000000000E+00  0.11778874576E+03  0.11778874576E+03  0.00000000000E+00 0. -1.
         21   -1    0    0  502  503 -0.00000000000E+00 -0.00000000000E+00 -0.30122638323E+03  0.30122638323E+03  0.00000000000E+00 0.  1.
         -6    2    1    2    0  503  0.12582436362E+02  0.49314607843E+02 -0.15548213601E+03  0.23724620384E+03  0.17181623429E+03 0.  0.
        -24    2    3    3    0    0  0.68810554010E+02  0.29494549443E+02 -0.59813049212E+02  0.12442289021E+03  0.79363933641E+02 0.  0.
          6    2    1    2  501    0 -0.12582436362E+02 -0.49314607843E+02 -0.27955501460E+02  0.18176892515E+03  0.17224454661E+03 0.  0.
         24    2    5    5    0    0  0.28992369304E+02 -0.72631773423E+02 -0.56683344387E+02  0.12591613976E+03  0.80783294882E+02 0.  0.
          5    1    5    5  501    0 -0.41574805666E+02  0.23317165579E+02  0.28727842927E+02  0.55852785392E+02  0.47000000000E+01 0. -1.
        -13    1    6    6    0    0  0.32780204329E+02 -0.15208913331E+01  0.30663978890E+01  0.32958423844E+02  0.00000000000E+00 0.  1.
         14    1    6    6    0    0 -0.37878350244E+01 -0.71110882090E+02 -0.59749742276E+02  0.92957715913E+02  0.00000000000E+00 0. -1.
         -5    1    3    3    0  503 -0.56228117648E+02  0.19820058400E+02 -0.95669086794E+02  0.11282331362E+03  0.47000000000E+01 0.  1.
         11    1    4    4    0    0  0.50050850504E+02  0.66256892540E+01 -0.75589442749E+02  0.90899676838E+02  0.00000000000E+00 0. -1.
        -12    1    4    4    0    0  0.18759703506E+02  0.22868860189E+02  0.15776393536E+02  0.33523213375E+02  0.00000000000E+00 0.  1.
</event>
<event>
12    1  0.8344842E-002  0.1996841E+03  0.7818608E-02  0.1150201E+00
         21   -1    0    0  501  502  0.00000000000E+00  0.00000000000E+00  0.19586901820E+03  0.19586901820E+03  0.00000000000E+00 0. -1.
         21   -1    0    0  502  503 -0.00000000000E+00 -0.00000000000E+00 -0.44332037518E+03  0.44332037518E+03  0.00000000000E+00 0. -1.
         -6    2    1    2    0  503  0.70188558501E+02  0.71311193037E+02 -0.35934154991E+03  0.41109621142E+03  0.17280632383E+03 0.  0.
        -24    2    3    3    0    0  0.76414296574E+01  0.46636515137E+02 -0.31980764982E+03  0.33295529824E+03  0.79680246933E+02 0.  0.
          6    2    1    2  501    0 -0.70188558501E+02 -0.71311193037E+02  0.11189019293E+03  0.22809318197E+03  0.17174214507E+03 0.  0.
         24    2    5    5    0    0 -0.14874016129E+01  0.23204359793E+02  0.40041196094E+02  0.90843748347E+02  0.78157754268E+02 0.  0.
          5    1    5    5  501    0 -0.68701156888E+02 -0.94515552829E+02  0.71848996832E+02  0.13724943362E+03  0.47000000000E+01 0. -1.
        -11    1    6    6    0    0  0.34159063077E+02 -0.35412056663E+01  0.62255028988E+01  0.34901842562E+02  0.00000000000E+00 0.  1.
         12    1    6    6    0    0 -0.35646464690E+02  0.26745565459E+02  0.33815693195E+02  0.55941905785E+02  0.00000000000E+00 0. -1.
         -5    1    3    3    0  503  0.62547128844E+02  0.24674677899E+02 -0.39533900087E+02  0.78140913177E+02  0.47000000000E+01 0.  1.
         13    1    4    4    0    0  0.36750194137E+02  0.25934120603E+02 -0.92477892392E+02  0.10283635525E+03  0.00000000000E+00 0. -1.
        -14    1    4    4    0    0 -0.29108764480E+02  0.20702394535E+02 -0.22732975743E+03  0.23011894299E+03  0.00000000000E+00 0.  1.
</event>
<event>
12    1  0.8344842E-002  0.1717948E+03  0.7818608E-02  0.1176110E+00
         21   -1    0    0  503  502  0.00000000000E+00  0.00000000000E+00  0.14641512800E+03  0.14641512800E+03  0.00000000000E+00 0. -1.
         21   -1    0    0  501  503 -0.00000000000E+00 -0.00000000000E+00 -0.34706127517E+03  0.34706127517E+03  0.00000000000E+00 0. -1.
          6    2    1    2  501    0 -0.42827948536E+01  0.81207772248E+01 -0.26045829681E+03  0.31201280803E+03  0.17154934755E+03 0.  0.
         24    2    3    3    0    0  0.20446346830E+02  0.53843319696E+02 -0.89222220030E+02  0.13299893893E+03  0.80068452188E+02 0.  0.
         -6    2    1    2    0  502  0.42827948536E+01 -0.81207772248E+01  0.59812149633E+02  0.18146359514E+03  0.17107674816E+03 0.  0.
        -24    2    5    5    0    0  0.57231430385E+01 -0.52194772391E+02  0.87044531003E+02  0.12942241675E+03  0.80102203149E+02 0.  0.
          5    1    3    3  501    0 -0.24729141684E+02 -0.45722542471E+02 -0.17123607678E+03  0.17901386910E+03  0.47000000000E+01 0. -1.
        -13    1    4    4    0    0 -0.30505722852E+02  0.12666254082E+02 -0.32609693605E+02  0.46415786498E+02  0.00000000000E+00 0.  1.
         14    1    4    4    0    0  0.50952069682E+02  0.41177065613E+02 -0.56612526425E+02  0.86583152436E+02  0.00000000000E+00 0. -1.
         -5    1    5    5    0  502 -0.14403481849E+01  0.44073995166E+02 -0.27232381370E+02  0.52041178387E+02  0.47000000000E+01 0.  1.
         13    1    6    6    0    0  0.38740022737E+02 -0.29164205208E+02  0.22742617667E+02  0.53559003776E+02  0.00000000000E+00 0. -1.
        -14    1    6    6    0    0 -0.33016879699E+02 -0.23030567183E+02  0.64301913336E+02  0.75863412977E+02  0.00000000000E+00 0.  1.
</event>
<event>
12    1  0.8344842E-002  0.1720837E+03  0.7818608E-02  0.1176415E+00
         21   -1    0    0  501  502  0.00000000000E+00  0.00000000000E+00  0.16948282166E+03  0.16948282166E+03  0.00000000000E+00 0. -1.
         21   -1    0    0  502  503 -0.00000000000E+00 -0.00000000000E+00 -0.21351245610E+03  0.21351245610E+03  0.00000000000E+00 0. -1.
         -6    2    1    2    0  503 -0.94094436765E+01 -0.30744637910E+01  0.62668466940E+02  0.18051739261E+03  0.16900059861E+03 0.  0.
        -24    2    3    3    0    0 -0.66382244488E+02  0.14099847994E+02  0.18906066363E+02  0.10650324044E+03  0.79875482984E+02 0.  0.
          6    2    1    2  501    0  0.94094436765E+01  0.30744637910E+01 -0.10669810137E+03  0.20247788515E+03  0.17179877526E+03 0.  0.
         24    2    5    5    0    0  0.56193714899E+02 -0.40831659905E+02 -0.76417486470E+02  0.13137569551E+03  0.81209501222E+02 0.  0.
          5    1    5    5  501    0 -0.46784271222E+02  0.43906123696E+02 -0.30280614902E+02  0.71102189633E+02  0.47000000000E+01 0. -1.
        -13    1    6    6    0    0 -0.14538323148E+02  0.37232338763E+01  0.38392660612E+01  0.15490812579E+02  0.00000000000E+00 0.  1.
         14    1    6    6    0    0  0.70732038047E+02 -0.44554893781E+02 -0.80256752531E+02  0.11588488294E+03  0.00000000000E+00 0. -1.
         -5    1    3    3    0  503  0.56972800812E+02 -0.17174311785E+02  0.43762400578E+02  0.74014152173E+02  0.47000000000E+01 0.  1.
         13    1    4    4    0    0 -0.18042936127E+02 -0.31286556765E+02  0.17616348961E+02  0.40183727166E+02  0.00000000000E+00 0. -1.
        -14    1    4    4    0    0 -0.48339308362E+02  0.45386404758E+02  0.12897174016E+01  0.66319513273E+02  0.00000000000E+00 0.  1.
</event>
<event>
12    1  0.8344842E-002  0.1747612E+03  0.7818608E-02  0.1173077E+00
         21   -1    0    0  503  502  0.00000000000E+00  0.00000000000E+00  0.46052695292E+03  0.46052695292E+03  0.00000000000E+00 0.  1.
         21   -1    0    0  501  503 -0.00000000000E+00 -0.00000000000E+00 -0.72342207456E+02  0.72342207456E+02  0.00000000000E+00 0.  1.
          6    2    1    2  501    0 -0.91034013072E+00 -0.24283045174E+02  0.11641527970E+03  0.20998569919E+03  0.17306351872E+03 0.  0.
         24    2    3    3    0    0 -0.32058406833E+02  0.35302777205E+02  0.29079502697E+02  0.99666615466E+02  0.82545679683E+02 0.  0.
         -6    2    1    2    0  502  0.91034013072E+00  0.24283045174E+02  0.27176946576E+03  0.32288346119E+03  0.17264006484E+03 0.  0.
        -24    2    5    5    0    0  0.43357847639E+02  0.50527336942E+02  0.24366278810E+03  0.26541495613E+03  0.81490060160E+02 0.  0.
          5    1    3    3  501    0  0.31148066702E+02 -0.59585822380E+02  0.87335777008E+02  0.11031908372E+03  0.47000000000E+01 0. -1.
        -13    1    4    4    0    0  0.16171292132E+02  0.40247615332E+02  0.48049454812E+00  0.43377552999E+02  0.00000000000E+00 0.  1.
         14    1    4    4    0    0 -0.48229698966E+02 -0.49448381266E+01  0.28599008149E+02  0.56289062468E+02  0.00000000000E+00 0. -1.
         -5    1    5    5    0  502 -0.42447507508E+02 -0.26244291768E+02  0.28106677663E+02  0.57468505055E+02  0.47000000000E+01 0.  1.
         13    1    6    6    0    0  0.26971249173E+02  0.60589675506E+02  0.97052060693E+02  0.11754854123E+03  0.00000000000E+00 0. -1.
        -14    1    6    6    0    0  0.16386598466E+02 -0.10062338564E+02  0.14661072741E+03  0.14786641491E+03  0.00000000000E+00 0.  1.
</event>
<event>
12    1  0.8344842E-002  0.2039464E+03  0.7818608E-02  0.1146566E+00
         21   -1    0    0  503  502  0.00000000000E+00  0.00000000000E+00  0.35854364883E+03  0.35854364883E+03  0.00000000000E+00 0.  1.
         21   -1    0    0  501  503 -0.00000000000E+00 -0.00000000000E+00 -0.14134617080E+03  0.14134617080E+03  0.00000000000E+00 0.  1.
          6    2    1    2  501    0 -0.38553795400E+02 -0.10276017724E+03  0.22389232055E+01  0.20395870713E+03  0.17189558538E+03 0.  0.
         24    2    3    3    0    0  0.25637138495E+02 -0.23997632273E+00  0.34299847654E+00  0.82894459229E+02  0.78829266545E+02 0.  0.
         -6    2    1    2    0  502  0.38553795400E+02  0.10276017724E+03  0.21495855482E+03  0.29593111250E+03  0.17123666048E+03 0.  0.
        -24    2    5    5    0    0  0.83335697427E+02  0.49284254436E+02  0.17502103077E+03  0.21541907057E+03  0.79995240817E+02 0.  0.
          5    1    3    3  501    0 -0.64190933895E+02 -0.10252020091E+03  0.18959247290E+01  0.12106424790E+03  0.47000000000E+01 0. -1.
        -11    1    4    4    0    0  0.46844612202E+02  0.10722358741E+02  0.19919628080E+02  0.52020940516E+02  0.00000000000E+00 0.  1.
         12    1    4    4    0    0 -0.21207473707E+02 -0.10962335064E+02 -0.19576629603E+02  0.30873518713E+02  0.00000000000E+00 0. -1.
         -5    1    5    5    0  502 -0.44781902027E+02  0.53475922800E+02  0.39937524048E+02  0.80512041929E+02  0.47000000000E+01 0.  1.
         11    1    6    6    0    0  0.13078870409E+02  0.38246656558E+02  0.20510946455E+02  0.45327282220E+02  0.00000000000E+00 0. -1.
        -12    1    6    6    0    0  0.70256827018E+02  0.11037597878E+02  0.15451008431E+03  0.17009178835E+03  0.00000000000E+00 0.  1.
</event>
<event>
12    1  0.8344842E-002  0.2515645E+03  0.7818608E-02  0.1112462E+00
         21   -1    0    0  501  502  0.00000000000E+00  0.00000000000E+00  0.29749240141E+04  0.29749240141E+04  0.00000000000E+00 0. -1.
         21   -1    0    0  502  503 -0.00000000000E+00 -0.00000000000E+00 -0.23800214202E+02  0.23800214202E+02  0.00000000000E+00 0. -1.
         -6    2    1    2    0  503  0.16420248895E+01 -0.18401476583E+03  0.19691452122E+04  0.19850346162E+04  0.17019233412E+03 0.  0.
        -24    2    3    3    0    0  0.55977669652E+01 -0.11157155919E+03  0.17272050989E+04  0.17324068772E+04  0.74273728929E+02 0.  0.
          6    2    1    2  501    0 -0.16420248895E+01  0.18401476583E+03  0.98197858773E+03  0.10136896121E+04  0.17152420425E+03 0.  0.
         24    2    5    5    0    0  0.62562343514E+02  0.83115418003E+02  0.49404038764E+03  0.51128672953E+03  0.80721717269E+02 0.  0.
          5    1    5    5  501    0 -0.64204368403E+02  0.10089934783E+03  0.48793820010E+03  0.50240288258E+03  0.47000000000E+01 0. -1.
        -11    1    6    6    0    0 -0.55868403219E+01 -0.11726850210E+02  0.28495867923E+02  0.31316869085E+02  0.00000000000E+00 0.  1.
         12    1    6    6    0    0  0.68149183836E+02  0.94842268213E+02  0.46554451971E+03  0.47996986044E+03  0.00000000000E+00 0. -1.
         -5    1    3    3    0  503 -0.39557420756E+01 -0.72443206641E+02  0.24194011329E+03  0.25262773898E+03  0.47000000000E+01 0.  1.
         13    1    4    4    0    0 -0.59002780320E+01 -0.63730456278E+02  0.48209536051E+03  0.48632532421E+03  0.00000000000E+00 0. -1.
        -14    1    4    4    0    0  0.11498044997E+02 -0.47841102916E+02  0.12451097384E+04  0.12460815530E+04  0.00000000000E+00 0.  1.
</event>
<event>
12    1  0.8344842E-002  0.2609881E+03  0.7818608E-02  0.1106780E+00
         21   -1    0    0  501  502  0.00000000000E+00  0.00000000000E+00  0.24012264253E+03  0.24012264253E+03  0.00000000000E+00 0. -1.
         21   -1    0    0  502  503 -0.00000000000E+00 -0.00000000000E+00 -0.52808424498E+03  0.52808424498E+03  0.00000000000E+00 0. -1.
         -6    2    1    2    0  503  0.72756409969E+02  0.18139285522E+03 -0.40640462713E+03  0.48299019657E+03  0.17296804882E+03 0.  0.
        -24    2    3    3    0    0  0.26878142328E+02  0.19029666784E+03 -0.28841345968E+03  0.35599374419E+03  0.81326292493E+02 0.  0.
          6    2    1    2  501    0 -0.72756409969E+02 -0.18139285522E+03  0.11844302468E+03  0.28521669093E+03  0.17065446836E+03 0.  0.
         24    2    5    5    0    0  0.11044843038E+02 -0.11894850601E+03  0.27234536865E+02  0.14642539076E+03  0.80174431211E+02 0.  0.
          5    1    5    5  501    0 -0.83801253007E+02 -0.62444349208E+02  0.91208487819E+02  0.13879130017E+03  0.47000000000E+01 0. -1.
        -11    1    6    6    0    0 -0.87527016056E+01 -0.19012295122E+02  0.38605722465E+02  0.43914450449E+02  0.00000000000E+00 0.  1.
         12    1    6    6    0    0  0.19797544643E+02 -0.99936210891E+02 -0.11371185600E+02  0.10251094031E+03  0.00000000000E+00 0. -1.
         -5    1    3    3    0  503  0.45878267641E+02 -0.89038126198E+01 -0.11799116745E+03  0.12699645238E+03  0.47000000000E+01 0.  1.
         13    1    4    4    0    0  0.10056189783E+02  0.14016043399E+03 -0.13965544539E+03  0.19811541494E+03  0.00000000000E+00 0. -1.
        -14    1    4    4    0    0  0.16821952544E+02  0.50136233856E+02 -0.14875801429E+03  0.15787832925E+03  0.00000000000E+00 0.  1.
</event>
<event>
12    1  0.8344842E-002  0.1800324E+03  0.7818608E-02  0.1167836E+00
         21   -1    0    0  501  502  0.00000000000E+00  0.00000000000E+00  0.34702679684E+02  0.34702679684E+02  0.00000000000E+00 0.  1.
         21   -1    0    0  502  503 -0.00000000000E+00 -0.00000000000E+00 -0.99020313093E+03  0.99020313093E+03  0.00000000000E+00 0.  1.
         -6    2    1    2    0  503 -0.28485417077E+02  0.30621442328E+02 -0.60167868396E+03  0.62803574801E+03  0.17510731088E+03 0.  0.
        -24    2    3    3    0    0  0.14357395540E+02 -0.44661916880E+02 -0.27597150473E+03  0.29097440734E+03  0.79404109971E+02 0.  0.
          6    2    1    2  501    0  0.28485417077E+02 -0.30621442328E+02 -0.35382176729E+03  0.39687006261E+03  0.17483395515E+03 0.  0.
         24    2    5    5    0    0 -0.60091539376E+01 -0.16130932212E+02 -0.34994173997E+03  0.35896234671E+03  0.78092432891E+02 0.  0.
          5    1    5    5  501    0  0.34494571014E+02 -0.14490510115E+02 -0.38800273156E+01  0.37907715901E+02  0.47000000000E+01 0. -1.
        -11    1    6    6    0    0  0.11479119839E+02 -0.10754192179E+02 -0.10241947394E+02  0.18770197871E+02  0.00000000000E+00 0.  1.
         12    1    6    6    0    0 -0.17488273776E+02 -0.53767400330E+01 -0.33969979258E+03  0.34019214884E+03  0.00000000000E+00 0. -1.
         -5    1    3    3    0  503 -0.42842812617E+02  0.75283359208E+02 -0.32570717923E+03  0.33706134066E+03  0.47000000000E+01 0.  1.
         13    1    4    4    0    0  0.18160400804E+02 -0.12063182875E+02 -0.11835547671E+02  0.24807271658E+02  0.00000000000E+00 0. -1.
        -14    1    4    4    0    0 -0.38030052638E+01 -0.32598734005E+02 -0.26413595706E+03  0.26616713569E+03  0.00000000000E+00 0.  1.
</event>
<event>
12    1  0.8344842E-002  0.2235934E+03  0.7818608E-02  0.1131530E+00
         21   -1    0    0  501  502  0.00000000000E+00  0.00000000000E+00  0.69946988415E+03  0.69946988415E+03  0.00000000000E+00 0. -1.
         21   -1    0    0  502  503 -0.00000000000E+00 -0.00000000000E+00 -0.79668332396E+02  0.79668332396E+02  0.00000000000E+00 0. -1.
         -6    2    1    2    0  503 -0.47357957006E+02 -0.13198429491E+03  0.18006345369E+03  0.28581923838E+03  0.17206731090E+03 0.  0.
        -24    2    3    3    0    0 -0.55459561897E+02 -0.69927332034E+02  0.27958572091E+02  0.12127536080E+03  0.77203863980E+02 0.  0.
          6    2    1    2  501    0  0.47357957006E+02  0.13198429491E+03  0.43973809806E+03  0.49331897816E+03  0.17415909144E+03 0.  0.
         24    2    5    5    0    0  0.57087135595E+01  0.63054743429E+01  0.11287405388E+03  0.14062645088E+03  0.83443982591E+02 0.  0.
          5    1    5    5  501    0  0.41649243446E+02  0.12567882057E+03  0.32686404419E+03  0.35269252728E+03  0.47000000000E+01 0. -1.
        -13    1    6    6    0    0 -0.32213099439E+02  0.25594030744E+02  0.60200662310E+02  0.72916787695E+02  0.00000000000E+00 0.  1.
         14    1    6    6    0    0  0.37921812999E+02 -0.19288556401E+02  0.52673391565E+02  0.67709663181E+02  0.00000000000E+00 0. -1.
         -5    1    3    3    0  503  0.81016048913E+01 -0.62056962875E+02  0.15210488159E+03  0.16454387758E+03  0.47000000000E+01 0.  1.
         11    1    4    4    0    0 -0.33565931337E+02 -0.84930622719E+02  0.24151843326E+02  0.94462659067E+02  0.00000000000E+00 0. -1.
        -12    1    4    4    0    0 -0.21893630560E+02  0.15003290686E+02  0.38067287654E+01  0.26812701736E+02  0.00000000000E+00 0.  1.
</event>
<event>
12    1  0.8344842E-002  0.2255320E+03  0.7818608E-02  0.1129862E+00
         21   -1    0    0  503  502  0.00000000000E+00  0.00000000000E+00  0.92411730250E+03  0.92411730250E+03  0.00000000000E+00 0.  1.
         21   -1    0    0  501  503 -0.00000000000E+00 -0.00000000000E+00 -0.73166881584E+02  0.73166881584E+02  0.00000000000E+00 0.  1.
          6    2    1    2  501    0  0.46716744450E+02  0.13813784832E+03  0.17708905479E+03  0.28674940814E+03  0.17204700054E+03 0.  0.
         24    2    3    3    0    0 -0.12916965472E+02  0.14444227214E+03  0.12477412276E+03  0.20703198701E+03  0.79140659308E+02 0.  0.
         -6    2    1    2    0  502 -0.46716744450E+02 -0.13813784832E+03  0.67386136613E+03  0.71053477594E+03  0.17177312861E+03 0.  0.
        -24    2    5    5    0    0 -0.19955131770E+02 -0.38813480559E+02  0.13541759162E+03  0.16233289502E+03  0.78162338293E+02 0.  0.
          5    1    3    3  501    0  0.59633709922E+02 -0.63044238247E+01  0.52314932024E+02  0.79717421129E+02  0.47000000000E+01 0. -1.
        -11    1    4    4    0    0 -0.39068754384E+02  0.42934394911E+02  0.28337480527E+02  0.64596769564E+02  0.00000000000E+00 0.  1.
         12    1    4    4    0    0  0.26151788912E+02  0.10150787723E+03  0.96436642237E+02  0.14243521745E+03  0.00000000000E+00 0. -1.
         -5    1    5    5    0  502 -0.26761612680E+02 -0.99324367760E+02  0.53844377451E+03  0.54820188092E+03  0.47000000000E+01 0.  1.
         11    1    6    6    0    0 -0.26079564626E+02  0.11197113714E+01  0.11331322920E+03  0.11628106190E+03  0.00000000000E+00 0. -1.
        -12    1    6    6    0    0  0.61244328554E+01 -0.39933191931E+02  0.22104362421E+02  0.46051833119E+02  0.00000000000E+00 0.  1.
</event>
<event>
12    1  0.8344842E-002  0.2683399E+03  0.7818608E-02  0.1102757E+00
         21   -1    0    0  503  502  0.00000000000E+00  0.00000000000E+00  0.70235799188E+02  0.70235799188E+02  0.00000000000E+00 0.  1.
         21   -1    0    0  501  503 -0.00000000000E+00 -0.00000000000E+00 -0.10873454871E+04  0.10873454871E+04  0.00000000000E+00 0. -1.
          6    2    1    2  501    0  0.86924263170E+02  0.18677624480E+03 -0.66461719956E+03  0.71674423939E+03  0.17194501911E+03 0.  0.
         24    2    3    3    0    0 -0.17765581308E+02  0.46117735764E+02 -0.25385247143E+03  0.27009613229E+03  0.77899820244E+02 0.  0.
         -6    2    1    2    0  502 -0.86924263170E+02 -0.18677624480E+03 -0.35249248839E+03  0.44083704694E+03  0.16626832058E+03 0.  0.
        -24    2    5    5    0    0 -0.34829510173E+01 -0.34810114175E+02 -0.14489610089E+03  0.17032917730E+03  0.82421317570E+02 0.  0.
          5    1    3    3  501    0  0.10468984448E+03  0.14065850904E+03 -0.41076472812E+03  0.44664810709E+03  0.47000000000E+01 0. -1.
        -11    1    4    4    0    0  0.43631315899E+01 -0.15948350723E+02 -0.15011331166E+02  0.22332193610E+02  0.00000000000E+00 0.  1.
         12    1    4    4    0    0 -0.22128712898E+02  0.62066086487E+02 -0.23884114027E+03  0.24776393868E+03  0.00000000000E+00 0. -1.
         -5    1    5    5    0  502 -0.83441312153E+02 -0.15196613063E+03 -0.20759638750E+03  0.27050786963E+03  0.47000000000E+01 0.  1.
         11    1    6    6    0    0  0.37214981233E+02 -0.13254001509E+02 -0.42343626716E+02  0.57910328160E+02  0.00000000000E+00 0. -1.
        -12    1    6    6    0    0 -0.40697932250E+02 -0.21556112666E+02 -0.10255247418E+03  0.11241884914E+03  0.00000000000E+00 0.  1.
</event>
<event>
12    1  0.8344842E-002  0.2368287E+03  0.7818608E-02  0.1122452E+00
         21   -1    0    0  501  502  0.00000000000E+00  0.00000000000E+00  0.37137725305E+03  0.37137725305E+03  0.00000000000E+00 0. -1.
         21   -1    0    0  502  503 -0.00000000000E+00 -0.00000000000E+00 -0.26559019165E+03  0.26559019165E+03  0.00000000000E+00 0. -1.
         -6    2    1    2    0  503 -0.43473761534E+01  0.16302117700E+03 -0.15825923846E+03  0.28227278249E+03  0.16744292564E+03 0.  0.
        -24    2    3    3    0    0  0.29562547225E+02  0.16654574853E+03 -0.94109358670E+02  0.20947441310E+03  0.80072016360E+02 0.  0.
          6    2    1    2  501    0  0.43473761534E+01 -0.16302117700E+03  0.26404629986E+03  0.35469466221E+03  0.17173541015E+03 0.  0.
         24    2    5    5    0    0  0.31390982253E+02 -0.13332308822E+03  0.27136142452E+03  0.31359801810E+03  0.77111961573E+02 0.  0.
          5    1    5    5  501    0 -0.27043606099E+02 -0.29698088778E+02 -0.73151246658E+01  0.41096644106E+02  0.47000000000E+01 0. -1.
        -11    1    6    6    0    0 -0.95568500082E+01 -0.50774302414E+02  0.16486003384E+03  0.17276629858E+03  0.00000000000E+00 0.  1.
         12    1    6    6    0    0  0.40947832261E+02 -0.82548785808E+02  0.10650139068E+03  0.14083171952E+03  0.00000000000E+00 0. -1.
         -5    1    3    3    0  503 -0.33909923378E+02 -0.35245715313E+01 -0.64149879788E+02  0.72798369383E+02  0.47000000000E+01 0.  1.
         13    1    4    4    0    0  0.34908631204E+02  0.90877279192E+02 -0.12659045672E+02  0.98170992881E+02  0.00000000000E+00 0. -1.
        -14    1    4    4    0    0 -0.53460839787E+01  0.75668469338E+02 -0.81450312998E+02  0.11130342022E+03  0.00000000000E+00 0.  1.
</event>
<event>
12    1  0.8344842E-002  0.1794194E+03  0.7818608E-02  0.1168413E+00
         21   -1    0    0  501  502  0.00000000000E+00  0.00000000000E+00  0.13539052457E+04  0.13539052457E+04  0.00000000000E+00 0.  1.
         21   -1    0    0  502  503 -0.00000000000E+00 -0.00000000000E+00 -0.78145287037E+02  0.78145287037E+02  0.00000000000E+00 0.  1.
         -6    2    1    2    0  503  0.50338109603E+02  0.16059707460E+02  0.40600751576E+02  0.18395581201E+03  0.17146276641E+03 0.  0.
        -24    2    3    3    0    0  0.24823128226E+02 -0.64892775988E+01  0.90084161896E+02  0.12370492904E+03  0.80805042087E+02 0.  0.
          6    2    1    2  501    0 -0.50338109603E+02 -0.16059707460E+02  0.12351592071E+04  0.12480947207E+04  0.17126098669E+03 0.  0.
         24    2    5    5    0    0 -0.10037561178E+03 -0.17014503684E+02  0.95726349754E+03  0.96568937615E+03  0.76405567242E+02 0.  0.
          5    1    5    5  501    0  0.50037502178E+02  0.95479622375E+00  0.27789570957E+03  0.28240534460E+03  0.47000000000E+01 0. -1.
        -11    1    6    6    0    0 -0.50996178564E+02 -0.40549313919E+02  0.67769638966E+03  0.68082101439E+03  0.00000000000E+00 0.  1.
         12    1    6    6    0    0 -0.49379433217E+02  0.23534810235E+02  0.27956710788E+03  0.28486836175E+03  0.00000000000E+00 0. -1.
         -5    1    3    3    0  503  0.25514981377E+02  0.22548985059E+02 -0.49483410320E+02  0.60250882971E+02  0.47000000000E+01 0.  1.
         11    1    4    4    0    0 -0.12399601919E+02 -0.22803415410E+02  0.12163832891E+01  0.25985100931E+02  0.00000000000E+00 0. -1.
        -12    1    4    4    0    0  0.37222730144E+02  0.16314137811E+02  0.88867778607E+02  0.97719828113E+02  0.00000000000E+00 0.  1.
</event>
<event>
12    1  0.8344842E-002  0.1732455E+03  0.7818608E-02  0.1174842E+00
         21   -1    0    0  503  502  0.00000000000E+00  0.00000000000E+00  0.54563390038E+02  0.54563390038E+02  0.00000000000E+00 0.  1.
         21   -1    0    0  501  503 -0.00000000000E+00 -0.00000000000E+00 -0.98131625430E+03  0.98131625430E+03  0.00000000000E+00 0.  1.
          6    2    1    2  501    0  0.76145458297E+00  0.30144656743E+01 -0.80739871975E+03  0.82550044144E+03  0.17189711850E+03 0.  0.
         24    2    3    3    0    0  0.62585019772E+02 -0.14856147202E+02 -0.39710201163E+03  0.41016083255E+03  0.80026939897E+02 0.  0.
         -6    2    1    2    0  502 -0.76145458297E+00 -0.30144656743E+01 -0.11935414451E+03  0.21037920290E+03  0.17321758105E+03 0.  0.
        -24    2    5    5    0    0 -0.58385922726E+02 -0.34164809646E+02 -0.91237461812E+02  0.13893999025E+03  0.80024347925E+02 0.  0.
          5    1    3    3  501    0 -0.61823565189E+02  0.17870612876E+02 -0.41029670812E+03  0.41533960889E+03  0.47000000000E+01 0. -1.
        -11    1    4    4    0    0  0.37870340263E+02 -0.19217058173E+02 -0.37285131504E+03  0.37526198998E+03  0.00000000000E+00 0.  1.
         12    1    4    4    0    0  0.24714679509E+02  0.43609109710E+01 -0.24250696588E+02  0.34898842570E+02  0.00000000000E+00 0. -1.
         -5    1    5    5    0  502  0.57624468143E+02  0.31150343972E+02 -0.28116682697E+02  0.71439212651E+02  0.47000000000E+01 0.  1.
         11    1    6    6    0    0  0.18337571075E+02 -0.16879595194E+02 -0.31560376744E+02  0.40214980132E+02  0.00000000000E+00 0. -1.
        -12    1    6    6    0    0 -0.76723493801E+02 -0.17285214453E+02 -0.59677085068E+02  0.98725010113E+02  0.00000000000E+00 0.  1.
</event>
<event>
12    1  0.8344842E-002  0.1737907E+03  0.7818608E-02  0.1175044E+00
         21   -1    0    0  501  502  0.00000000000E+00  0.00000000000E+00  0.29514226581E+03  0.29514226581E+03  0.00000000000E+00 0. -1.
         21   -1    0    0  502  503 -0.00000000000E+00 -0.00000000000E+00 -0.16409394626E+03  0.16409394626E+03  0.00000000000E+00 0. -1.
         -6    2    1    2    0  503  0.28505313008E+02 -0.81242196962E+01 -0.78644396060E+02  0.18688672568E+03  0.16692259101E+03 0.  0.
        -24    2    3    3    0    0  0.63773623373E+02 -0.51813448761E+02 -0.61687157026E+02  0.12804592005E+03  0.76411673112E+02 0.  0.
          6    2    1    2  501    0 -0.28505313008E+02  0.81242196962E+01  0.20969271560E+03  0.27234948639E+03  0.17124442164E+03 0.  0.
         24    2    5    5    0    0  0.22800886800E+02  0.50195997652E+02  0.76254311596E+02  0.12325133649E+03  0.79603098496E+02 0.  0.
          5    1    5    5  501    0 -0.51306199808E+02 -0.42071777956E+02  0.13343840401E+03  0.14909814990E+03  0.47000000000E+01 0. -1.
        -13    1    6    6    0    0  0.96126956332E+01  0.65896710474E+02  0.78131248845E+02  0.10266095857E+03  0.00000000000E+00 0.  1.
         14    1    6    6    0    0  0.13188191167E+02 -0.15700712822E+02 -0.18769372484E+01  0.20590377918E+02  0.00000000000E+00 0. -1.
         -5    1    3    3    0  503 -0.35268310365E+02  0.43689229065E+02 -0.16957239034E+02  0.58840805636E+02  0.47000000000E+01 0.  1.
         11    1    4    4    0    0  0.45985735446E+02 -0.63820054562E+02 -0.69738566215E+02  0.10512447311E+03  0.00000000000E+00 0. -1.
        -12    1    4    4    0    0  0.17787887927E+02  0.12006605801E+02  0.80514091886E+01  0.22921446937E+02  0.00000000000E+00 0.  1.
</event>
<event>
12    1  0.8344842E-002  0.2131290E+03  0.7818608E-02  0.1139465E+00
         21   -1    0    0  501  502  0.00000000000E+00  0.00000000000E+00  0.46277187444E+03  0.46277187444E+03  0.00000000000E+00 0.  1.
         21   -1    0    0  502  503 -0.00000000000E+00 -0.00000000000E+00 -0.97325863270E+02  0.97325863270E+02  0.00000000000E+00 0.  1.
         -6    2    1    2    0  503 -0.12485430499E+03  0.17409759012E+02  0.18281935345E+03  0.28079689426E+03  0.17184959309E+03 0.  0.
        -24    2    3    3    0    0 -0.42356498165E+02 -0.41766628188E+02  0.21229727856E+02  0.89901556355E+02  0.63977060915E+02 0.  0.
          6    2    1    2  501    0  0.12485430499E+03 -0.17409759012E+02  0.18262665772E+03  0.27930084345E+03  0.16960179203E+03 0.  0.
         24    2    5    5    0    0  0.67114692670E+02 -0.13709275571E+02  0.18568734724E+02  0.10527599320E+03  0.77755453992E+02 0.  0.
          5    1    5    5  501    0  0.57739612321E+02 -0.37004834408E+01  0.16405792300E+03  0.17402485026E+03  0.47000000000E+01 0. -1.
        -13    1    6    6    0    0  0.75771141486E+02  0.90360952246E+01  0.24650252091E+02  0.80190721577E+02  0.00000000000E+00 0.  1.
         14    1    6    6    0    0 -0.86564488159E+01 -0.22745370796E+02 -0.60815173669E+01  0.25085271620E+02  0.00000000000E+00 0. -1.
         -5    1    3    3    0  503 -0.82497806826E+02  0.59176387200E+02  0.16158962559E+03  0.19089533790E+03  0.47000000000E+01 0.  1.
         13    1    4    4    0    0 -0.46407467248E+02 -0.52441772634E+02  0.29310154921E+02  0.75913620088E+02  0.00000000000E+00 0. -1.
        -14    1    4    4    0    0  0.40509690836E+01  0.10675144446E+02 -0.80804270652E+01  0.13987936267E+02  0.00000000000E+00 0.  1.
</event>
<event>
12    1  0.8344842E-002  0.2066261E+03  0.7818608E-02  0.1144875E+00
         21   -1    0    0  501  502  0.00000000000E+00  0.00000000000E+00  0.28624447128E+03  0.28624447128E+03  0.00000000000E+00 0.  1.
         21   -1    0    0  502  503 -0.00000000000E+00 -0.00000000000E+00 -0.28411399264E+03  0.28411399264E+03  0.00000000000E+00 0. -1.
         -6    2    1    2    0  503 -0.37403326732E+02 -0.10549523359E+03 -0.19704579025E+03  0.28336451368E+03  0.17011805018E+03 0.  0.
        -24    2    3    3    0    0  0.38031398260E+01 -0.12468252959E+03 -0.10679815091E+03  0.18220695528E+03  0.78951456343E+02 0.  0.
          6    2    1    2  501    0  0.37403326732E+02  0.10549523359E+03  0.19917626889E+03  0.28699395023E+03  0.17368387439E+03 0.  0.
         24    2    5    5    0    0 -0.33796483697E+02  0.79277181460E+02  0.16908064432E+03  0.20523432768E+03  0.78139562075E+02 0.  0.
          5    1    5    5  501    0  0.71199810430E+02  0.26218052132E+02  0.30095624564E+02  0.81759622557E+02  0.47000000000E+01 0. -1.
        -11    1    6    6    0    0  0.23992463473E+02  0.30115400803E+02  0.75584197911E+02  0.84826568025E+02  0.00000000000E+00 0.  1.
         12    1    6    6    0    0 -0.57788947170E+02  0.49161780658E+02  0.93496446413E+02  0.12040775965E+03  0.00000000000E+00 0. -1.
         -5    1    3    3    0  503 -0.41206466558E+02  0.19187295996E+02 -0.90247639344E+02  0.10115755840E+03  0.47000000000E+01 0.  1.
         11    1    4    4    0    0  0.79435718205E+01 -0.10527091096E+03 -0.11886549070E+03  0.15897820576E+03  0.00000000000E+00 0. -1.
        -12    1    4    4    0    0 -0.41404319945E+01 -0.19411618628E+02  0.12067339788E+02  0.23228749523E+02  0.00000000000E+00 0.  1.
</event>
<event>
12    1  0.8344842E-002  0.3703332E+03  0.7818608E-02  0.1054681E+00
         21   -1    0    0  501  502  0.00000000000E+00  0.00000000000E+00  0.69862590482E+03  0.69862590482E+03  0.00000000000E+00 0.  1.
         21   -1    0    0  502  503 -0.00000000000E+00 -0.00000000000E+00 -0.61783751760E+03  0.61783751760E+03  0.00000000000E+00 0. -1.
         -6    2    1    2    0  503  0.28569537540E+03 -0.16101033729E+03 -0.50369015326E+03  0.62518032306E+03  0.17204792822E+03 0.  0.
        -24    2    3    3    0    0  0.75837309329E+02 -0.55311496004E+02 -0.24714073255E+03  0.27725454331E+03  0.83551666794E+02 0.  0.
          6    2    1    2  501    0 -0.28569537540E+03  0.16101033729E+03  0.58447854049E+03  0.69128309936E+03  0.16944315547E+03 0.  0.
         24    2    5    5    0    0 -0.25280756928E+03  0.15657415628E+03  0.58081016945E+03  0.65756612383E+03  0.81397916211E+02 0.  0.
          5    1    5    5  501    0 -0.32887806118E+02  0.44361810119E+01  0.36683710342E+01  0.33716975535E+02  0.47000000000E+01 0. -1.
        -13    1    6    6    0    0 -0.13219388126E+03  0.12536315175E+03  0.31219312452E+03  0.36146326101E+03  0.00000000000E+00 0.  1.
         14    1    6    6    0    0 -0.12061368802E+03  0.31211004528E+02  0.26861704493E+03  0.29610286282E+03  0.00000000000E+00 0. -1.
         -5    1    3    3    0  503  0.20985806607E+03 -0.10569884129E+03 -0.25654942071E+03  0.34792577975E+03  0.47000000000E+01 0.  1.
         11    1    4    4    0    0  0.78018985808E+02 -0.68156937823E+02 -0.17043662394E+03  0.19945168111E+03  0.00000000000E+00 0. -1.
        -12    1    4    4    0    0 -0.21816764798E+01  0.12845441818E+02 -0.76704108615E+02  0.77802862198E+02  0.00000000000E+00 0.  1.
</event>
<event>
12    1  0.8344842E-002  0.1748025E+03  0.7818608E-02  0.1173142E+00
         21   -1    0    0  501  502  0.00000000000E+00  0.00000000000E+00  0.74152597404E+02  0.74152597404E+02  0.00000000000E+00 0.  1.
         21   -1    0    0  502  503 -0.00000000000E+00 -0.00000000000E+00 -0.48162852665E+03  0.48162852665E+03  0.00000000000E+00 0. -1.
         -6    2    1    2    0  503  0.24643784255E+02  0.12057989324E+02 -0.31125349253E+03  0.35697992317E+03  0.17263608467E+03 0.  0.
        -24    2    3    3    0    0  0.20473383525E+02  0.25625547761E+02 -0.32492427399E+03  0.33672032915E+03  0.82030287717E+02 0.  0.
          6    2    1    2  501    0 -0.24643784255E+02 -0.12057989324E+02 -0.96222436725E+02  0.19880120089E+03  0.17178605571E+03 0.  0.
         24    2    5    5    0    0  0.40384040586E+02  0.70041170736E+00 -0.16789247667E+02  0.95248719871E+02  0.84611337829E+02 0.  0.
          5    1    5    5  501    0 -0.65027824841E+02 -0.12758401031E+02 -0.79433189059E+02  0.10355248102E+03  0.47000000000E+01 0. -1.
        -13    1    6    6    0    0  0.26826098997E+02 -0.39018574151E+02 -0.23307716009E+02  0.52776304737E+02  0.00000000000E+00 0.  1.
         14    1    6    6    0    0  0.13557941589E+02  0.39718985858E+02  0.65184683420E+01  0.42472415134E+02  0.00000000000E+00 0. -1.
         -5    1    3    3    0  503  0.41704007304E+01 -0.13567558438E+02  0.13670781464E+02  0.20259594025E+02  0.47000000000E+01 0.  1.
         13    1    4    4    0    0  0.41123539860E+02 -0.98856814297E+01 -0.10890047728E+03  0.11682545177E+03  0.00000000000E+00 0. -1.
        -14    1    4    4    0    0 -0.20650156335E+02  0.35511229191E+02 -0.21602379671E+03  0.21989487738E+03  0.00000000000E+00 0.  1.
</event>
<event>
12    1  0.8344842E-002  0.1765387E+03  0.7818608E-02  0.1171217E+00
         21   -1    0    0  501  502  0.00000000000E+00  0.00000000000E+00  0.24917344822E+02  0.24917344822E+02  0.00000000000E+00 0.  1.
         21   -1    0    0  502  503 -0.00000000000E+00 -0.00000000000E+00 -0.26508260614E+04  0.26508260614E+04  0.00000000000E+00 0.  1.
         -6    2    1    2    0  503  0.36839856153E+02 -0.12897069741E+02 -0.22853067281E+04  0.22921086698E+04  0.17208080477E+03 0.  0.
        -24    2    3    3    0    0 -0.39428435899E+02  0.39507019324E+01 -0.82938497173E+03  0.83408571032E+03  0.79052711631E+02 0.  0.
          6    2    1    2  501    0 -0.36839856153E+02  0.12897069741E+02 -0.34060198847E+03  0.38363473639E+03  0.17216964601E+03 0.  0.
         24    2    5    5    0    0 -0.83633700572E+02 -0.74577323498E+01 -0.28584473401E+03  0.30863854476E+03  0.80624597397E+02 0.  0.
          5    1    5    5  501    0  0.46793844420E+02  0.20354802090E+02 -0.54757254461E+02  0.74996191636E+02  0.47000000000E+01 0. -1.
        -11    1    6    6    0    0 -0.72857732771E+00  0.24403087245E+02 -0.36182828034E+02  0.43649038209E+02  0.00000000000E+00 0.  1.
         12    1    6    6    0    0 -0.82905123245E+02 -0.31860819594E+02 -0.24966190598E+03  0.26498950655E+03  0.00000000000E+00 0. -1.
         -5    1    3    3    0  503  0.76268292051E+02 -0.16847771673E+02 -0.14559217564E+04  0.14580229595E+04  0.47000000000E+01 0.  1.
         13    1    4    4    0    0 -0.41428780287E+02 -0.31217401689E+02 -0.56235421356E+03  0.56474165023E+03  0.00000000000E+00 0. -1.
        -14    1    4    4    0    0  0.20003443887E+01  0.35168103621E+02 -0.26703075818E+03  0.26934406008E+03  0.00000000000E+00 0.  1.
</event>
<event>
12    1  0.8344842E-002  0.2113069E+03  0.7818608E-02  0.1140814E+00
         21   -1    0    0  501  502  0.00000000000E+00  0.00000000000E+00  0.81474826292E+02  0.81474826292E+02  0.00000000000E+00 0. -1.
         21   -1    0    0  502  503 -0.00000000000E+00 -0.00000000000E+00 -0.11520083144E+04  0.11520083144E+04  0.00000000000E+00 0.  1.
         -6    2    1    2    0  503 -0.75104348426E+02 -0.96372961343E+02 -0.98403441954E+03  0.10064662603E+04  0.17240122788E+03 0.  0.
        -24    2    3    3    0    0  0.20614325780E+02 -0.69607646580E+02 -0.61978380389E+03  0.62886985182E+03  0.77943261892E+02 0.  0.
          6    2    1    2  501    0  0.75104348426E+02  0.96372961343E+02 -0.86499068542E+02  0.22701688041E+03  0.17066389278E+03 0.  0.
         24    2    5    5    0    0  0.15716270106E+02 -0.10682955801E+02 -0.78839920551E+01  0.81447881326E+02  0.78806556523E+02 0.  0.
          5    1    5    5  501    0  0.59388078320E+02  0.10705591714E+03 -0.78615076487E+02  0.14556899908E+03  0.47000000000E+01 0. -1.
        -11    1    6    6    0    0 -0.26041434876E+02 -0.13683854892E+02 -0.22573106816E+02  0.37080309686E+02  0.00000000000E+00 0.  1.
         12    1    6    6    0    0  0.41757704982E+02  0.30008990915E+01  0.14689114761E+02  0.44367571639E+02  0.00000000000E+00 0. -1.
         -5    1    3    3    0  503 -0.95718674206E+02 -0.26765314763E+02 -0.36425061565E+03  0.37759640844E+03  0.47000000000E+01 0.  1.
         13    1    4    4    0    0  0.43278932663E+02 -0.63140303042E+02 -0.36167269780E+03  0.36968487150E+03  0.00000000000E+00 0. -1.
        -14    1    4    4    0    0 -0.22664606883E+02 -0.64673435385E+01 -0.25811110609E+03  0.25918498032E+03  0.00000000000E+00 0.  1.
</event>
<event>
12    1  0.8344842E-002  0.1886540E+03  0.7818608E-02  0.1159710E+00
         21   -1    0    0  501  502  0.00000000000E+00  0.00000000000E+00  0.32026048001E+03  0.32026048001E+03  0.00000000000E+00 0.  1.
         21   -1    0    0  502  503 -0.00000000000E+00 -0.00000000000E+00 -0.17367822733E+03  0.17367822733E+03  0.00000000000E+00 0. -1.
         -6    2    1    2    0  503 -0.75013335815E+02 -0.17335653545E+02 -0.74992829581E+02  0.20301294546E+03  0.17222893515E+03 0.  0.
        -24    2    3    3    0    0  0.50326386673E+01 -0.31149896516E+02  0.87148709315E+01  0.86277087794E+02  0.79825706373E+02 0.  0.
          6    2    1    2  501    0  0.75013335815E+02  0.17335653545E+02  0.22157508226E+03  0.29092576188E+03  0.17208938496E+03 0.  0.
         24    2    5    5    0    0  0.42193299208E+02  0.66698860469E+02  0.19605018377E+03  0.22621493247E+03  0.80675328497E+02 0.  0.
          5    1    5    5  501    0  0.32820036607E+02 -0.49363206924E+02  0.25524898486E+02  0.64710829414E+02  0.47000000000E+01 0. -1.
        -11    1    6    6    0    0  0.32893698863E+02  0.70365188309E+01  0.13945898521E+03  0.14345841411E+03  0.00000000000E+00 0.  1.
         12    1    6    6    0    0  0.92996003453E+01  0.59662341639E+02  0.56591198559E+02  0.82756518358E+02  0.00000000000E+00 0. -1.
         -5    1    3    3    0  503 -0.80045974482E+02  0.13814242971E+02 -0.83707700513E+02  0.11673585767E+03  0.47000000000E+01 0.  1.
         11    1    4    4    0    0  0.45523227970E+01  0.23645040617E+02  0.18813240261E+02  0.30557316600E+02  0.00000000000E+00 0. -1.
        -12    1    4    4    0    0  0.48031587023E+00 -0.54794937133E+02 -0.10098369330E+02  0.55719771194E+02  0.00000000000E+00 0.  1.
</event>
<event>
12    1  0.8344842E-002  0.3297536E+03  0.7818608E-02  0.1072257E+00
         21   -1    0    0  503  502  0.00000000000E+00  0.00000000000E+00  0.39631746202E+03  0.39631746202E+03  0.00000000000E+00 0. -1.
         21   -1    0    0  501  503 -0.00000000000E+00 -0.00000000000E+00 -0.34419003691E+03  0.34419003691E+03  0.00000000000E+00 0. -1.
          6    2    1    2  501    0 -0.23622553145E+03 -0.12862707249E+03 -0.14906008903E+03  0.36187888530E+03  0.19076161038E+03 0.  0.
         24    2    3    3    0    0 -0.23558477966E+03 -0.14667355509E+03 -0.93935238295E+02  0.30368158926E+03  0.79908438192E+02 0.  0.
         -6    2    1    2    0  502  0.23622553145E+03  0.12862707249E+03  0.20118751414E+03  0.37862861363E+03  0.17474491617E+03 0.  0.
        -24    2    5    5    0    0  0.15385694798E+03  0.45390434761E+02  0.18913658363E+03  0.26081419885E+03  0.80741235098E+02 0.  0.
          5    1    3    3  501    0 -0.64075179598E+00  0.18046482598E+02 -0.55124850735E+02  0.58197296034E+02  0.47000000000E+01 0. -1.
        -11    1    4    4    0    0 -0.51310815856E+02 -0.24174449413E+02  0.12587918840E+02  0.58100426237E+02  0.00000000000E+00 0.  1.
         12    1    4    4    0    0 -0.18427396380E+03 -0.12249910568E+03 -0.10652315713E+03  0.24558116303E+03  0.00000000000E+00 0. -1.
         -5    1    5    5    0  502  0.82368583470E+02  0.83236637734E+02  0.12050930507E+02  0.11781441478E+03  0.47000000000E+01 0.  1.
         13    1    6    6    0    0  0.57689469562E+02  0.44069390797E+02  0.12708232359E+03  0.14635608314E+03  0.00000000000E+00 0. -1.
        -14    1    6    6    0    0  0.96167478420E+02  0.13210439642E+01  0.62054260042E+02  0.11445811571E+03  0.00000000000E+00 0.  1.
</event>
<event>
12    1  0.8344842E-002  0.3987160E+03  0.7818608E-02  0.1044257E+00
         21   -1    0    0  501  502  0.00000000000E+00  0.00000000000E+00  0.11756440078E+03  0.11756440078E+03  0.00000000000E+00 0.  1.
         21   -1    0    0  502  503 -0.00000000000E+00 -0.00000000000E+00 -0.17430352276E+04  0.17430352276E+04  0.00000000000E+00 0. -1.
         -6    2    1    2    0  503 -0.30492014938E+03 -0.18909392602E+03 -0.12542329091E+04  0.13160830587E+04  0.17390117001E+03 0.  0.
        -24    2    3    3    0    0 -0.10495434033E+03 -0.51695276270E+02 -0.64097231053E+03  0.65655643647E+03  0.80827200056E+02 0.  0.
          6    2    1    2  501    0  0.30492014938E+03  0.18909392602E+03 -0.37123791776E+03  0.54451656966E+03  0.17305459457E+03 0.  0.
         24    2    5    5    0    0  0.88124894981E+02  0.12303943976E+03 -0.13965627435E+03  0.22045557996E+03  0.78689814574E+02 0.  0.
          5    1    5    5  501    0  0.21679525440E+03  0.66054486263E+02 -0.23158164340E+03  0.32406098970E+03  0.47000000000E+01 0. -1.
        -13    1    6    6    0    0  0.24624264667E+02  0.28818108455E+02  0.30649214489E+01  0.38029350886E+02  0.00000000000E+00 0.  1.
         14    1    6    6    0    0  0.63500630314E+02  0.94221331302E+02 -0.14272119580E+03  0.18242622907E+03  0.00000000000E+00 0. -1.
         -5    1    3    3    0  503 -0.19996580905E+03 -0.13739864975E+03 -0.61326059856E+03  0.65952662227E+03  0.47000000000E+01 0.  1.
         11    1    4    4    0    0 -0.68650271604E+02  0.38556174483E+01 -0.22334088381E+03  0.23368542093E+03  0.00000000000E+00 0. -1.
        -12    1    4    4    0    0 -0.36304068724E+02 -0.55550893718E+02 -0.41763142672E+03  0.42287101554E+03  0.00000000000E+00 0.  1.
</event>
<event>
12    1  0.8344842E-002  0.2001680E+03  0.7818608E-02  0.1149693E+00
         21   -1    0    0  501  502  0.00000000000E+00  0.00000000000E+00  0.12959739722E+03  0.12959739722E+03  0.00000000000E+00 0. -1.
         21   -1    0    0  502  503 -0.00000000000E+00 -0.00000000000E+00 -0.79631399763E+03  0.79631399763E+03  0.00000000000E+00 0. -1.
         -6    2    1    2    0  503 -0.82094427328E+02 -0.60404257125E+02 -0.69586182109E+03  0.72407934896E+03  0.17227611634E+03 0.  0.
        -24    2    3    3    0    0 -0.29798845714E+02 -0.70494377126E+01 -0.57950493538E+03  0.58572263802E+03  0.79418969868E+02 0.  0.
          6    2    1    2  501    0  0.82094427328E+02  0.60404257125E+02  0.29145220682E+02  0.20183204589E+03  0.17175145292E+03 0.  0.
         24    2    5    5    0    0  0.10384590685E+03  0.11870568202E+02  0.54583312635E+02  0.14268957093E+03  0.80349815642E+02 0.  0.
          5    1    5    5  501    0 -0.21751479526E+02  0.48533688923E+02 -0.25438091953E+02  0.59142474959E+02  0.47000000000E+01 0. -1.
        -13    1    6    6    0    0  0.83981218162E+02  0.34977775725E+00  0.55521622045E+00  0.83983781848E+02  0.00000000000E+00 0.  1.
         14    1    6    6    0    0  0.19864688692E+02  0.11520790445E+02  0.54028096415E+02  0.58705789080E+02  0.00000000000E+00 0. -1.
         -5    1    3    3    0  503 -0.52295581615E+02 -0.53354819412E+02 -0.11635688571E+03  0.13835671094E+03  0.47000000000E+01 0.  1.
         13    1    4    4    0    0 -0.19368504831E+02  0.35969280164E+02 -0.27866946284E+03  0.28164800303E+03  0.00000000000E+00 0. -1.
        -14    1    4    4    0    0 -0.10430340883E+02 -0.43018717876E+02 -0.30083547255E+03  0.30407463499E+03  0.00000000000E+00 0.  1.
</event>
<event>
12    1  0.8344842E-002  0.2151098E+03  0.7818608E-02  0.1139199E+00
         21   -1    0    0  501  502  0.00000000000E+00  0.00000000000E+00  0.17205947379E+03  0.17205947379E+03  0.00000000000E+00 0. -1.
         21   -1    0    0  502  503 -0.00000000000E+00 -0.00000000000E+00 -0.32731165048E+03  0.32731165048E+03  0.00000000000E+00 0. -1.
         -6    2    1    2    0  503  0.11265170257E+03 -0.61189528900E+02 -0.19311057707E+03  0.28907426095E+03  0.17273583539E+03 0.  0.
        -24    2    3    3    0    0  0.10243791637E+03 -0.84353956208E+01 -0.56406638486E+02  0.14211380085E+03  0.80311524201E+02 0.  0.
          6    2    1    2  501    0 -0.11265170257E+03  0.61189528900E+02  0.37858400384E+02  0.21029686332E+03  0.16234822975E+03 0.  0.
         24    2    5    5    0    0 -0.28524247426E+02  0.83800440201E+02  0.13486237534E+02  0.11971665388E+03  0.79461010219E+02 0.  0.
          5    1    5    5  501    0 -0.84127455148E+02 -0.22610911301E+02  0.24372162850E+02  0.90580209436E+02  0.47000000000E+01 0. -1.
        -13    1    6    6    0    0 -0.36757540438E+02  0.24013242039E+02 -0.22618666335E+02  0.49389843481E+02  0.00000000000E+00 0.  1.
         14    1    6    6    0    0  0.82332930122E+01  0.59787198163E+02  0.36104903870E+02  0.70326810403E+02  0.00000000000E+00 0. -1.
         -5    1    3    3    0  503  0.10213786208E+02 -0.52754133280E+02 -0.13670393858E+03  0.14696046009E+03  0.47000000000E+01 0.  1.
         13    1    4    4    0    0  0.43131348791E+02  0.17299100592E+02  0.11995894035E+02  0.47994516390E+02  0.00000000000E+00 0. -1.
        -14    1    4    4    0    0  0.59306567575E+02 -0.25734496213E+02 -0.68402532521E+02  0.94119284465E+02  0.00000000000E+00 0.  1.
</event>
<event>
12    1  0.8344842E-002  0.1876054E+03  0.7818608E-02  0.1161297E+00
         21   -1    0    0  501  502  0.00000000000E+00  0.00000000000E+00  0.34289105738E+04  0.34289105738E+04  0.00000000000E+00 0.  1.
         21   -1    0    0  502  503 -0.00000000000E+00 -0.00000000000E+00 -0.15441830765E+03  0.15441830765E+03  0.00000000000E+00 0.  1.
         -6    2    1    2    0  503  0.63953139069E+02 -0.21473513804E+02 -0.95594417995E+02  0.20802444662E+03  0.17200221466E+03 0.  0.
        -24    2    3    3    0    0  0.24344679086E+01  0.35344033913E+01  0.11665020383E+02  0.81784120473E+02  0.80834095650E+02 0.  0.
          6    2    1    2  501    0 -0.63953139069E+02  0.21473513804E+02  0.33700866842E+04  0.33753044348E+04  0.17505614342E+03 0.  0.
         24    2    5    5    0    0 -0.66780002740E+02 -0.34207152119E+02  0.13778243875E+04  0.13822566491E+04  0.81263171685E+02 0.  0.
          5    1    5    5  501    0  0.28268636702E+01  0.55680665923E+02  0.19922622966E+04  0.19930477858E+04  0.47000000000E+01 0. -1.
        -13    1    6    6    0    0 -0.80208229755E+01 -0.35350273805E+02  0.91473033791E+03  0.91544828721E+03  0.00000000000E+00 0.  1.
         14    1    6    6    0    0 -0.58759179764E+02  0.11431216862E+01  0.46309404959E+03  0.46680836186E+03  0.00000000000E+00 0. -1.
         -5    1    3    3    0  503  0.61518671161E+02 -0.25007917196E+02 -0.10725943838E+03  0.12624032614E+03  0.47000000000E+01 0.  1.
         11    1    4    4    0    0 -0.18098746766E+02 -0.27132387431E+02  0.26484450379E+02  0.42013773861E+02  0.00000000000E+00 0. -1.
        -12    1    4    4    0    0  0.20533214675E+02  0.30666790822E+02 -0.14819429996E+02  0.39770346612E+02  0.00000000000E+00 0.  1.
</event>
<event>
12    1  0.8344842E-002  0.1802543E+03  0.7818608E-02  0.1167839E+00
         21   -1    0    0  501  502  0.00000000000E+00  0.00000000000E+00  0.20575067590E+03  0.20575067590E+03  0.00000000000E+00 0. -1.
         21   -1    0    0  502  503 -0.00000000000E+00 -0.00000000000E+00 -0.16749651527E+03  0.16749651527E+03  0.00000000000E+00 0.  1.
         -6    2    1    2    0  503  0.45320628439E+02  0.35743336445E+02 -0.27874513294E+02  0.18124557898E+03  0.16953296419E+03 0.  0.
        -24    2    3    3    0    0  0.25169847387E+00  0.23788079991E+02 -0.77817009132E+02  0.11275850359E+03  0.78058036866E+02 0.  0.
          6    2    1    2  501    0 -0.45320628439E+02 -0.35743336445E+02  0.66128673922E+02  0.19200161219E+03  0.17076320478E+03 0.  0.
         24    2    5    5    0    0 -0.28535380871E+02  0.13047441326E+02 -0.22580868129E+02  0.89270130246E+02  0.80465873898E+02 0.  0.
          5    1    5    5  501    0 -0.16785247568E+02 -0.48790777771E+02  0.88709542051E+02  0.10273148194E+03  0.47000000000E+01 0. -1.
        -13    1    6    6    0    0  0.24283254818E+02 -0.72068411432E+01  0.57929996997E+01  0.25984108015E+02  0.00000000000E+00 0.  1.
         14    1    6    6    0    0 -0.52818635688E+02  0.20254282469E+02 -0.28373867828E+02  0.63286022231E+02  0.00000000000E+00 0. -1.
         -5    1    3    3    0  503  0.45068929965E+02  0.11955256454E+02  0.49942495838E+02  0.68487075391E+02  0.47000000000E+01 0.  1.
         13    1    4    4    0    0 -0.27691279780E+02  0.30060524917E+02 -0.14675495863E+02  0.43425940554E+02  0.00000000000E+00 0. -1.
        -14    1    4    4    0    0  0.27942978254E+02 -0.62724449266E+01 -0.63141513269E+02  0.69332563034E+02  0.00000000000E+00 0.  1.
</event>
<event>
12    1  0.8344842E-002  0.2144368E+03  0.7818608E-02  0.1138409E+00
         21   -1    0    0  503  502  0.00000000000E+00  0.00000000000E+00  0.40662238422E+03  0.40662238422E+03  0.00000000000E+00 0. -1.
         21   -1    0    0  501  503 -0.00000000000E+00 -0.00000000000E+00 -0.12321872990E+03  0.12321872990E+03  0.00000000000E+00 0.  1.
          6    2    1    2  501    0  0.12548595995E+03 -0.66886394991E+01  0.63125600380E+02  0.22353520017E+03  0.17375753293E+03 0.  0.
         24    2    3    3    0    0  0.70403695317E+02 -0.36299627740E+02 -0.25182034660E+02  0.11522455938E+03  0.79801133616E+02 0.  0.
         -6    2    1    2    0  502 -0.12548595995E+03  0.66886394991E+01  0.22027805394E+03  0.30630591395E+03  0.17178308364E+03 0.  0.
        -24    2    5    5    0    0 -0.11393989333E+03  0.29555123561E+02  0.23457458357E+03  0.27659617637E+03  0.87317838408E+02 0.  0.
          5    1    3    3  501    0  0.55082264638E+02  0.29610988241E+02  0.88307635040E+02  0.10831064079E+03  0.47000000000E+01 0. -1.
        -11    1    4    4    0    0  0.74184779009E+02 -0.55628524609E+02 -0.19962905614E+02  0.94849521809E+02  0.00000000000E+00 0.  1.
         12    1    4    4    0    0 -0.37810836926E+01  0.19328896868E+02 -0.52191290459E+01  0.20375037572E+02  0.00000000000E+00 0. -1.
         -5    1    5    5    0  502 -0.11546066626E+02 -0.22866484062E+02 -0.14296529623E+02  0.29709737581E+02  0.47000000000E+01 0.  1.
         13    1    6    6    0    0 -0.91930549808E+02 -0.17628905101E+02  0.13572743926E+03  0.16487553503E+03  0.00000000000E+00 0. -1.
        -14    1    6    6    0    0 -0.22009343521E+02  0.47184028662E+02  0.98847144310E+02  0.11172064134E+03  0.00000000000E+00 0.  1.
</event>
<event>
12    1  0.8344842E-002  0.1864069E+03  0.7818608E-02  0.1163461E+00
         21   -1    0    0  503  502  0.00000000000E+00  0.00000000000E+00  0.17404023422E+04  0.17404023422E+04  0.00000000000E+00 0.  1.
         21   -1    0    0  501  503 -0.00000000000E+00 -0.00000000000E+00 -0.44877980941E+02  0.44877980941E+02  0.00000000000E+00 0.  1.
          6    2    1    2  501    0  0.19963751525E+02 -0.71295677512E+02  0.17973948045E+03  0.25894748141E+03  0.17107276899E+03 0.  0.
         24    2    3    3    0    0  0.73980550058E+02 -0.32743218530E+02  0.11645512689E+03  0.16712642706E+03  0.88454541403E+02 0.  0.
         -6    2    1    2    0  502 -0.19963751525E+02  0.71295677512E+02  0.15157848808E+04  0.15263328417E+04  0.16311503255E+03 0.  0.
        -24    2    5    5    0    0 -0.67911075966E+02  0.20001158651E+02  0.10568257849E+04  0.10620100927E+04  0.77283482669E+02 0.  0.
          5    1    3    3  501    0 -0.54016798533E+02 -0.38552458982E+02  0.63284353557E+02  0.91821054353E+02  0.47000000000E+01 0. -1.
        -11    1    4    4    0    0 -0.19416055997E+02 -0.94505144669E+01  0.34526764650E+02  0.40723370825E+02  0.00000000000E+00 0.  1.
         12    1    4    4    0    0  0.93396606055E+02 -0.23292704063E+02  0.81928362241E+02  0.12640305623E+03  0.00000000000E+00 0. -1.
         -5    1    5    5    0  502  0.47947324441E+02  0.51294518860E+02  0.45895909587E+03  0.46432274904E+03  0.47000000000E+01 0.  1.
         13    1    6    6    0    0 -0.50129131472E+02  0.10539170334E+00  0.26293486589E+03  0.26767085129E+03  0.00000000000E+00 0. -1.
        -14    1    6    6    0    0 -0.17781944494E+02  0.19895766948E+02  0.79389091901E+03  0.79433924137E+03  0.00000000000E+00 0.  1.
</event>
<event>
12    1  0.8344842E-002  0.1983170E+03  0.7818608E-02  0.1151882E+00
         21   -1    0    0  501  502  0.00000000000E+00  0.00000000000E+00  0.21241423773E+03  0.21241423773E+03  0.00000000000E+00 0.  1.
         21   -1    0    0  502  503 -0.00000000000E+00 -0.00000000000E+00 -0.37811206354E+03  0.37811206354E+03  0.00000000000E+00 0.  1.
         -6    2    1    2    0  503  0.40925796097E+02 -0.86958279810E+02 -0.29511536033E+03  0.35371726800E+03  0.16966486545E+03 0.  0.
        -24    2    3    3    0    0  0.34565705975E+02 -0.10346452652E+03 -0.12893062361E+03  0.18652766412E+03  0.79181863456E+02 0.  0.
          6    2    1    2  501    0 -0.40925796097E+02  0.86958279810E+02  0.12941753452E+03  0.23680903328E+03  0.17347321634E+03 0.  0.
         24    2    5    5    0    0 -0.30074363837E+02  0.16395492263E+02  0.14381669307E+03  0.16382762239E+03  0.70590148910E+02 0.  0.
          5    1    5    5  501    0 -0.10851432260E+02  0.70562787546E+02 -0.14399158557E+02  0.72981410890E+02  0.47000000000E+01 0. -1.
        -13    1    6    6    0    0  0.14639580864E+01  0.38936741197E+02  0.60926508677E+02  0.72320484290E+02  0.00000000000E+00 0.  1.
         14    1    6    6    0    0 -0.31538321923E+02 -0.22541248934E+02  0.82890184396E+02  0.91507138095E+02  0.00000000000E+00 0. -1.
         -5    1    3    3    0  503  0.63600901221E+01  0.16506246715E+02 -0.16618473672E+03  0.16718960388E+03  0.47000000000E+01 0.  1.
         11    1    4    4    0    0  0.14387467216E+02 -0.13671596728E+02  0.81195069333E+01  0.21443837409E+02  0.00000000000E+00 0. -1.
        -12    1    4    4    0    0  0.20178238759E+02 -0.89792929796E+02 -0.13705013054E+03  0.16508382671E+03  0.00000000000E+00 0.  1.
</event>
<event>
12    1  0.8344842E-002  0.1932328E+03  0.7818608E-02  0.1155598E+00
         21   -1    0    0  501  502  0.00000000000E+00  0.00000000000E+00  0.13170364097E+03  0.13170364097E+03  0.00000000000E+00 0.  1.
         21   -1    0    0  502  503 -0.00000000000E+00 -0.00000000000E+00 -0.28337062307E+03  0.28337062307E+03  0.00000000000E+00 0.  1.
         -6    2    1    2    0  503  0.30640011638E+02  0.84230418922E+02 -0.75385759761E+02  0.20732983754E+03  0.17108207088E+03 0.  0.
        -24    2    3    3    0    0 -0.43459818425E+02  0.29159144052E+02 -0.77749450995E+02  0.11485655942E+03  0.66393076538E+02 0.  0.
          6    2    1    2  501    0 -0.30640011638E+02 -0.84230418922E+02 -0.76281222341E+02  0.20774442649E+03  0.17118804885E+03 0.  0.
         24    2    5    5    0    0 -0.24243992707E+02 -0.11256661081E+03 -0.17515910114E+02  0.14202303918E+03  0.81269449973E+02 0.  0.
          5    1    5    5  501    0 -0.63960189306E+01  0.28336191887E+02 -0.58765312227E+02  0.65721387310E+02  0.47000000000E+01 0. -1.
        -11    1    6    6    0    0 -0.42742080497E+02 -0.39152786521E+02 -0.30039911550E+02  0.65285698461E+02  0.00000000000E+00 0.  1.
         12    1    6    6    0    0  0.18498087790E+02 -0.73413824288E+02  0.12524001436E+02  0.76737340718E+02  0.00000000000E+00 0. -1.
         -5    1    3    3    0  503  0.74099830063E+02  0.55071274871E+02  0.23636912338E+01  0.92473278127E+02  0.47000000000E+01 0.  1.
         13    1    4    4    0    0 -0.98939681598E+01 -0.16565671108E+02 -0.86782419577E+00  0.19314895393E+02  0.00000000000E+00 0. -1.
        -14    1    4    4    0    0 -0.33565850265E+02  0.45724815160E+02 -0.76881626799E+02  0.95541664025E+02  0.00000000000E+00 0.  1.
</event>
<event>
12    1  0.8344842E-002  0.1754960E+03  0.7818608E-02  0.1172578E+00
         21   -1    0    0  503  502  0.00000000000E+00  0.00000000000E+00  0.63047931500E+02  0.63047931500E+02  0.00000000000E+00 0.  1.
         21   -1    0    0  501  503 -0.00000000000E+00 -0.00000000000E+00 -0.55312834494E+03  0.55312834494E+03  0.00000000000E+00 0.  1.
          6    2    1    2  501    0 -0.17738402426E+02 -0.14070074284E+02 -0.35256318016E+03  0.39321925332E+03  0.17264984004E+03 0.  0.
         24    2    3    3    0    0 -0.56101132875E+02 -0.23928009974E+02 -0.33031250312E+03  0.34754584079E+03  0.89229339123E+02 0.  0.
         -6    2    1    2    0  502  0.17738402426E+02  0.14070074284E+02 -0.13751723329E+03  0.22295702312E+03  0.17402938487E+03 0.  0.
        -24    2    5    5    0    0 -0.25717511872E+02  0.63798774794E+02 -0.61214840284E+02  0.12193472202E+03  0.79932131724E+02 0.  0.
          5    1    3    3  501    0  0.38362730449E+02  0.98579356894E+01 -0.22250677036E+02  0.45673412529E+02  0.47000000000E+01 0. -1.
        -11    1    4    4    0    0 -0.53774439025E+02 -0.21886943593E+02 -0.89302916035E+02  0.10651638092E+03  0.00000000000E+00 0.  1.
         12    1    4    4    0    0 -0.23266938492E+01 -0.20410663800E+01 -0.24100958709E+03  0.24102945987E+03  0.00000000000E+00 0. -1.
         -5    1    5    5    0  502  0.43455914298E+02 -0.49728700510E+02 -0.76302393001E+02  0.10102230110E+03  0.47000000000E+01 0.  1.
         11    1    6    6    0    0 -0.26314334140E+02  0.27628311015E+02 -0.74252418875E+02  0.83481671399E+02  0.00000000000E+00 0. -1.
        -12    1    6    6    0    0  0.59682226715E+00  0.36170463780E+02  0.13037578591E+02  0.38453050625E+02  0.00000000000E+00 0.  1.
</event>
<event>
12    1  0.8344842E-002  0.1872273E+03  0.7818608E-02  0.1161439E+00
         21   -1    0    0  503  502  0.00000000000E+00  0.00000000000E+00  0.83081625124E+02  0.83081625124E+02  0.00000000000E+00 0.  1.
         21   -1    0    0  501  503 -0.00000000000E+00 -0.00000000000E+00 -0.48028658638E+03  0.48028658638E+03  0.00000000000E+00 0. -1.
          6    2    1    2  501    0  0.51332731174E+02 -0.48552180094E+02 -0.30133975980E+03  0.35476711966E+03  0.17338308705E+03 0.  0.
         24    2    3    3    0    0 -0.18934140089E+02 -0.50077263379E+02 -0.79894201808E+02  0.12238815282E+03  0.75693741479E+02 0.  0.
         -6    2    1    2    0  502 -0.51332731174E+02  0.48552180094E+02 -0.95865201450E+02  0.20860109184E+03  0.17126562757E+03 0.  0.
        -24    2    5    5    0    0 -0.53095790421E+02 -0.90498059457E+01 -0.11278154147E+03  0.14835700721E+03  0.79931617913E+02 0.  0.
          5    1    3    3  501    0  0.70266871263E+02  0.15250832844E+01 -0.22144555800E+03  0.23237896685E+03  0.47000000000E+01 0. -1.
        -11    1    4    4    0    0 -0.28107796147E+00 -0.51034292233E+02 -0.88236163587E+02  0.10193232340E+03  0.00000000000E+00 0.  1.
         12    1    4    4    0    0 -0.18653062127E+02  0.95702885463E+00  0.83419617790E+01  0.20455829420E+02  0.00000000000E+00 0. -1.
         -5    1    5    5    0  502  0.17630592472E+01  0.57601986040E+02  0.16916340020E+02  0.60244084634E+02  0.47000000000E+01 0.  1.
         11    1    6    6    0    0  0.19869904800E+02 -0.12245082548E+02 -0.28219820218E+02  0.36621215388E+02  0.00000000000E+00 0. -1.
        -12    1    6    6    0    0 -0.72965695221E+02  0.31952766025E+01 -0.84561721253E+02  0.11173579182E+03  0.00000000000E+00 0.  1.
</event>
<event>
12    1  0.8344842E-002  0.2118212E+03  0.7818608E-02  0.1140235E+00
         21   -1    0    0  503  502  0.00000000000E+00  0.00000000000E+00  0.93074865827E+03  0.93074865827E+03  0.00000000000E+00 0. -1.
         21   -1    0    0  501  503 -0.00000000000E+00 -0.00000000000E+00 -0.96146115253E+02  0.96146115253E+02  0.00000000000E+00 0. -1.
          6    2    1    2  501    0 -0.11642582829E+03 -0.40243870614E+02  0.54550385438E+02  0.21873260669E+03  0.17231850180E+03 0.  0.
         24    2    3    3    0    0 -0.59992733655E+02  0.34688899760E+02 -0.84723310361E+01  0.10562395522E+03  0.79260277972E+02 0.  0.
         -6    2    1    2    0  502  0.11642582829E+03  0.40243870614E+02  0.78005215758E+03  0.80816216683E+03  0.17166879956E+03 0.  0.
        -24    2    5    5    0    0  0.10546717165E+03  0.76853433657E+02  0.43543544305E+03  0.46140126622E+03  0.79103279609E+02 0.  0.
          5    1    3    3  501    0 -0.56433094637E+02 -0.74932770374E+02  0.63022716474E+02  0.11310865147E+03  0.47000000000E+01 0. -1.
        -11    1    4    4    0    0 -0.20095640317E+02  0.41847674495E+02  0.25295487777E+02  0.52867043820E+02  0.00000000000E+00 0.  1.
         12    1    4    4    0    0 -0.39897093339E+02 -0.71587747358E+01 -0.33767818813E+02  0.52756911395E+02  0.00000000000E+00 0. -1.
         -5    1    5    5    0  502  0.10958656642E+02 -0.36609563043E+02  0.34461671453E+03  0.34676090062E+03  0.47000000000E+01 0.  1.
         11    1    6    6    0    0  0.30709939220E+02  0.19474186960E+02  0.25745991994E+03  0.26001529705E+03  0.00000000000E+00 0. -1.
        -12    1    6    6    0    0  0.74757232431E+02  0.57379246697E+02  0.17797552311E+03  0.20138596917E+03  0.00000000000E+00 0.  1.
</event>
<event>
12    1  0.8344842E-002  0.2465287E+03  0.7818608E-02  0.1115805E+00
         21   -1    0    0  501  502  0.00000000000E+00  0.00000000000E+00  0.31670301703E+03  0.31670301703E+03  0.00000000000E+00 0.  1.
         21   -1    0    0  502  503 -0.00000000000E+00 -0.00000000000E+00 -0.26259561867E+03  0.26259561867E+03  0.00000000000E+00 0.  1.
         -6    2    1    2    0  503  0.15027251939E+03 -0.91175477118E+02 -0.12461605435E+03  0.27623464896E+03  0.17286301679E+03 0.  0.
        -24    2    3    3    0    0  0.10140216109E+03  0.11325848234E+02 -0.86508230150E+02  0.15636334345E+03  0.80963869599E+02 0.  0.
          6    2    1    2  501    0 -0.15027251939E+03  0.91175477118E+02  0.17872345271E+03  0.30306398673E+03  0.17032589290E+03 0.  0.
         24    2    5    5    0    0 -0.12932886807E+02  0.65957960620E+02  0.59175780949E+02  0.11918404318E+03  0.78647002280E+02 0.  0.
          5    1    5    5  501    0 -0.13733963259E+03  0.25217516498E+02  0.11954767176E+03  0.18387994355E+03  0.47000000000E+01 0. -1.
        -13    1    6    6    0    0 -0.32944995201E+02  0.12498560205E+02 -0.22775789722E+01  0.35309688216E+02  0.00000000000E+00 0.  1.
         14    1    6    6    0    0  0.20012108393E+02  0.53459400415E+02  0.61453359921E+02  0.83874354964E+02  0.00000000000E+00 0. -1.
         -5    1    3    3    0  503  0.48870358305E+02 -0.10250132535E+03 -0.38107824201E+02  0.11987130551E+03  0.47000000000E+01 0.  1.
         11    1    4    4    0    0 -0.13723099463E+02  0.32710502051E+01 -0.15032294390E+02  0.20615360849E+02  0.00000000000E+00 0. -1.
        -12    1    4    4    0    0  0.11512526055E+03  0.80547980286E+01 -0.71475935759E+02  0.13574798260E+03  0.00000000000E+00 0.  1.
</event>
<event>
12    1  0.8344842E-002  0.1795174E+03  0.7818608E-02  0.1168367E+00
         21   -1    0    0  501  502  0.00000000000E+00  0.00000000000E+00  0.24508290121E+03  0.24508290121E+03  0.00000000000E+00 0.  1.
         21   -1    0    0  502  503 -0.00000000000E+00 -0.00000000000E+00 -0.13328857158E+03  0.13328857158E+03  0.00000000000E+00 0.  1.
         -6    2    1    2    0  503  0.33122341570E+02  0.39490513808E+02  0.32178932364E+02  0.18199143497E+03  0.17154826878E+03 0.  0.
        -24    2    3    3    0    0  0.61439688760E+02 -0.97229565339E+01 -0.27123007159E+02  0.99756115025E+02  0.73118080724E+02 0.  0.
          6    2    1    2  501    0 -0.33122341570E+02 -0.39490513808E+02  0.79615397270E+02  0.19638003783E+03  0.17195905787E+03 0.  0.
         24    2    5    5    0    0  0.38345834136E+02  0.16842042006E+02  0.41116786399E+02  0.97459412970E+02  0.77805460465E+02 0.  0.
          5    1    5    5  501    0 -0.71468175707E+02 -0.56332555814E+02  0.38498610871E+02  0.98920624858E+02  0.47000000000E+01 0. -1.
        -11    1    6    6    0    0  0.16777328385E+02 -0.23982602292E+02 -0.77018128752E+01  0.30264862168E+02  0.00000000000E+00 0.  1.
         12    1    6    6    0    0  0.21568505751E+02  0.40824644298E+02  0.48818599274E+02  0.67194550802E+02  0.00000000000E+00 0. -1.
         -5    1    3    3    0  503 -0.28317347190E+02  0.49213470342E+02  0.59301939523E+02  0.82235319943E+02  0.47000000000E+01 0.  1.
         13    1    4    4    0    0  0.72966377126E+02  0.94929134768E+01 -0.21362795657E+02  0.76619688302E+02  0.00000000000E+00 0. -1.
        -14    1    4    4    0    0 -0.11526688366E+02 -0.19215870011E+02 -0.57602115015E+01  0.23136426723E+02  0.00000000000E+00 0.  1.
</event>
<event>
12    1  0.8344842E-002  0.2278862E+03  0.7818608E-02  0.1128796E+00
         21   -1    0    0  501  502  0.00000000000E+00  0.00000000000E+00  0.42851196323E+03  0.42851196323E+03  0.00000000000E+00 0. -1.
         21   -1    0    0  502  503 -0.00000000000E+00 -0.00000000000E+00 -0.25705667194E+03  0.25705667194E+03  0.00000000000E+00 0.  1.
         -6    2    1    2    0  503 -0.13610319422E+03  0.46492745889E+02 -0.16557584400E+03  0.27872457019E+03  0.17200689234E+03 0.  0.
        -24    2    3    3    0    0 -0.11266024644E+02  0.85373500757E+01 -0.21236563027E+02  0.84094539072E+02  0.80131705554E+02 0.  0.
          6    2    1    2  501    0  0.13610319422E+03 -0.46492745889E+02  0.33703113529E+03  0.40684406498E+03  0.17676666021E+03 0.  0.
         24    2    5    5    0    0  0.13715515543E+02  0.26390814716E+02  0.12330034693E+03  0.14995168053E+03  0.79987126921E+02 0.  0.
          5    1    5    5  501    0  0.12238767868E+03 -0.72883560605E+02  0.21373078835E+03  0.25689238445E+03  0.47000000000E+01 0. -1.
        -11    1    6    6    0    0  0.51593383707E+01 -0.28064569413E+02  0.28755471426E+02  0.40510689524E+02  0.00000000000E+00 0.  1.
         12    1    6    6    0    0  0.85561771722E+01  0.54455384130E+02  0.94544875506E+02  0.10944099101E+03  0.00000000000E+00 0. -1.
         -5    1    3    3    0  503 -0.12483716958E+03  0.37955395813E+02 -0.14433928097E+03  0.19463003111E+03  0.47000000000E+01 0.  1.
         13    1    4    4    0    0  0.77180706698E+01  0.38689196443E+02  0.51101749695E+01  0.39781106376E+02  0.00000000000E+00 0. -1.
        -14    1    4    4    0    0 -0.18984095314E+02 -0.30151846367E+02 -0.26346737997E+02  0.44313432696E+02  0.00000000000E+00 0.  1.
</event>
<event>
12    1  0.8344842E-002  0.1873862E+03  0.7818608E-02  0.1160856E+00
         21   -1    0    0  501  502  0.00000000000E+00  0.00000000000E+00  0.51712414246E+02  0.51712414246E+02  0.00000000000E+00 0. -1.
         21   -1    0    0  502  503 -0.00000000000E+00 -0.00000000000E+00 -0.68254871399E+03  0.68254871399E+03  0.00000000000E+00 0. -1.
         -6    2    1    2    0  503 -0.45187099494E+02  0.56328491874E+02 -0.28816939649E+03  0.34373707426E+03  0.17291270107E+03 0.  0.
        -24    2    3    3    0    0 -0.56440299422E+01 -0.35127956812E+02 -0.15107836258E+03  0.17419658372E+03  0.79081917750E+02 0.  0.
          6    2    1    2  501    0  0.45187099494E+02 -0.56328491874E+02 -0.34266690326E+03  0.39052405398E+03  0.17283997567E+03 0.  0.
         24    2    5    5    0    0  0.39479242468E+02 -0.49338325224E+02 -0.35789081889E+03  0.37221286427E+03  0.80397121597E+02 0.  0.
          5    1    5    5  501    0  0.57078570262E+01 -0.69901666495E+01  0.15223915627E+02  0.18311189711E+02  0.47000000000E+01 0. -1.
        -13    1    6    6    0    0 -0.20871514286E+01 -0.41974629112E+02 -0.73176885762E+02  0.84386505437E+02  0.00000000000E+00 0.  1.
         14    1    6    6    0    0  0.41566393897E+02 -0.73636961126E+01 -0.28471393312E+03  0.28782635883E+03  0.00000000000E+00 0. -1.
         -5    1    3    3    0  503 -0.39543069552E+02  0.91456448686E+02 -0.13709103390E+03  0.16954049054E+03  0.47000000000E+01 0.  1.
         11    1    4    4    0    0 -0.32927978855E+02 -0.23105793414E+02 -0.13384510721E+03  0.13975922941E+03  0.00000000000E+00 0. -1.
        -12    1    4    4    0    0  0.27283948913E+02 -0.12022163398E+02 -0.17233255370E+02  0.34437354308E+02  0.00000000000E+00 0.  1.
</event>
<event>
12    1  0.8344842E-002  0.1736857E+03  0.7818608E-02  0.1174251E+00
         21   -1    0    0  503  502  0.00000000000E+00  0.00000000000E+00  0.76201170802E+03  0.76201170802E+03  0.00000000000E+00 0. -1.
         21   -1    0    0  501  503 -0.00000000000E+00 -0.00000000000E+00 -0.45137137079E+02  0.45137137079E+02  0.00000000000E+00 0. -1.
          6    2    1    2  501    0  0.19164487241E+02  0.95830272520E+01  0.21405637302E+03  0.27517809433E+03  0.17159178531E+03 0.  0.
         24    2    3    3    0    0 -0.30355521260E+02  0.33480788298E+02  0.19744466583E+03  0.21754673966E+03  0.79371071670E+02 0.  0.
         -6    2    1    2    0  502 -0.19164487241E+02 -0.95830272520E+01  0.50281819791E+03  0.53197075077E+03  0.17235900770E+03 0.  0.
        -24    2    5    5    0    0  0.56004024700E+02 -0.33713435778E+01  0.26611375800E+03  0.28349545606E+03  0.80033272285E+02 0.  0.
          5    1    3    3  501    0  0.49520008501E+02 -0.23897761046E+02  0.16611707197E+02  0.57631354669E+02  0.47000000000E+01 0. -1.
        -11    1    4    4    0    0  0.18764502926E+02  0.32744703262E+02  0.12036751110E+03  0.12614539187E+03  0.00000000000E+00 0.  1.
         12    1    4    4    0    0 -0.49120024186E+02  0.73608503523E+00  0.77077154726E+02  0.91401347790E+02  0.00000000000E+00 0. -1.
         -5    1    5    5    0  502 -0.75168511941E+02 -0.62116836742E+01  0.23670443992E+03  0.24847529470E+03  0.47000000000E+01 0.  1.
         13    1    6    6    0    0 -0.74454473290E+01  0.26524792608E+02  0.79198786834E+02  0.83853724692E+02  0.00000000000E+00 0. -1.
        -14    1    6    6    0    0  0.63449472029E+02 -0.29896136185E+02  0.18691497116E+03  0.19964173137E+03  0.00000000000E+00 0.  1.
</event>
<event>
12    1  0.8344842E-002  0.3742133E+03  0.7818608E-02  0.1053112E+00
         21   -1    0    0  501  502  0.00000000000E+00  0.00000000000E+00  0.17322498080E+03  0.17322498080E+03  0.00000000000E+00 0. -1.
         21   -1    0    0  502  503 -0.00000000000E+00 -0.00000000000E+00 -0.10001479063E+04  0.10001479063E+04  0.00000000000E+00 0. -1.
         -6    2    1    2    0  503  0.10219688682E+01 -0.33209478196E+03 -0.67070963637E+03  0.76804103879E+03  0.17247501938E+03 0.  0.
        -24    2    3    3    0    0  0.17207317205E+02 -0.32913944355E+03 -0.55197943425E+03  0.64808416978E+03  0.81871424903E+02 0.  0.
          6    2    1    2  501    0 -0.10219688682E+01  0.33209478196E+03 -0.15621328911E+03  0.40533184829E+03  0.17205617371E+03 0.  0.
         24    2    5    5    0    0  0.43039512779E+02  0.22386185610E+03 -0.47627040393E+02  0.24574223767E+03  0.78449870122E+02 0.  0.
          5    1    5    5  501    0 -0.44061481648E+02  0.10823292587E+03 -0.10858624872E+03  0.15958961062E+03  0.47000000000E+01 0. -1.
        -13    1    6    6    0    0 -0.14715930862E+02  0.70504273506E+02  0.85015666363E+01  0.72523705359E+02  0.00000000000E+00 0.  1.
         14    1    6    6    0    0  0.57755443641E+02  0.15335758259E+03 -0.56128607030E+02  0.17321853231E+03  0.00000000000E+00 0. -1.
         -5    1    3    3    0  503 -0.16185348337E+02 -0.29553384100E+01 -0.11873020212E+03  0.11995686901E+03  0.47000000000E+01 0.  1.
         13    1    4    4    0    0 -0.13065153723E+02 -0.27126284394E+03 -0.47474645369E+03  0.54693548435E+03  0.00000000000E+00 0. -1.
        -14    1    4    4    0    0  0.30272470928E+02 -0.57876599613E+02 -0.77232980557E+02  0.10114868543E+03  0.00000000000E+00 0.  1.
</event>
<event>
12    1  0.8344842E-002  0.2163407E+03  0.7818608E-02  0.1136774E+00
         21   -1    0    0  503  502  0.00000000000E+00  0.00000000000E+00  0.11185594683E+03  0.11185594683E+03  0.00000000000E+00 0. -1.
         21   -1    0    0  501  503 -0.00000000000E+00 -0.00000000000E+00 -0.47182926977E+03  0.47182926977E+03  0.00000000000E+00 0.  1.
          6    2    1    2  501    0  0.56822292735E+02  0.11787473056E+03 -0.27966263099E+03  0.35357390129E+03  0.17227910913E+03 0.  0.
         24    2    3    3    0    0 -0.19136997278E+02  0.55514888019E+01 -0.11372532308E+03  0.13922930832E+03  0.77809430614E+02 0.  0.
         -6    2    1    2    0  502 -0.56822292735E+02 -0.11787473056E+03 -0.80310691948E+02  0.23011131531E+03  0.17140065675E+03 0.  0.
        -24    2    5    5    0    0 -0.73216545879E+02 -0.14056307044E+03 -0.91453437907E+02  0.19961897053E+03  0.79783223363E+02 0.  0.
          5    1    3    3  501    0  0.75959290013E+02  0.11232324176E+03 -0.16593730792E+03  0.21434459298E+03  0.47000000000E+01 0. -1.
        -11    1    4    4    0    0  0.55439054927E+01 -0.71653822566E+01 -0.11095802636E+03  0.11132727072E+03  0.00000000000E+00 0.  1.
         12    1    4    4    0    0 -0.24680902771E+02  0.12716871059E+02 -0.27672967151E+01  0.27902037600E+02  0.00000000000E+00 0. -1.
         -5    1    5    5    0  502  0.16394253144E+02  0.22688339874E+02  0.11142745960E+02  0.30492344776E+02  0.47000000000E+01 0.  1.
         11    1    6    6    0    0 -0.36821264747E+02 -0.10720218158E+03 -0.97967945520E+02  0.14981932994E+03  0.00000000000E+00 0. -1.
        -12    1    6    6    0    0 -0.36395281132E+02 -0.33360888854E+02  0.65145076131E+01  0.49799640594E+02  0.00000000000E+00 0.  1.
</event>
<event>
12    1  0.8344842E-002  0.1879700E+03  0.7818608E-02  0.1160779E+00
         21   -1    0    0  501  502  0.00000000000E+00  0.00000000000E+00  0.10314765890E+03  0.10314765890E+03  0.00000000000E+00 0.  1.
         21   -1    0    0  502  503 -0.00000000000E+00 -0.00000000000E+00 -0.57835680365E+03  0.57835680365E+03  0.00000000000E+00 0.  1.
         -6    2    1    2    0  503  0.71421892693E+02  0.20926553616E+02 -0.45613847812E+03  0.49256953746E+03  0.17036264441E+03 0.  0.
        -24    2    3    3    0    0 -0.26624962794E+02  0.14607333652E+01 -0.23121821210E+03  0.24639212157E+03  0.80846728932E+02 0.  0.
          6    2    1    2  501    0 -0.71421892693E+02 -0.20926553616E+02 -0.19070666618E+02  0.18893492508E+03  0.17260854031E+03 0.  0.
         24    2    5    5    0    0 -0.17844369776E+01 -0.55400303039E+02 -0.40581214776E+02  0.10817225846E+03  0.83558510734E+02 0.  0.
          5    1    5    5  501    0 -0.69637455716E+02  0.34473749423E+02  0.21510548157E+02  0.80762666622E+02  0.47000000000E+01 0. -1.
        -13    1    6    6    0    0 -0.26405185064E+02 -0.61884930484E+02 -0.94305975414E+01  0.67940522439E+02  0.00000000000E+00 0.  1.
         14    1    6    6    0    0  0.24620748086E+02  0.64846274447E+01 -0.31150617235E+02  0.40231736024E+02  0.00000000000E+00 0. -1.
         -5    1    3    3    0  503  0.98046855487E+02  0.19465820250E+02 -0.22492026603E+03  0.24617741590E+03  0.47000000000E+01 0.  1.
         13    1    4    4    0    0 -0.20221474992E+02 -0.35278173366E+02 -0.70335515305E+02  0.81243721481E+02  0.00000000000E+00 0. -1.
        -14    1    4    4    0    0 -0.64034878023E+01  0.36738906731E+02 -0.16088269679E+03  0.16514840008E+03  0.00000000000E+00 0.  1.
</event>
<event>
12    1  0.8344842E-002  0.1806756E+03  0.7818608E-02  0.1167448E+00
         21   -1    0    0  501  502  0.00000000000E+00  0.00000000000E+00  0.34141393513E+03  0.34141393513E+03  0.00000000000E+00 0.  1.
         21   -1    0    0  502  503 -0.00000000000E+00 -0.00000000000E+00 -0.10716452870E+03  0.10716452870E+03  0.00000000000E+00 0.  1.
         -6    2    1    2    0  503  0.49100568037E+02  0.20202475024E+02  0.41797658793E+02  0.18544737230E+03  0.17269822765E+03 0.  0.
        -24    2    3    3    0    0  0.42921014988E+02  0.78065784641E+02  0.47225773363E+02  0.12681373090E+03  0.76908831846E+02 0.  0.
          6    2    1    2  501    0 -0.49100568037E+02 -0.20202475024E+02  0.19245174764E+03  0.26313109154E+03  0.17140971497E+03 0.  0.
         24    2    5    5    0    0 -0.93016072760E-01  0.40475120392E+02  0.14783103149E+03  0.17314993215E+03  0.80552101831E+02 0.  0.
          5    1    5    5  501    0 -0.49007551964E+02 -0.60677595416E+02  0.44620716146E+02  0.89981159386E+02  0.47000000000E+01 0. -1.
        -11    1    6    6    0    0  0.23068037897E+01  0.65157272419E+02  0.11148531906E+03  0.12915017560E+03  0.00000000000E+00 0.  1.
         12    1    6    6    0    0 -0.23998198624E+01 -0.24682152027E+02  0.36345712432E+02  0.43999756547E+02  0.00000000000E+00 0. -1.
         -5    1    3    3    0  503  0.61795530490E+01 -0.57863309617E+02 -0.54281145705E+01  0.58633641397E+02  0.47000000000E+01 0.  1.
         11    1    4    4    0    0  0.94538461894E+01  0.34363707676E+02  0.60475912158E+02  0.70196691976E+02  0.00000000000E+00 0. -1.
        -12    1    4    4    0    0  0.33467168799E+02  0.43702076965E+02 -0.13250138795E+02  0.56617038924E+02  0.00000000000E+00 0.  1.
</event>
<event>
12    1  0.8344842E-002  0.1915537E+03  0.7818608E-02  0.1157158E+00
         21   -1    0    0  503  502  0.00000000000E+00  0.00000000000E+00  0.26222557707E+02  0.26222557707E+02  0.00000000000E+00 0. -1.
         21   -1    0    0  501  503 -0.00000000000E+00 -0.00000000000E+00 -0.19440248558E+04  0.19440248558E+04  0.00000000000E+00 0.  1.
          6    2    1    2  501    0  0.34507496181E+02  0.76074867542E+02 -0.43673684870E+03  0.47689818901E+03  0.17237939235E+03 0.  0.
         24    2    3    3    0    0  0.70115741804E+01 -0.25793037157E+02 -0.18607700121E+03  0.20489534918E+03  0.81504667336E+02 0.  0.
         -6    2    1    2    0  502 -0.34507496181E+02 -0.76074867542E+02 -0.14810654494E+04  0.14933492245E+04  0.17192698491E+03 0.  0.
        -24    2    5    5    0    0  0.15101840529E+02 -0.66946464060E+02 -0.13242465270E+04  0.13285503214E+04  0.81897482207E+02 0.  0.
          5    1    3    3  501    0  0.27495922001E+02  0.10186790470E+03 -0.25065984749E+03  0.27200283983E+03  0.47000000000E+01 0. -1.
        -11    1    4    4    0    0  0.38939362738E+02 -0.19067380676E+02 -0.15050400680E+03  0.15662469486E+03  0.00000000000E+00 0.  1.
         12    1    4    4    0    0 -0.31927788558E+02 -0.67256564813E+01 -0.35572994408E+02  0.48270654319E+02  0.00000000000E+00 0. -1.
         -5    1    5    5    0  502 -0.49609336711E+02 -0.91284034819E+01 -0.15681892241E+03  0.16479890311E+03  0.47000000000E+01 0.  1.
         11    1    6    6    0    0 -0.30724370483E+01  0.12894850364E+02 -0.51709748106E+02  0.53381786075E+02  0.00000000000E+00 0. -1.
        -12    1    6    6    0    0  0.18174277577E+02 -0.79841314424E+02 -0.12725367789E+04  0.12751685353E+04  0.00000000000E+00 0.  1.
</event>
<event>
12    1  0.8344842E-002  0.1793639E+03  0.7818608E-02  0.1168881E+00
         21   -1    0    0  503  502  0.00000000000E+00  0.00000000000E+00  0.53070730385E+03  0.53070730385E+03  0.00000000000E+00 0.  1.
         21   -1    0    0  501  503 -0.00000000000E+00 -0.00000000000E+00 -0.76992099651E+02  0.76992099651E+02  0.00000000000E+00 0.  1.
          6    2    1    2  501    0 -0.23787836834E+02  0.37783616318E+02  0.84983166082E+02  0.19847805125E+03  0.17371797682E+03 0.  0.
         24    2    3    3    0    0 -0.62580137070E+02  0.73883650020E+02  0.54473506366E+02  0.13715118661E+03  0.80423987697E+02 0.  0.
         -6    2    1    2    0  502  0.23787836834E+02 -0.37783616318E+02  0.36873203811E+03  0.40922135224E+03  0.17177117441E+03 0.  0.
        -24    2    5    5    0    0 -0.20256988545E+02 -0.80299698799E+01  0.33696752779E+03  0.34712223603E+03  0.80448156948E+02 0.  0.
          5    1    3    3  501    0  0.38792300236E+02 -0.36100033702E+02  0.30509659716E+02  0.61326864642E+02  0.47000000000E+01 0. -1.
        -13    1    4    4    0    0 -0.25266294404E+02 -0.11592867725E+02 -0.24162738131E+01  0.27903737996E+02  0.00000000000E+00 0.  1.
         14    1    4    4    0    0 -0.37313842666E+02  0.85476517744E+02  0.56889780179E+02  0.10924744862E+03  0.00000000000E+00 0. -1.
         -5    1    5    5    0  502  0.44044825379E+02 -0.29753646438E+02  0.31764510320E+02  0.62099116217E+02  0.47000000000E+01 0.  1.
         11    1    6    6    0    0 -0.35993127039E+02  0.25554354431E+02  0.14365368035E+03  0.15028276715E+03  0.00000000000E+00 0. -1.
        -12    1    6    6    0    0  0.15736138494E+02 -0.33584324311E+02  0.19331384744E+03  0.19683946888E+03  0.00000000000E+00 0.  1.
</event>
<event>
12    1  0.8344842E-002  0.1938786E+03  0.7818608E-02  0.1155351E+00
         21   -1    0    0  503  502  0.00000000000E+00  0.00000000000E+00  0.15133584596E+03  0.15133584596E+03  0.00000000000E+00 0.  1.
         21   -1    0    0  501  503 -0.00000000000E+00 -0.00000000000E+00 -0.41412862150E+03  0.41412862150E+03  0.00000000000E+00 0.  1.
          6    2    1    2  501    0 -0.18877640075E+02  0.76075694173E+02 -0.31164443213E+03  0.36703021762E+03  0.17732752755E+03 0.  0.
         24    2    3    3    0    0  0.80136922270E+01 -0.89644904593E+01 -0.24338700442E+03  0.25461961673E+03  0.73819604095E+02 0.  0.
         -6    2    1    2    0  502  0.18877640075E+02 -0.76075694173E+02  0.48851656598E+02  0.19843424984E+03  0.17562969743E+03 0.  0.
        -24    2    5    5    0    0 -0.14806263082E+02 -0.10922285513E+03  0.61511097975E+02  0.14928456961E+03  0.79708280875E+02 0.  0.
          5    1    3    3  501    0 -0.26891332302E+02  0.85040184632E+02 -0.68257427712E+02  0.11241060089E+03  0.47000000000E+01 0. -1.
        -13    1    4    4    0    0  0.25668324659E+02  0.22753888835E+02 -0.16062189263E+03  0.16424370533E+03  0.00000000000E+00 0.  1.
         14    1    4    4    0    0 -0.17654632432E+02 -0.31718379294E+02 -0.82765111795E+02  0.90375911402E+02  0.00000000000E+00 0. -1.
         -5    1    5    5    0  502  0.33683903157E+02  0.33147160953E+02 -0.12659441377E+02  0.49149680234E+02  0.47000000000E+01 0.  1.
         11    1    6    6    0    0 -0.11045659916E+02  0.10343076475E+02  0.13852860722E+02  0.20515544939E+02  0.00000000000E+00 0. -1.
        -12    1    6    6    0    0 -0.37606031661E+01 -0.11956593160E+03  0.47658237252E+02  0.12876902467E+03  0.00000000000E+00 0.  1.
</event>
<event>
12    1  0.8344842E-002  0.1880943E+03  0.7818608E-02  0.1160524E+00
         21   -1    0    0  501  502  0.00000000000E+00  0.00000000000E+00  0.11865055349E+03  0.11865055349E+03  0.00000000000E+00 0.  1.
         21   -1    0    0  502  503 -0.00000000000E+00 -0.00000000000E+00 -0.30199555639E+03  0.30199555639E+03  0.00000000000E+00 0.  1.
         -6    2    1    2    0  503  0.61287743554E+02  0.48265800544E+02 -0.12193585620E+03  0.22416024565E+03  0.17115398824E+03 0.  0.
        -24    2    3    3    0    0  0.43919926970E+02  0.90945926370E+02 -0.49397078890E+02  0.13809516326E+03  0.80187787127E+02 0.  0.
          6    2    1    2  501    0 -0.61287743554E+02 -0.48265800544E+02 -0.61409146699E+02  0.19648586423E+03  0.16955776754E+03 0.  0.
         24    2    5    5    0    0 -0.84335747875E+02  0.15039883171E+02 -0.54188811484E+02  0.12856647573E+03  0.79083468162E+02 0.  0.
          5    1    5    5  501    0  0.23048004320E+02 -0.63305683715E+02 -0.72203352146E+01  0.67919388501E+02  0.47000000000E+01 0. -1.
        -13    1    6    6    0    0 -0.83878342658E+02 -0.37595312926E+01 -0.65616980576E+02  0.10656124334E+03  0.00000000000E+00 0.  1.
         14    1    6    6    0    0 -0.45740521629E+00  0.18799414464E+02  0.11428169092E+02  0.22005232389E+02  0.00000000000E+00 0. -1.
         -5    1    3    3    0  503  0.17367816584E+02 -0.42680125826E+02 -0.72538777306E+02  0.86065082388E+02  0.47000000000E+01 0.  1.
         13    1    4    4    0    0  0.12944172465E+02  0.17328013351E+02  0.22083053722E+02  0.30910724824E+02  0.00000000000E+00 0. -1.
        -14    1    4    4    0    0  0.30975754505E+02  0.73617913019E+02 -0.71480132612E+02  0.10718443843E+03  0.00000000000E+00 0.  1.
</event>
<event>
12    1  0.8344842E-002  0.2611735E+03  0.7818608E-02  0.1106466E+00
         21   -1    0    0  501  502  0.00000000000E+00  0.00000000000E+00  0.69083187876E+03  0.69083187876E+03  0.00000000000E+00 0.  1.
         21   -1    0    0  502  503 -0.00000000000E+00 -0.00000000000E+00 -0.98673886473E+02  0.98673886473E+02  0.00000000000E+00 0. -1.
         -6    2    1    2    0  503 -0.17689089369E+03 -0.84227381711E+02  0.29597687517E+03  0.39461986480E+03  0.17244676558E+03 0.  0.
        -24    2    3    3    0    0 -0.62109173369E+02 -0.86464209971E+02  0.21972104298E+03  0.25671812927E+03  0.79330020445E+02 0.  0.
          6    2    1    2  501    0  0.17689089369E+03  0.84227381711E+02  0.29618111711E+03  0.39488590043E+03  0.17270489317E+03 0.  0.
         24    2    5    5    0    0  0.15888095339E+03  0.11837607999E+03  0.28226216224E+03  0.35357828795E+03  0.78036041779E+02 0.  0.
          5    1    5    5  501    0  0.18009940299E+02 -0.34148698279E+02  0.13918954871E+02  0.41307612476E+02  0.47000000000E+01 0. -1.
        -11    1    6    6    0    0  0.39878092779E+02  0.63912495963E+01  0.21255826959E+02  0.45639024254E+02  0.00000000000E+00 0.  1.
         12    1    6    6    0    0  0.11900286061E+03  0.11198483039E+03  0.26100633528E+03  0.30793926370E+03  0.00000000000E+00 0. -1.
         -5    1    3    3    0  503 -0.11478172032E+03  0.22368282597E+01  0.76255832192E+02  0.13790173553E+03  0.47000000000E+01 0.  1.
         11    1    4    4    0    0 -0.79382720971E+02 -0.54966031592E+02  0.16743294221E+03  0.19327873953E+03  0.00000000000E+00 0. -1.
        -12    1    4    4    0    0  0.17273547601E+02 -0.31498178379E+02  0.52288100770E+02  0.63439389736E+02  0.00000000000E+00 0.  1.
</event>
<event>
12    1  0.8344842E-002  0.2100224E+03  0.7818608E-02  0.1142293E+00
         21   -1    0    0  503  502  0.00000000000E+00  0.00000000000E+00  0.10661095963E+04  0.10661095963E+04  0.00000000000E+00 0.  1.
         21   -1    0    0  501  503 -0.00000000000E+00 -0.00000000000E+00 -0.45866344752E+02  0.45866344752E+02  0.00000000000E+00 0. -1.
          6    2    1    2  501    0 -0.54343168908E+02 -0.10733385704E+03  0.31845351571E+03  0.37943364112E+03  0.16758135181E+03 0.  0.
         24    2    3    3    0    0  0.99958873371E+01  0.18671623985E+01  0.12865842434E+03  0.15116046374E+03  0.78696198039E+02 0.  0.
         -6    2    1    2    0  502  0.54343168908E+02  0.10733385704E+03  0.70178973583E+03  0.73254229992E+03  0.17215008272E+03 0.  0.
        -24    2    5    5    0    0  0.65919474548E+02  0.45615693282E+02  0.22396483316E+03  0.25058600501E+03  0.78784077174E+02 0.  0.
          5    1    3    3  501    0 -0.64339056245E+02 -0.10920101944E+03  0.18979509137E+03  0.22827317738E+03  0.47000000000E+01 0. -1.
        -13    1    4    4    0    0  0.31964674707E+02 -0.15509216607E+02  0.24139452024E+02  0.42953339485E+02  0.00000000000E+00 0.  1.
         14    1    4    4    0    0 -0.21968787370E+02  0.17376379006E+02  0.10451897231E+03  0.10820712425E+03  0.00000000000E+00 0. -1.
         -5    1    5    5    0  502 -0.11576305641E+02  0.61718163757E+02  0.47782490267E+03  0.48195629491E+03  0.47000000000E+01 0.  1.
         11    1    6    6    0    0  0.81769962444E+02  0.38388013810E+02  0.20874987298E+03  0.22745653613E+03  0.00000000000E+00 0. -1.
        -12    1    6    6    0    0 -0.15850487896E+02  0.72276794728E+01  0.15214960182E+02  0.23129468875E+02  0.00000000000E+00 0.  1.
</event>
<event>
12    1  0.8344842E-002  0.1757770E+03  0.7818608E-02  0.1172129E+00
         21   -1    0    0  501  502  0.00000000000E+00  0.00000000000E+00  0.52647461743E+03  0.52647461743E+03  0.00000000000E+00 0. -1.
         21   -1    0    0  502  503 -0.00000000000E+00 -0.00000000000E+00 -0.17075324068E+03  0.17075324068E+03  0.00000000000E+00 0. -1.
         -6    2    1    2    0  503 -0.99086514406E+01  0.31945832811E+02 -0.10473257244E+03  0.20461298459E+03  0.17256547779E+03 0.  0.
        -24    2    3    3    0    0 -0.45774921482E+02  0.57882910027E+02 -0.22765306350E+02  0.11134003024E+03  0.80203294517E+02 0.  0.
          6    2    1    2  501    0  0.99086514406E+01 -0.31945832811E+02  0.46045394920E+03  0.49261487353E+03  0.17185126324E+03 0.  0.
         24    2    5    5    0    0 -0.19297469135E+02  0.45260086494E+02  0.18691281697E+03  0.20685169802E+03  0.73690949786E+02 0.  0.
          5    1    5    5  501    0  0.29206120576E+02 -0.77205919304E+02  0.27354113223E+03  0.28576317551E+03  0.47000000000E+01 0. -1.
        -11    1    6    6    0    0  0.22311565818E+02  0.35175437832E+02  0.12352841285E+03  0.13036251830E+03  0.00000000000E+00 0.  1.
         12    1    6    6    0    0 -0.41609034953E+02  0.10084648661E+02  0.63384404123E+02  0.76489179721E+02  0.00000000000E+00 0. -1.
         -5    1    3    3    0  503  0.35866270041E+02 -0.25937077216E+02 -0.81967266092E+02  0.93272954343E+02  0.47000000000E+01 0.  1.
         13    1    4    4    0    0 -0.38262568820E+02  0.87335977555E+01 -0.42497475830E+02  0.57847518135E+02  0.00000000000E+00 0. -1.
        -14    1    4    4    0    0 -0.75123526615E+01  0.49149312271E+02  0.19732169479E+02  0.53492512108E+02  0.00000000000E+00 0.  1.
</event>
<event>
12    1  0.8344842E-002  0.2397436E+03  0.7818608E-02  0.1120104E+00
         21   -1    0    0  503  502  0.00000000000E+00  0.00000000000E+00  0.22427343162E+03  0.22427343162E+03  0.00000000000E+00 0. -1.
         21   -1    0    0  501  503 -0.00000000000E+00 -0.00000000000E+00 -0.26792470841E+03  0.26792470841E+03  0.00000000000E+00 0.  1.
          6    2    1    2  501    0  0.30167868983E+02  0.16462435864E+03  0.31386967874E+02  0.24178945720E+03  0.17165581868E+03 0.  0.
         24    2    3    3    0    0 -0.42817112443E+02  0.87590288220E+02 -0.74154425040E+01  0.12870200180E+03  0.83689024193E+02 0.  0.
         -6    2    1    2    0  502 -0.30167868983E+02 -0.16462435864E+03 -0.75038244658E+02  0.25040868282E+03  0.17047724333E+03 0.  0.
        -24    2    5    5    0    0 -0.68891274206E+02 -0.65068028091E+02 -0.71961845670E+02  0.14343897078E+03  0.80102279390E+02 0.  0.
          5    1    3    3  501    0  0.72984981427E+02  0.77034070421E+02  0.38802410378E+02  0.11308745541E+03  0.47000000000E+01 0. -1.
        -11    1    4    4    0    0 -0.21106481020E+02  0.51183199093E+02 -0.45542326861E+02  0.71688959725E+02  0.00000000000E+00 0.  1.
         12    1    4    4    0    0 -0.21710631423E+02  0.36407089127E+02  0.38126884357E+02  0.57013042072E+02  0.00000000000E+00 0. -1.
         -5    1    5    5    0  502  0.38723405223E+02 -0.99556330551E+02 -0.30763989876E+01  0.10696971205E+03  0.47000000000E+01 0.  1.
         13    1    6    6    0    0 -0.65517803711E+02 -0.22466410210E+02 -0.12766230180E+02  0.70429388921E+02  0.00000000000E+00 0. -1.
        -14    1    6    6    0    0 -0.33734704954E+01 -0.42601617881E+02 -0.59195615491E+02  0.73009581855E+02  0.00000000000E+00 0.  1.
</event>
<event>
12    1  0.8344842E-002  0.2401809E+03  0.7818608E-02  0.1119964E+00
         21   -1    0    0  503  502  0.00000000000E+00  0.00000000000E+00  0.18938172174E+03  0.18938172174E+03  0.00000000000E+00 0. -1.
         21   -1    0    0  501  503 -0.00000000000E+00 -0.00000000000E+00 -0.62366920145E+03  0.62366920145E+03  0.00000000000E+00 0.  1.
          6    2    1    2  501    0  0.16123173535E+03 -0.40092577489E+02 -0.50930356583E+03  0.56309588918E+03  0.17344673820E+03 0.  0.
         24    2    3    3    0    0  0.14534214631E+03 -0.60273946949E+02 -0.50705292457E+03  0.53688669043E+03  0.79920972681E+02 0.  0.
         -6    2    1    2    0  502 -0.16123173535E+03  0.40092577489E+02  0.75016086122E+02  0.24995503400E+03  0.17101759731E+03 0.  0.
        -24    2    5    5    0    0 -0.17415586177E+02  0.37247542159E+02 -0.11908667820E+01  0.87103050099E+02  0.76777868777E+02 0.  0.
          5    1    3    3  501    0  0.15889589041E+02  0.20181369460E+02 -0.22506412657E+01  0.26209198753E+02  0.47000000000E+01 0. -1.
        -13    1    4    4    0    0  0.15243168376E+03 -0.66544151454E+02 -0.48885637768E+03  0.51637592925E+03  0.00000000000E+00 0.  1.
         14    1    4    4    0    0 -0.70895374473E+01  0.62702045052E+01 -0.18196546885E+02  0.20510761183E+02  0.00000000000E+00 0. -1.
         -5    1    5    5    0  502 -0.14381614918E+03  0.28450353300E+01  0.76206952904E+02  0.16285198390E+03  0.47000000000E+01 0.  1.
         13    1    6    6    0    0 -0.33098251638E+02  0.54431353812E+02 -0.29459443572E+01  0.63772604835E+02  0.00000000000E+00 0. -1.
        -14    1    6    6    0    0  0.15682665461E+02 -0.17183811653E+02  0.17550775752E+01  0.23330445263E+02  0.00000000000E+00 0.  1.
</event>
<event>
12    1  0.8344842E-002  0.1763447E+03  0.7818608E-02  0.1171400E+00
         21   -1    0    0  503  502  0.00000000000E+00  0.00000000000E+00  0.38019182825E+03  0.38019182825E+03  0.00000000000E+00 0.  1.
         21   -1    0    0  501  503 -0.00000000000E+00 -0.00000000000E+00 -0.11091533213E+03  0.11091533213E+03  0.00000000000E+00 0.  1.
          6    2    1    2  501    0 -0.11903659065E+02 -0.36562935205E+02  0.87545071043E+01  0.17651353377E+03  0.17205185520E+03 0.  0.
         24    2    3    3    0    0  0.13095801649E+01 -0.57638982408E+02 -0.50958492964E+02  0.11165582926E+03  0.80909139838E+02 0.  0.
         -6    2    1    2    0  502  0.11903659065E+02  0.36562935205E+02  0.26052198902E+03  0.31459362661E+03  0.17210141723E+03 0.  0.
        -24    2    5    5    0    0  0.63593433819E+02  0.42112848285E+02  0.11939100943E+03  0.16411878570E+03  0.82844105824E+02 0.  0.
          5    1    3    3  501    0 -0.13213239230E+02  0.21076047204E+02  0.59713000068E+02  0.64857704506E+02  0.47000000000E+01 0. -1.
        -11    1    4    4    0    0  0.14705704302E+02 -0.40192372692E+02  0.12423981415E+02  0.44565007302E+02  0.00000000000E+00 0.  1.
         12    1    4    4    0    0 -0.13396124138E+02 -0.17446609717E+02 -0.63382474380E+02  0.67090821958E+02  0.00000000000E+00 0. -1.
         -5    1    5    5    0  502 -0.51689774755E+02 -0.55499130802E+01  0.14113097958E+03  0.15047484091E+03  0.47000000000E+01 0.  1.
         11    1    6    6    0    0  0.29839052633E+02 -0.22733183390E+02  0.26584060706E+02  0.45976939575E+02  0.00000000000E+00 0. -1.
        -12    1    6    6    0    0  0.33754381187E+02  0.64846031675E+02  0.92806948725E+02  0.11814184612E+03  0.00000000000E+00 0.  1.
</event>
<event>
12    1  0.8344842E-002  0.1829248E+03  0.7818608E-02  0.1165018E+00
         21   -1    0    0  501  502  0.00000000000E+00  0.00000000000E+00  0.66145520330E+03  0.66145520330E+03  0.00000000000E+00 0. -1.
         21   -1    0    0  502  503 -0.00000000000E+00 -0.00000000000E+00 -0.13803243727E+03  0.13803243727E+03  0.00000000000E+00 0. -1.
         -6    2    1    2    0  503  0.44207346945E+02 -0.46305303820E+02 -0.56509894580E+02  0.19138948463E+03  0.17128367102E+03 0.  0.
        -24    2    3    3    0    0  0.20735250091E+02 -0.48093909264E+01 -0.98628450001E+02  0.12760145419E+03  0.78111965302E+02 0.  0.
          6    2    1    2  501    0 -0.44207346945E+02  0.46305303820E+02  0.57993266060E+03  0.60809815594E+03  0.17135637057E+03 0.  0.
         24    2    5    5    0    0 -0.34214104919E+02  0.64899122198E+02  0.19960105150E+03  0.22715220459E+03  0.79843867965E+02 0.  0.
          5    1    5    5  501    0 -0.99932420261E+01 -0.18593818378E+02  0.38033160910E+03  0.38094595135E+03  0.47000000000E+01 0. -1.
        -13    1    6    6    0    0 -0.20438006458E+02 -0.16254879556E+02  0.48843839369E+02  0.55386405025E+02  0.00000000000E+00 0.  1.
         14    1    6    6    0    0 -0.13776098461E+02  0.81154001755E+02  0.15075721214E+03  0.17176579957E+03  0.00000000000E+00 0. -1.
         -5    1    3    3    0  503  0.23472096854E+02 -0.41495912893E+02  0.42118555422E+02  0.63788030448E+02  0.47000000000E+01 0.  1.
         11    1    4    4    0    0 -0.22734832322E+02  0.11326833429E+02 -0.66511218541E+02  0.71196291673E+02  0.00000000000E+00 0. -1.
        -12    1    4    4    0    0  0.43470082413E+02 -0.16136224355E+02 -0.32117231460E+02  0.56405162513E+02  0.00000000000E+00 0.  1.
</event>
<event>
12    1  0.8344842E-002  0.1753064E+03  0.7818608E-02  0.1172601E+00
         21   -1    0    0  501  502  0.00000000000E+00  0.00000000000E+00  0.17129636862E+03  0.17129636862E+03  0.00000000000E+00 0. -1.
         21   -1    0    0  502  503 -0.00000000000E+00 -0.00000000000E+00 -0.23071934656E+03  0.23071934656E+03  0.00000000000E+00 0. -1.
         -6    2    1    2    0  503 -0.14125500945E+02  0.27793213049E+02 -0.12511758066E+03  0.21480428273E+03  0.17179778352E+03 0.  0.
        -24    2    3    3    0    0 -0.45902797085E+02 -0.64597249441E+00 -0.14749637652E+02  0.96390784060E+02  0.83463449366E+02 0.  0.
          6    2    1    2  501    0  0.14125500945E+02 -0.27793213049E+02  0.65694602718E+02  0.18721143246E+03  0.17251187538E+03 0.  0.
         24    2    5    5    0    0 -0.55065319865E+02 -0.95934658297E+01  0.74764936431E+02  0.11494137339E+03  0.67063399555E+02 0.  0.
          5    1    5    5  501    0  0.69190820810E+02 -0.18199747219E+02 -0.90703337132E+01  0.72270059062E+02  0.47000000000E+01 0. -1.
        -11    1    6    6    0    0 -0.20066101915E+02  0.22580165090E+02  0.51520305086E+01  0.30644016054E+02  0.00000000000E+00 0.  1.
         12    1    6    6    0    0 -0.34999217950E+02 -0.32173630920E+02  0.69612905923E+02  0.84297357341E+02  0.00000000000E+00 0. -1.
         -5    1    3    3    0  503  0.31777296140E+02  0.28439185543E+02 -0.11036794301E+03  0.11841349867E+03  0.47000000000E+01 0.  1.
         11    1    4    4    0    0 -0.50983761392E+02 -0.32799424989E+02 -0.19072929652E+02  0.63552520413E+02  0.00000000000E+00 0. -1.
        -12    1    4    4    0    0  0.50809643075E+01  0.32153452495E+02  0.43232919995E+01  0.32838263647E+02  0.00000000000E+00 0.  1.
</event>
<event>
12    1  0.8344842E-002  0.2183548E+03  0.7818608E-02  0.1135586E+00
         21   -1    0    0  503  502  0.00000000000E+00  0.00000000000E+00  0.52100076890E+02  0.52100076890E+02  0.00000000000E+00 0.  1.
         21   -1    0    0  501  503 -0.00000000000E+00 -0.00000000000E+00 -0.92212811477E+03  0.92212811477E+03  0.00000000000E+00 0.  1.
          6    2    1    2  501    0 -0.13159039246E+03  0.14560928714E+02 -0.36572190952E+03  0.42467976639E+03  0.17050611967E+03 0.  0.
         24    2    3    3    0    0 -0.52636155833E+02 -0.56214497899E+02 -0.18787036823E+03  0.21756580444E+03  0.78159895912E+02 0.  0.
         -6    2    1    2    0  502  0.13159039246E+03 -0.14560928714E+02 -0.50430612836E+03  0.54954842527E+03  0.17363970913E+03 0.  0.
        -24    2    5    5    0    0  0.27220028663E+02  0.47108035337E+02 -0.18136647134E+03  0.20457256229E+03  0.77434096890E+02 0.  0.
          5    1    3    3  501    0 -0.78954236624E+02  0.70775426613E+02 -0.17785154130E+03  0.20711396195E+03  0.47000000000E+01 0. -1.
        -13    1    4    4    0    0 -0.22258841217E+02 -0.25417542485E+02 -0.16540874985E+03  0.16882405636E+03  0.00000000000E+00 0.  1.
         14    1    4    4    0    0 -0.30377314616E+02 -0.30796955414E+02 -0.22461618379E+02  0.48741748084E+02  0.00000000000E+00 0. -1.
         -5    1    5    5    0  502  0.10437036379E+03 -0.61668964052E+02 -0.32293965702E+03  0.34497586299E+03  0.47000000000E+01 0.  1.
         13    1    6    6    0    0 -0.26959606934E+01  0.98442550088E+01 -0.14280101151E+03  0.14316531161E+03  0.00000000000E+00 0. -1.
        -14    1    6    6    0    0  0.29915989356E+02  0.37263780329E+02 -0.38565459825E+02  0.61407250672E+02  0.00000000000E+00 0.  1.
</event>
<event>
12    1  0.8344842E-002  0.2066156E+03  0.7818608E-02  0.1144540E+00
         21   -1    0    0  501  502  0.00000000000E+00  0.00000000000E+00  0.25907896364E+03  0.25907896364E+03  0.00000000000E+00 0. -1.
         21   -1    0    0  502  503 -0.00000000000E+00 -0.00000000000E+00 -0.21812107627E+03  0.21812107627E+03  0.00000000000E+00 0. -1.
         -6    2    1    2    0  503  0.65550061495E+02 -0.91096314003E+02 -0.98712537087E+02  0.22780508653E+03  0.17191754850E+03 0.  0.
        -24    2    3    3    0    0  0.62012162550E+02  0.60177153377E+01 -0.20902592826E+02  0.10322527737E+03  0.79604134941E+02 0.  0.
          6    2    1    2  501    0 -0.65550061495E+02  0.91096314003E+02  0.13967042446E+03  0.24939495338E+03  0.17347814363E+03 0.  0.
         24    2    5    5    0    0 -0.26664911255E+01  0.10034529159E+03  0.13458963644E+03  0.18545911511E+03  0.78768175170E+02 0.  0.
          5    1    5    5  501    0 -0.62883570370E+02 -0.92489775900E+01  0.50807880205E+01  0.63935838274E+02  0.47000000000E+01 0. -1.
        -13    1    6    6    0    0  0.24262767659E+02  0.19848911621E+01  0.37121758199E+02  0.44391965705E+02  0.00000000000E+00 0.  1.
         14    1    6    6    0    0 -0.26929258785E+02  0.98360400431E+02  0.97467878238E+02  0.14106714940E+03  0.00000000000E+00 0. -1.
         -5    1    3    3    0  503  0.35378989450E+01 -0.97114029341E+02 -0.77809944261E+02  0.12457980916E+03  0.47000000000E+01 0.  1.
         11    1    4    4    0    0  0.50883255453E+02  0.11572096823E+02 -0.49571407047E+02  0.71974603208E+02  0.00000000000E+00 0. -1.
        -12    1    4    4    0    0  0.11128907097E+02 -0.55543814848E+01  0.28668814221E+02  0.31250674164E+02  0.00000000000E+00 0.  1.
</event>
<event>
12    1  0.8344842E-002  0.2183730E+03  0.7818608E-02  0.1135423E+00
         21   -1    0    0  503  502  0.00000000000E+00  0.00000000000E+00  0.67011337830E+02  0.67011337830E+02  0.00000000000E+00 0. -1.
         21   -1    0    0  501  503 -0.00000000000E+00 -0.00000000000E+00 -0.77089603967E+03  0.77089603967E+03  0.00000000000E+00 0. -1.
          6    2    1    2  501    0 -0.32646939826E+01 -0.13038871402E+03 -0.47465894607E+03  0.52248241457E+03  0.17514246624E+03 0.  0.
         24    2    3    3    0    0  0.38604172972E+02 -0.42580731072E+02 -0.13407854423E+03  0.16825036632E+03  0.83831550829E+02 0.  0.
         -6    2    1    2    0  502  0.32646939826E+01  0.13038871402E+03 -0.22922575577E+03  0.31542496293E+03  0.17302192105E+03 0.  0.
        -24    2    5    5    0    0  0.35138683721E+02  0.14643527167E+03 -0.14471016038E+03  0.22356409478E+03  0.79761256725E+02 0.  0.
          5    1    3    3  501    0 -0.41868866955E+02 -0.87807982943E+02 -0.34058040184E+03  0.35423204825E+03  0.47000000000E+01 0. -1.
        -11    1    4    4    0    0  0.94803127205E+01 -0.50830797623E+02 -0.29827218963E+02  0.59693461178E+02  0.00000000000E+00 0.  1.
         12    1    4    4    0    0  0.29123860252E+02  0.82500665512E+01 -0.10425132527E+03  0.10855690514E+03  0.00000000000E+00 0. -1.
         -5    1    5    5    0  502 -0.31873989738E+02 -0.16046557651E+02 -0.84515595386E+02  0.91860868152E+02  0.47000000000E+01 0.  1.
         11    1    6    6    0    0  0.47372690415E+02  0.49300995802E+02 -0.84232153304E+02  0.10848878115E+03  0.00000000000E+00 0. -1.
        -12    1    6    6    0    0 -0.12234006695E+02  0.97134275864E+02 -0.60478007080E+02  0.11507531363E+03  0.00000000000E+00 0.  1.
</event>
<event>
12    1  0.8344842E-002  0.3086553E+03  0.7818608E-02  0.1081089E+00
         21   -1    0    0  503  502  0.00000000000E+00  0.00000000000E+00  0.34787887232E+03  0.34787887232E+03  0.00000000000E+00 0. -1.
         21   -1    0    0  501  503 -0.00000000000E+00 -0.00000000000E+00 -0.27315919734E+03  0.27315919734E+03  0.00000000000E+00 0.  1.
          6    2    1    2  501    0  0.64682654127E+02 -0.24723004603E+03  0.39734233281E+02  0.31120230959E+03  0.17309398255E+03 0.  0.
         24    2    3    3    0    0  0.72907136852E+02 -0.18160769082E+03  0.88933724063E+02  0.22863951220E+03  0.77910302883E+02 0.  0.
         -6    2    1    2    0  502 -0.64682654127E+02  0.24723004603E+03  0.34985441707E+02  0.30983576007E+03  0.17166151484E+03 0.  0.
        -24    2    5    5    0    0 -0.79417542081E+02  0.26210542132E+03  0.26257323548E+02  0.28666975567E+03  0.80521449966E+02 0.  0.
          5    1    3    3  501    0 -0.82244827245E+01 -0.65622355211E+02 -0.49199490782E+02  0.82562797389E+02  0.47000000000E+01 0. -1.
        -11    1    4    4    0    0  0.52719222480E+02 -0.59624000170E+02  0.61163734304E+01  0.79823228694E+02  0.00000000000E+00 0.  1.
         12    1    4    4    0    0  0.20187914372E+02 -0.12198369065E+03  0.82817350632E+02  0.14881628351E+03  0.00000000000E+00 0. -1.
         -5    1    5    5    0  502  0.14734887954E+02 -0.14875375283E+02  0.87281181595E+01  0.23166004391E+02  0.47000000000E+01 0.  1.
         11    1    6    6    0    0 -0.54280812935E+02  0.14037164778E+03  0.52931671702E+02  0.15953798301E+03  0.00000000000E+00 0. -1.
        -12    1    6    6    0    0 -0.25136729147E+02  0.12173377354E+03 -0.26674348154E+02  0.12713177267E+03  0.00000000000E+00 0.  1.
</event>
<event>
12    1  0.8344842E-002  0.2129470E+03  0.7818608E-02  0.1139407E+00
         21   -1    0    0  503  502  0.00000000000E+00  0.00000000000E+00  0.90047244767E+02  0.90047244767E+02  0.00000000000E+00 0.  1.
         21   -1    0    0  501  503 -0.00000000000E+00 -0.00000000000E+00 -0.51180506468E+03  0.51180506468E+03  0.00000000000E+00 0.  1.
          6    2    1    2  501    0 -0.77316787222E+02  0.98787343658E+02 -0.16902233745E+03  0.27187306484E+03  0.17207436756E+03 0.  0.
         24    2    3    3    0    0 -0.95661888192E+02  0.11494328538E+03 -0.17796554815E+03  0.24542257902E+03  0.78723251062E+02 0.  0.
         -6    2    1    2    0  502  0.77316787222E+02 -0.98787343658E+02 -0.25273548246E+03  0.32997924461E+03  0.17109720315E+03 0.  0.
        -24    2    5    5    0    0  0.32814541813E+02  0.91685507977E+01 -0.65095459009E+02  0.10892315807E+03  0.80411312034E+02 0.  0.
          5    1    3    3  501    0  0.18345100970E+02 -0.16155941721E+02  0.89432106964E+01  0.26450485819E+02  0.47000000000E+01 0. -1.
        -11    1    4    4    0    0 -0.83045838952E+02  0.11056298379E+03 -0.11150884300E+03  0.17763729005E+03  0.00000000000E+00 0.  1.
         12    1    4    4    0    0 -0.12616049240E+02  0.43803015938E+01 -0.66456705152E+02  0.67785288965E+02  0.00000000000E+00 0. -1.
         -5    1    5    5    0  502  0.44502245408E+02 -0.10795589446E+03 -0.18764002345E+03  0.22105608654E+03  0.47000000000E+01 0.  1.
         11    1    6    6    0    0 -0.17324001955E+02  0.20711604134E+02 -0.47333069403E+02  0.54493220208E+02  0.00000000000E+00 0. -1.
        -12    1    6    6    0    0  0.50138543768E+02 -0.11543053336E+02 -0.17762389606E+02  0.54429937866E+02  0.00000000000E+00 0.  1.
</event>
<event>
12    1  0.8344842E-002  0.1907724E+03  0.7818608E-02  0.1157897E+00
         21   -1    0    0  503  502  0.00000000000E+00  0.00000000000E+00  0.59759219253E+03  0.59759219253E+03  0.00000000000E+00 0. -1.
         21   -1    0    0  501  503 -0.00000000000E+00 -0.00000000000E+00 -0.15138886477E+03  0.15138886477E+03  0.00000000000E+00 0. -1.
          6    2    1    2  501    0 -0.70393052227E+02  0.39765876579E+02 -0.66584453002E+02  0.20205844353E+03  0.17279357187E+03 0.  0.
         24    2    3    3    0    0 -0.84123341710E+01  0.50256536556E+02  0.11328173293E+01  0.10954151503E+03  0.96961711042E+02 0.  0.
         -6    2    1    2    0  502  0.70393052227E+02 -0.39765876579E+02  0.51278778076E+03  0.54692261378E+03  0.17215263755E+03 0.  0.
        -24    2    5    5    0    0  0.47909952736E+02 -0.17305065779E+01  0.48666051504E+03  0.49537745738E+03  0.79132863948E+02 0.  0.
          5    1    3    3  501    0 -0.61980718056E+02 -0.10490659978E+02 -0.67717270331E+02  0.92516928498E+02  0.47000000000E+01 0. -1.
        -13    1    4    4    0    0 -0.41721236949E+02  0.59776414389E+02  0.10515136752E+02  0.73650861711E+02  0.00000000000E+00 0.  1.
         14    1    4    4    0    0  0.33308902778E+02 -0.95198778331E+01 -0.93823194232E+01  0.35890653324E+02  0.00000000000E+00 0. -1.
         -5    1    5    5    0  502  0.22483099491E+02 -0.38035370001E+02  0.26127265726E+02  0.51545156398E+02  0.47000000000E+01 0.  1.
         11    1    6    6    0    0  0.50770523405E+01  0.35439410900E+02  0.19169571819E+03  0.19501019634E+03  0.00000000000E+00 0. -1.
        -12    1    6    6    0    0  0.42832900396E+02 -0.37169917478E+02  0.29496479685E+03  0.30036726103E+03  0.00000000000E+00 0.  1.
</event>
<event>
12    1  0.8344842E-002  0.2091060E+03  0.7818608E-02  0.1142769E+00
         21   -1    0    0  501  502  0.00000000000E+00  0.00000000000E+00  0.12823481712E+03  0.12823481712E+03  0.00000000000E+00 0.  1.
         21   -1    0    0  502  503 -0.00000000000E+00 -0.00000000000E+00 -0.46161689894E+03  0.46161689894E+03  0.00000000000E+00 0. -1.
         -6    2    1    2    0  503  0.11451783842E+03 -0.28316229943E+02 -0.32065760070E+03  0.38281408807E+03  0.17265336646E+03 0.  0.
        -24    2    3    3    0    0  0.93091759818E+02  0.41847751630E+02 -0.21394736106E+03  0.25323312343E+03  0.89085528768E+02 0.  0.
          6    2    1    2  501    0 -0.11451783842E+03  0.28316229943E+02 -0.12724481115E+02  0.20703762799E+03  0.16966591522E+03 0.  0.
         24    2    5    5    0    0 -0.10082627746E+03 -0.53617890436E+01  0.52361439554E+02  0.13233866632E+03  0.67654380820E+02 0.  0.
          5    1    5    5  501    0 -0.13691560964E+02  0.33678018986E+02 -0.65085920669E+02  0.74698961665E+02  0.47000000000E+01 0. -1.
        -11    1    6    6    0    0 -0.71703046260E+02 -0.35166957723E+02  0.34988139401E+02  0.87190662672E+02  0.00000000000E+00 0.  1.
         12    1    6    6    0    0 -0.29123231195E+02  0.29805168679E+02  0.17373300153E+02  0.45148003649E+02  0.00000000000E+00 0. -1.
         -5    1    3    3    0  503  0.21426078602E+02 -0.70163981572E+02 -0.10671023964E+03  0.12958096465E+03  0.47000000000E+01 0.  1.
         13    1    4    4    0    0  0.78618372214E+02 -0.10010139409E+02 -0.10346633041E+03  0.13033162651E+03  0.00000000000E+00 0. -1.
        -14    1    4    4    0    0  0.14473387603E+02  0.51857891039E+02 -0.11048103065E+03  0.12290149692E+03  0.00000000000E+00 0.  1.
</event>
<event>
12    1  0.8344842E-002  0.2076125E+03  0.7818608E-02  0.1143741E+00
         21   -1    0    0  503  502  0.00000000000E+00  0.00000000000E+00  0.25235498500E+03  0.25235498500E+03  0.00000000000E+00 0.  1.
         21   -1    0    0  501  503 -0.00000000000E+00 -0.00000000000E+00 -0.21917661586E+03  0.21917661586E+03  0.00000000000E+00 0. -1.
          6    2    1    2  501    0 -0.31024021680E+02  0.10522961130E+03 -0.95382378245E+02  0.22847483959E+03  0.17625888128E+03 0.  0.
         24    2    3    3    0    0 -0.49454817349E+02  0.19815479822E+02  0.42357684488E+01  0.95880973835E+02  0.79603939661E+02 0.  0.
         -6    2    1    2    0  502  0.31024021680E+02 -0.10522961130E+03  0.12856074739E+03  0.24305676128E+03  0.17467959932E+03 0.  0.
        -24    2    5    5    0    0  0.67685056753E+02 -0.49736480786E+02  0.17713089709E+02  0.11370138938E+03  0.74560498728E+02 0.  0.
          5    1    3    3  501    0  0.18430795669E+02  0.85414131474E+02 -0.99618146694E+02  0.13259386575E+03  0.47000000000E+01 0. -1.
        -11    1    4    4    0    0 -0.68184291970E+02  0.29752688536E+02  0.58144679429E+01  0.74619891343E+02  0.00000000000E+00 0.  1.
         12    1    4    4    0    0  0.18729474621E+02 -0.99372087139E+01 -0.15786994941E+01  0.21261082492E+02  0.00000000000E+00 0. -1.
         -5    1    5    5    0  502 -0.36661035074E+02 -0.55493130510E+02  0.11084765768E+03  0.12935537190E+03  0.47000000000E+01 0.  1.
         13    1    6    6    0    0  0.62206597112E+02 -0.15012023746E+01  0.19241961365E+02  0.65131923126E+02  0.00000000000E+00 0. -1.
        -14    1    6    6    0    0  0.54784596409E+01 -0.48235278411E+02 -0.15288716555E+01  0.48569466252E+02  0.00000000000E+00 0.  1.
</event>
<event>
12    1  0.8344842E-002  0.2181862E+03  0.7818608E-02  0.1136940E+00
         21   -1    0    0  503  502  0.00000000000E+00  0.00000000000E+00  0.95162155892E+02  0.95162155892E+02  0.00000000000E+00 0. -1.
         21   -1    0    0  501  503 -0.00000000000E+00 -0.00000000000E+00 -0.59178020885E+03  0.59178020885E+03  0.00000000000E+00 0.  1.
          6    2    1    2  501    0  0.51000500997E+02  0.12436037081E+03 -0.40154221343E+03  0.45699167158E+03  0.17186822217E+03 0.  0.
         24    2    3    3    0    0  0.99066902999E+02  0.93717280238E+02 -0.32360786724E+03  0.36032094014E+03  0.80696643513E+02 0.  0.
         -6    2    1    2    0  502 -0.51000500997E+02 -0.12436037081E+03 -0.95075839524E+02  0.22995069317E+03  0.16053458536E+03 0.  0.
        -24    2    5    5    0    0 -0.84098919375E+02 -0.12802006688E+03 -0.92672309157E+02  0.19623473800E+03  0.80362614134E+02 0.  0.
          5    1    3    3  501    0 -0.48066402002E+02  0.30643090572E+02 -0.77934346192E+02  0.96670731442E+02  0.47000000000E+01 0. -1.
        -11    1    4    4    0    0  0.12625044598E+02  0.56753210620E+02 -0.77624083009E+02  0.96983591034E+02  0.00000000000E+00 0.  1.
         12    1    4    4    0    0  0.86441858401E+02  0.36964069618E+02 -0.24598378423E+03  0.26333734910E+03  0.00000000000E+00 0. -1.
         -5    1    5    5    0  502  0.33098418378E+02  0.36596960676E+01 -0.24035303671E+01  0.33715955164E+02  0.47000000000E+01 0.  1.
         11    1    6    6    0    0 -0.85736243358E+02 -0.64086666054E+02 -0.72076545343E+02  0.12904585456E+03  0.00000000000E+00 0. -1.
        -12    1    6    6    0    0  0.16373239834E+01 -0.63933400823E+02 -0.20595763814E+02  0.67188883439E+02  0.00000000000E+00 0.  1.
</event>
<event>
12    1  0.8344842E-002  0.1938172E+03  0.7818608E-02  0.1155070E+00
         21   -1    0    0  503  502  0.00000000000E+00  0.00000000000E+00  0.12698719074E+03  0.12698719074E+03  0.00000000000E+00 0.  1.
         21   -1    0    0  501  503 -0.00000000000E+00 -0.00000000000E+00 -0.36493594136E+03  0.36493594136E+03  0.00000000000E+00 0.  1.
          6    2    1    2  501    0 -0.58182614860E+02 -0.65561806861E+02 -0.22604563367E+03  0.29774077834E+03  0.17282758865E+03 0.  0.
         24    2    3    3    0    0 -0.10226307982E+03 -0.23892008971E+02 -0.13694414449E+03  0.18984905103E+03  0.79122676148E+02 0.  0.
         -6    2    1    2    0  502  0.58182614860E+02  0.65561806861E+02 -0.11903116953E+02  0.19418235375E+03  0.17286276385E+03 0.  0.
        -24    2    5    5    0    0  0.23295321450E+02  0.47421628156E+02  0.65845757439E+02  0.10692889082E+03  0.65625003625E+02 0.  0.
          5    1    3    3  501    0  0.44080464965E+02 -0.41669797890E+02 -0.89101489181E+02  0.10789172731E+03  0.47000000000E+01 0. -1.
        -11    1    4    4    0    0 -0.48039979107E+02 -0.47117523260E+02 -0.99027073678E+02  0.11972577798E+03  0.00000000000E+00 0.  1.
         12    1    4    4    0    0 -0.54223100717E+02  0.23225514289E+02 -0.37917070809E+02  0.70123273056E+02  0.00000000000E+00 0. -1.
         -5    1    5    5    0  502  0.34887293410E+02  0.18140178704E+02 -0.77748874391E+02  0.87253462934E+02  0.47000000000E+01 0.  1.
         11    1    6    6    0    0 -0.13463691662E+02 -0.50456753463E+01 -0.90965572962E+00  0.14406849288E+02  0.00000000000E+00 0. -1.
        -12    1    6    6    0    0  0.36759013112E+02  0.52467303503E+02  0.66755413168E+02  0.92522041531E+02  0.00000000000E+00 0.  1.
</event>
<event>
12    1  0.8344842E-002  0.2100901E+03  0.7818608E-02  0.1141601E+00
         21   -1    0    0  503  502  0.00000000000E+00  0.00000000000E+00  0.15576075184E+03  0.15576075184E+03  0.00000000000E+00 0.  1.
         21   -1    0    0  501  503 -0.00000000000E+00 -0.00000000000E+00 -0.30517358720E+03  0.30517358720E+03  0.00000000000E+00 0.  1.
          6    2    1    2  501    0  0.81432455245E+02  0.86861569774E+02 -0.13740941790E+03  0.25103620720E+03  0.17309434459E+03 0.  0.
         24    2    3    3    0    0  0.79858762636E+02 -0.83697197073E+00 -0.39876469122E+02  0.11977967658E+03  0.79868114046E+02 0.  0.
         -6    2    1    2    0  502 -0.81432455245E+02 -0.86861569774E+02 -0.12003417461E+02  0.20989813184E+03  0.17244409717E+03 0.  0.
        -24    2    5    5    0    0 -0.56726452170E+02 -0.12394910370E+03  0.13351498301E+02  0.15841188597E+03  0.79591409252E+02 0.  0.
          5    1    3    3  501    0  0.15736926091E+01  0.87698541745E+02 -0.97532948779E+02  0.13125653062E+03  0.47000000000E+01 0. -1.
        -13    1    4    4    0    0  0.76152969085E+02  0.24047851867E+02 -0.96317188825E+01  0.80438447825E+02  0.00000000000E+00 0.  1.
         14    1    4    4    0    0  0.37057935510E+01 -0.24884823838E+02 -0.30244750239E+02  0.39341228760E+02  0.00000000000E+00 0. -1.
         -5    1    5    5    0  502 -0.24706003076E+02  0.37087533924E+02 -0.25354915763E+02  0.51486245871E+02  0.47000000000E+01 0.  1.
         13    1    6    6    0    0  0.25787771359E+01  0.53688955035E+01 -0.12469935520E+02  0.13819349562E+02  0.00000000000E+00 0. -1.
        -14    1    6    6    0    0 -0.59305229306E+02 -0.12931799920E+03  0.25821433822E+02  0.14459253641E+03  0.00000000000E+00 0.  1.
</event>
<event>
12    1  0.8344842E-002  0.2959405E+03  0.7818608E-02  0.1087302E+00
         21   -1    0    0  501  502  0.00000000000E+00  0.00000000000E+00  0.21683159412E+03  0.21683159412E+03  0.00000000000E+00 0.  1.
         21   -1    0    0  502  503 -0.00000000000E+00 -0.00000000000E+00 -0.54130621414E+03  0.54130621414E+03  0.00000000000E+00 0.  1.
         -6    2    1    2    0  503  0.18293577966E+03 -0.15532691441E+03 -0.35334394843E+03  0.46090423678E+03  0.17317280323E+03 0.  0.
        -24    2    3    3    0    0  0.16823383055E+03 -0.14494033716E+03 -0.20766995202E+03  0.31404705608E+03  0.78666520094E+02 0.  0.
          6    2    1    2  501    0 -0.18293577966E+03  0.15532691441E+03  0.28869328408E+02  0.29723357148E+03  0.17298094714E+03 0.  0.
         24    2    5    5    0    0 -0.17997553325E+03  0.18126016097E+03  0.35683121545E+02  0.26985083763E+03  0.79370970030E+02 0.  0.
          5    1    5    5  501    0 -0.29602464029E+01 -0.25933246562E+02 -0.68137931369E+01  0.27382733847E+02  0.47000000000E+01 0. -1.
        -11    1    6    6    0    0 -0.41002935073E+02  0.58775704764E+01  0.18673362508E+02  0.45436560022E+02  0.00000000000E+00 0.  1.
         12    1    6    6    0    0 -0.13897259818E+03  0.17538259049E+03  0.17009759037E+02  0.22441427761E+03  0.00000000000E+00 0. -1.
         -5    1    3    3    0  503  0.14701949109E+02 -0.10386577248E+02 -0.14567399641E+03  0.14685718071E+03  0.47000000000E+01 0.  1.
         11    1    4    4    0    0  0.59968132796E+02 -0.21030743968E+02 -0.25252887579E+02  0.68382581656E+02  0.00000000000E+00 0. -1.
        -12    1    4    4    0    0  0.10826569775E+03 -0.12390959319E+03 -0.18241706444E+03  0.24566447442E+03  0.00000000000E+00 0.  1.
</event>
<event>
12    1  0.8344842E-002  0.2351643E+03  0.7818608E-02  0.1123079E+00
         21   -1    0    0  501  502  0.00000000000E+00  0.00000000000E+00  0.62282575821E+03  0.62282575821E+03  0.00000000000E+00 0.  1.
         21   -1    0    0  502  503 -0.00000000000E+00 -0.00000000000E+00 -0.11094926879E+03  0.11094926879E+03  0.00000000000E+00 0.  1.
         -6    2    1    2    0  503  0.14486829157E+03 -0.68697575267E+02  0.42013186400E+03  0.48146966007E+03  0.17203508848E+03 0.  0.
        -24    2    3    3    0    0  0.29783763242E+02 -0.75169250793E+02  0.15686332260E+03  0.19403489158E+03  0.80659459185E+02 0.  0.
          6    2    1    2  501    0 -0.14486829157E+03  0.68697575267E+02  0.91744625423E+02  0.25230536693E+03  0.17185675179E+03 0.  0.
         24    2    5    5    0    0 -0.14082056378E+03  0.91565769648E+01  0.71350017793E+02  0.18906341408E+03  0.10363337021E+03 0.  0.
          5    1    5    5  501    0 -0.40477277927E+01  0.59540998302E+02  0.20394607630E+02  0.63241952843E+02  0.47000000000E+01 0. -1.
        -11    1    6    6    0    0 -0.40288173600E+02  0.39039268826E+02 -0.91633577781E+01  0.56843368727E+02  0.00000000000E+00 0.  1.
         12    1    6    6    0    0 -0.10053239018E+03 -0.29882691861E+02  0.80513375572E+02  0.13222004536E+03  0.00000000000E+00 0. -1.
         -5    1    3    3    0  503  0.11508452833E+03  0.64716755264E+01  0.26326854140E+03  0.28743476849E+03  0.47000000000E+01 0.  1.
         13    1    4    4    0    0 -0.10662082155E+02 -0.66735960782E+02  0.12408589591E+03  0.14129641899E+03  0.00000000000E+00 0. -1.
        -14    1    4    4    0    0  0.40445845397E+02 -0.84332900112E+01  0.32777426694E+02  0.52738472588E+02  0.00000000000E+00 0.  1.
</event>
<event>
12    1  0.8344842E-002  0.3445344E+03  0.7818608E-02  0.1064973E+00
         21   -1    0    0  501  502  0.00000000000E+00  0.00000000000E+00  0.97550450459E+03  0.97550450459E+03  0.00000000000E+00 0. -1.
         21   -1    0    0  502  503 -0.00000000000E+00 -0.00000000000E+00 -0.18037645243E+03  0.18037645243E+03  0.00000000000E+00 0.  1.
         -6    2    1    2    0  503  0.26210300123E+03  0.14105997428E+03  0.66681921537E+02  0.35006601139E+03  0.17176680142E+03 0.  0.
        -24    2    3    3    0    0  0.11440549782E+03  0.66013360070E+02  0.95775292021E+02  0.18179521468E+03  0.80188601927E+02 0.  0.
          6    2    1    2  501    0 -0.26210300123E+03 -0.14105997428E+03  0.72844613062E+03  0.80581494563E+03  0.17351674787E+03 0.  0.
         24    2    5    5    0    0 -0.60966275438E+02 -0.85605264002E+02  0.22621816818E+03  0.26195262517E+03  0.79996064008E+02 0.  0.
          5    1    5    5  501    0 -0.20113672579E+03 -0.55454710279E+02  0.50222796244E+03  0.54386232046E+03  0.47000000000E+01 0. -1.
        -11    1    6    6    0    0 -0.56193951373E+02 -0.95291124588E+02  0.15796092353E+03  0.19284660214E+03  0.00000000000E+00 0.  1.
         12    1    6    6    0    0 -0.47723240649E+01  0.96858605857E+01  0.68257244646E+02  0.69106023029E+02  0.00000000000E+00 0. -1.
         -5    1    3    3    0  503  0.14769750341E+03  0.75046614211E+02 -0.29093370484E+02  0.16827079671E+03  0.47000000000E+01 0.  1.
         13    1    4    4    0    0  0.53156132996E+02  0.90729308710E-01  0.40648091313E+01  0.53311400096E+02  0.00000000000E+00 0. -1.
        -14    1    4    4    0    0  0.61249364826E+02  0.65922630762E+02  0.91710482890E+02  0.12848381458E+03  0.00000000000E+00 0.  1.
</event>
<event>
12    1  0.8344842E-002  0.1867904E+03  0.7818608E-02  0.1161843E+00
         21   -1    0    0  501  502  0.00000000000E+00  0.00000000000E+00  0.27992107422E+03  0.27992107422E+03  0.00000000000E+00 0. -1.
         21   -1    0    0  502  503 -0.00000000000E+00 -0.00000000000E+00 -0.13464477395E+03  0.13464477395E+03  0.00000000000E+00 0. -1.
         -6    2    1    2    0  503  0.20150319960E+02 -0.76152595491E+02  0.12222187290E+02  0.18523195256E+03  0.16720119974E+03 0.  0.
        -24    2    3    3    0    0  0.66633931996E+02 -0.24655075326E+02  0.34438424213E+02  0.11223625437E+03  0.79768528262E+02 0.  0.
          6    2    1    2  501    0 -0.20150319960E+02  0.76152595491E+02  0.13305411298E+03  0.22933389561E+03  0.16936760464E+03 0.  0.
         24    2    5    5    0    0  0.22293211899E+02  0.25035535732E+01  0.11536491219E+03  0.14238199743E+03  0.80376085687E+02 0.  0.
          5    1    5    5  501    0 -0.42443531860E+02  0.73649041918E+02  0.17689200784E+02  0.86951898177E+02  0.47000000000E+01 0. -1.
        -11    1    6    6    0    0  0.52133199052E+01 -0.59821231445E+01 -0.11566002823E+02  0.14026293989E+02  0.00000000000E+00 0.  1.
         12    1    6    6    0    0  0.17079891994E+02  0.84856767177E+01  0.12693091501E+03  0.12835570344E+03  0.00000000000E+00 0. -1.
         -5    1    3    3    0  503 -0.46483612036E+02 -0.51497520166E+02 -0.22216236923E+02  0.72995698189E+02  0.47000000000E+01 0.  1.
         11    1    4    4    0    0  0.35335775484E+02 -0.26803557211E+02 -0.20586575763E+02  0.48896368064E+02  0.00000000000E+00 0. -1.
        -12    1    4    4    0    0  0.31298156512E+02  0.21484818852E+01  0.55024999976E+02  0.63339886310E+02  0.00000000000E+00 0.  1.
</event>
<event>
12    1  0.8344842E-002  0.2567567E+03  0.7818608E-02  0.1109211E+00
         21   -1    0    0  503  502  0.00000000000E+00  0.00000000000E+00  0.23871994719E+02  0.23871994719E+02  0.00000000000E+00 0.  1.
         21   -1    0    0  501  503 -0.00000000000E+00 -0.00000000000E+00 -0.36965706364E+04  0.36965706364E+04  0.00000000000E+00 0.  1.
          6    2    1    2  501    0  0.17707375107E+03  0.72038003050E+02 -0.27773325927E+04  0.27891755676E+04  0.17140428662E+03 0.  0.
         24    2    3    3    0    0  0.73984161504E+02  0.99185792354E+02 -0.18161118597E+04  0.18220500053E+04  0.79325008856E+02 0.  0.
         -6    2    1    2    0  502 -0.17707375107E+03 -0.72038003050E+02 -0.89536604900E+03  0.93126706349E+03  0.17039188550E+03 0.  0.
        -24    2    5    5    0    0 -0.65385514732E+02 -0.51211993323E+02 -0.24734830504E+03  0.27334832132E+03  0.81487342361E+02 0.  0.
          5    1    3    3  501    0  0.10308958956E+03 -0.27147789304E+02 -0.96122073296E+03  0.96712556238E+03  0.47000000000E+01 0. -1.
        -11    1    4    4    0    0  0.70462058751E+02  0.73307869401E+02 -0.92794662965E+03  0.93350087997E+03  0.00000000000E+00 0.  1.
         12    1    4    4    0    0  0.35221027529E+01  0.25877922953E+02 -0.88816523009E+03  0.88854912528E+03  0.00000000000E+00 0. -1.
         -5    1    5    5    0  502 -0.11168823634E+03 -0.20826009727E+02 -0.64801774396E+03  0.65791874217E+03  0.47000000000E+01 0.  1.
         11    1    6    6    0    0  0.16947849292E+02  0.29102356182E+01 -0.47834081110E+02  0.50831076937E+02  0.00000000000E+00 0. -1.
        -12    1    6    6    0    0 -0.82333364024E+02 -0.54122228941E+02 -0.19951422393E+03  0.22251724438E+03  0.00000000000E+00 0.  1.
</event>
<event>
12    1  0.8344842E-002  0.1762104E+03  0.7818608E-02  0.1172217E+00
         21   -1    0    0  501  502  0.00000000000E+00  0.00000000000E+00  0.50523414647E+02  0.50523414647E+02  0.00000000000E+00 0. -1.
         21   -1    0    0  502  503 -0.00000000000E+00 -0.00000000000E+00 -0.60543031558E+03  0.60543031558E+03  0.00000000000E+00 0. -1.
         -6    2    1    2    0  503 -0.11120671242E+02  0.40000754222E+02 -0.26594099866E+03  0.31749930237E+03  0.16839674155E+03 0.  0.
        -24    2    3    3    0    0  0.56079734888E+02  0.32834922618E+02 -0.16335905696E+03  0.19456684738E+03  0.83348712031E+02 0.  0.
          6    2    1    2  501    0  0.11120671242E+02 -0.40000754222E+02 -0.28896590226E+03  0.33845442786E+03  0.17124945956E+03 0.  0.
         24    2    5    5    0    0  0.38799809667E+02  0.66150361153E+01 -0.26502371489E+03  0.27900289340E+03  0.77819413644E+02 0.  0.
          5    1    5    5  501    0 -0.27679138425E+02 -0.46615790338E+02 -0.23942187372E+02  0.59451534454E+02  0.47000000000E+01 0. -1.
        -11    1    6    6    0    0  0.24619129179E+02 -0.35094062968E+02 -0.11945374824E+03  0.12691293373E+03  0.00000000000E+00 0.  1.
         12    1    6    6    0    0  0.14180680488E+02  0.41709099083E+02 -0.14556996665E+03  0.15208995968E+03  0.00000000000E+00 0. -1.
         -5    1    3    3    0  503 -0.67200406130E+02  0.71658316039E+01 -0.10258194170E+03  0.12293245499E+03  0.47000000000E+01 0.  1.
         11    1    4    4    0    0  0.50839696865E+02 -0.13173313597E+02 -0.51740987466E+02  0.73724763495E+02  0.00000000000E+00 0. -1.
        -12    1    4    4    0    0  0.52400380230E+01  0.46008236215E+02 -0.11161806950E+03  0.12084208388E+03  0.00000000000E+00 0.  1.
</event>
<event>
12    1  0.8344842E-002  0.2142848E+03  0.7818608E-02  0.1138650E+00
         21   -1    0    0  501  502  0.00000000000E+00  0.00000000000E+00  0.13051781627E+04  0.13051781627E+04  0.00000000000E+00 0.  1.
         21   -1    0    0  502  503 -0.00000000000E+00 -0.00000000000E+00 -0.10153321358E+03  0.10153321358E+03  0.00000000000E+00 0.  1.
         -6    2    1    2    0  503 -0.80025506867E+02  0.96329171170E+02  0.32754547824E+02  0.21677373318E+03  0.17388099386E+03 0.  0.
        -24    2    3    3    0    0  0.87813574889E+01  0.61623465123E+02  0.59259721261E+02  0.11769921876E+03  0.80416589325E+02 0.  0.
          6    2    1    2  501    0  0.80025506867E+02 -0.96329171170E+02  0.11708904013E+04  0.11899376431E+04  0.17112530981E+03 0.  0.
         24    2    5    5    0    0  0.62111905116E+02  0.58879241179E+01  0.45839921658E+03  0.46991333102E+03  0.82438707523E+02 0.  0.
          5    1    5    5  501    0  0.17913601751E+02 -0.10221709529E+03  0.71249118473E+03  0.72002431210E+03  0.47000000000E+01 0. -1.
        -13    1    6    6    0    0  0.34332214057E+01 -0.32721530954E+02  0.13158704998E+03  0.13563789043E+03  0.00000000000E+00 0.  1.
         14    1    6    6    0    0  0.58678683710E+02  0.38609455072E+02  0.32681216661E+03  0.33427544060E+03  0.00000000000E+00 0. -1.
         -5    1    3    3    0  503 -0.88806864356E+02  0.34705706047E+02 -0.26505173437E+02  0.99074514422E+02  0.47000000000E+01 0.  1.
         13    1    4    4    0    0  0.90939409499E+01  0.81321432635E+02  0.45058942139E+02  0.93414043027E+02  0.00000000000E+00 0. -1.
        -14    1    4    4    0    0 -0.31258346094E+00 -0.19697967512E+02  0.14200779121E+02  0.24285175729E+02  0.00000000000E+00 0.  1.
</event>
<event>
12    1  0.8344842E-002  0.2189939E+03  0.7818608E-02  0.1134649E+00
         21   -1    0    0  503  502  0.00000000000E+00  0.00000000000E+00  0.11262004769E+03  0.11262004769E+03  0.00000000000E+00 0.  1.
         21   -1    0    0  501  503 -0.00000000000E+00 -0.00000000000E+00 -0.57903939873E+03  0.57903939873E+03  0.00000000000E+00 0. -1.
          6    2    1    2  501    0  0.97870107814E+02 -0.94590421215E+02 -0.41114789131E+03  0.46579832026E+03  0.17146305970E+03 0.  0.
         24    2    3    3    0    0  0.49773736033E+01 -0.97179316506E+02 -0.29770475526E+03  0.31907682366E+03  0.60936887751E+02 0.  0.
         -6    2    1    2    0  502 -0.97870107814E+02  0.94590421215E+02 -0.55271459724E+02  0.22586112615E+03  0.17155876037E+03 0.  0.
        -24    2    5    5    0    0 -0.76773097955E+02  0.12441258257E+03 -0.87073214689E+01  0.16649148657E+03  0.79189635557E+02 0.  0.
          5    1    3    3  501    0  0.92892734210E+02  0.25888952905E+01 -0.11344313605E+03  0.14672149660E+03  0.47000000000E+01 0. -1.
        -11    1    4    4    0    0 -0.25421105481E+02 -0.33462049976E+02 -0.82463052732E+02  0.92553208796E+02  0.00000000000E+00 0.  1.
         12    1    4    4    0    0  0.30398479084E+02 -0.63717266530E+02 -0.21524170253E+03  0.22652361487E+03  0.00000000000E+00 0. -1.
         -5    1    5    5    0  502 -0.21097009858E+02 -0.29822161359E+02 -0.46564138255E+02  0.59369639586E+02  0.47000000000E+01 0.  1.
         11    1    6    6    0    0 -0.25888323698E+02  0.72835718353E+02 -0.40619016692E+02  0.87322114547E+02  0.00000000000E+00 0. -1.
        -12    1    6    6    0    0 -0.50884774257E+02  0.51576864222E+02  0.31911695223E+02  0.79169372020E+02  0.00000000000E+00 0.  1.
</event>
<event>
12    1  0.8344842E-002  0.2082920E+03  0.7818608E-02  0.1143195E+00
         21   -1    0    0  501  502  0.00000000000E+00  0.00000000000E+00  0.33330183627E+03  0.33330183627E+03  0.00000000000E+00 0. -1.
         21   -1    0    0  502  503 -0.00000000000E+00 -0.00000000000E+00 -0.14859596306E+03  0.14859596306E+03  0.00000000000E+00 0. -1.
         -6    2    1    2    0  503  0.11550327194E+03  0.24082051280E+02  0.53366960234E+01  0.20701807034E+03  0.17002073432E+03 0.  0.
        -24    2    3    3    0    0  0.91678860455E+02 -0.30579895874E+02 -0.41101555001E+02  0.13129401731E+03  0.78794908915E+02 0.  0.
          6    2    1    2  501    0 -0.11550327194E+03 -0.24082051280E+02  0.17936917719E+03  0.27487972900E+03  0.17165259294E+03 0.  0.
         24    2    5    5    0    0 -0.16672928779E+02  0.21181259069E+02  0.13060419806E+03  0.15564753040E+03  0.80262474903E+02 0.  0.
          5    1    5    5  501    0 -0.98830343162E+02 -0.45263310349E+02  0.48764979128E+02  0.11923219860E+03  0.47000000000E+01 0. -1.
        -13    1    6    6    0    0 -0.10234519366E+02 -0.11405478986E+02  0.11971457025E+03  0.12069137777E+03  0.00000000000E+00 0.  1.
         14    1    6    6    0    0 -0.64384094135E+01  0.32586738055E+02  0.10889627815E+02  0.34956152632E+02  0.00000000000E+00 0. -1.
         -5    1    3    3    0  503  0.23824411486E+02  0.54661947153E+02  0.46438251025E+02  0.75724053032E+02  0.47000000000E+01 0.  1.
         13    1    4    4    0    0  0.79039711059E+02 -0.11311034720E+02  0.47407862314E+01  0.79985564227E+02  0.00000000000E+00 0. -1.
        -14    1    4    4    0    0  0.12639149396E+02 -0.19268861154E+02 -0.45842341233E+02  0.51308453079E+02  0.00000000000E+00 0.  1.
</event>
<event>
12    1  0.8344842E-002  0.2322723E+03  0.7818608E-02  0.1125121E+00
         21   -1    0    0  503  502  0.00000000000E+00  0.00000000000E+00  0.50334535579E+02  0.50334535579E+02  0.00000000000E+00 0. -1.
         21   -1    0    0  501  503 -0.00000000000E+00 -0.00000000000E+00 -0.12451514320E+04  0.12451514320E+04  0.00000000000E+00 0.  1.
          6    2    1    2  501    0 -0.13704992653E+03 -0.71649596426E+02 -0.83991680080E+03  0.87133443950E+03  0.17276320836E+03 0.  0.
         24    2    3    3    0    0 -0.11239468129E+03 -0.11430277611E+03 -0.70985399294E+03  0.73217410448E+03  0.80551467831E+02 0.  0.
         -6    2    1    2    0  502  0.13704992653E+03  0.71649596426E+02 -0.35490009566E+03  0.42415152812E+03  0.17330347334E+03 0.  0.
        -24    2    5    5    0    0  0.28345374723E+02  0.42328823480E+02 -0.26107129459E+03  0.27751483005E+03  0.79126926336E+02 0.  0.
          5    1    3    3  501    0 -0.24655245241E+02  0.42653179681E+02 -0.13006280786E+03  0.13916033502E+03  0.47000000000E+01 0. -1.
        -11    1    4    4    0    0 -0.76319297868E+02 -0.50217241377E+02 -0.53081641207E+03  0.53862089625E+03  0.00000000000E+00 0.  1.
         12    1    4    4    0    0 -0.36075383425E+02 -0.64085534729E+02 -0.17903758087E+03  0.19355320822E+03  0.00000000000E+00 0. -1.
         -5    1    5    5    0  502  0.10870455181E+03  0.29320772946E+02 -0.93828801068E+02  0.14663669807E+03  0.47000000000E+01 0.  1.
         13    1    6    6    0    0 -0.14689656096E+02  0.54976486374E+01 -0.69473868572E+01  0.17154483989E+02  0.00000000000E+00 0. -1.
        -14    1    6    6    0    0  0.43035030820E+02  0.36831174843E+02 -0.25412390773E+03  0.26036034606E+03  0.00000000000E+00 0.  1.
</event>
<event>
12    1  0.8344842E-002  0.3126200E+03  0.7818608E-02  0.1079118E+00
         21   -1    0    0  503  502  0.00000000000E+00  0.00000000000E+00  0.44305188268E+03  0.44305188268E+03  0.00000000000E+00 0.  1.
         21   -1    0    0  501  503 -0.00000000000E+00 -0.00000000000E+00 -0.22457596014E+03  0.22457596014E+03  0.00000000000E+00 0.  1.
          6    2    1    2  501    0 -0.11445372126E+02 -0.25941885308E+03  0.15446497515E+03  0.34869852801E+03  0.17407497527E+03 0.  0.
         24    2    3    3    0    0 -0.85961711659E+01 -0.10262798174E+03  0.14201529227E+03  0.19131816112E+03  0.76340675517E+02 0.  0.
         -6    2    1    2    0  502  0.11445372126E+02  0.25941885308E+03  0.64010947391E+02  0.31892931480E+03  0.17375088080E+03 0.  0.
        -24    2    5    5    0    0  0.52349653082E+02  0.24468551064E+03  0.76480948478E+02  0.27345599837E+03  0.79481836095E+02 0.  0.
          5    1    3    3  501    0 -0.28492009596E+01 -0.15679087134E+03  0.12449682877E+02  0.15738036690E+03  0.47000000000E+01 0. -1.
        -13    1    4    4    0    0  0.14145689481E+02 -0.10442796044E+03  0.11711290618E+03  0.15754596868E+03  0.00000000000E+00 0.  1.
         14    1    4    4    0    0 -0.22741860647E+02  0.17999786989E+01  0.24902386092E+02  0.33772192438E+02  0.00000000000E+00 0. -1.
         -5    1    5    5    0  502 -0.40904280956E+02  0.14733342436E+02 -0.12470001088E+02  0.45473316429E+02  0.47000000000E+01 0.  1.
         13    1    6    6    0    0  0.48597794182E+02  0.79610934059E+02  0.46404397119E+01  0.93387258776E+02  0.00000000000E+00 0. -1.
        -14    1    6    6    0    0  0.37518588997E+01  0.16507457658E+03  0.71840508766E+02  0.18006873959E+03  0.00000000000E+00 0.  1.
</event>
<event>
12    1  0.8344842E-002  0.2962859E+03  0.7818608E-02  0.1087170E+00
         21   -1    0    0  501  502  0.00000000000E+00  0.00000000000E+00  0.65500304898E+03  0.65500304898E+03  0.00000000000E+00 0.  1.
         21   -1    0    0  502  503 -0.00000000000E+00 -0.00000000000E+00 -0.17083950249E+03  0.17083950249E+03  0.00000000000E+00 0.  1.
         -6    2    1    2    0  503  0.23775222993E+03 -0.41657249345E+02  0.50002554952E+02  0.30047557564E+03  0.17182510526E+03 0.  0.
        -24    2    3    3    0    0  0.62495781475E+02  0.20910616821E+02  0.52539624490E+02  0.11430874905E+03  0.77221119976E+02 0.  0.
          6    2    1    2  501    0 -0.23775222993E+03  0.41657249345E+02  0.43416099154E+03  0.52536697583E+03  0.17103579583E+03 0.  0.
         24    2    5    5    0    0 -0.21259769167E+03  0.22685953624E+02  0.43690135587E+03  0.49339416781E+03  0.82719883129E+02 0.  0.
          5    1    5    5  501    0 -0.25154538255E+02  0.18971295721E+02 -0.27403643299E+01  0.31972808022E+02  0.47000000000E+01 0. -1.
        -11    1    6    6    0    0 -0.31008784270E+02  0.21621251277E+02  0.14305120796E+03  0.14796172244E+03  0.00000000000E+00 0.  1.
         12    1    6    6    0    0 -0.18158890740E+03  0.10647023463E+01  0.29385014791E+03  0.34543244537E+03  0.00000000000E+00 0. -1.
         -5    1    3    3    0  503  0.17525644845E+03 -0.62567866166E+02 -0.25370695377E+01  0.18616682659E+03  0.47000000000E+01 0.  1.
         11    1    4    4    0    0 -0.38330375573E+01 -0.13401457547E+02 -0.97929117805E+01  0.17035033386E+02  0.00000000000E+00 0. -1.
        -12    1    4    4    0    0  0.66328819032E+02  0.34312074368E+02  0.62332536270E+02  0.97273715667E+02  0.00000000000E+00 0.  1.
</event>
<event>
12    1  0.8344842E-002  0.2264915E+03  0.7818608E-02  0.1131277E+00
         21   -1    0    0  501  502  0.00000000000E+00  0.00000000000E+00  0.19118710895E+04  0.19118710895E+04  0.00000000000E+00 0. -1.
         21   -1    0    0  502  503 -0.00000000000E+00 -0.00000000000E+00 -0.28501816091E+02  0.28501816091E+02  0.00000000000E+00 0. -1.
         -6    2    1    2    0  503  0.57749058190E+02  0.11565654796E+03  0.64770360234E+03  0.68616205318E+03  0.18597584771E+03 0.  0.
        -24    2    3    3    0    0  0.29127928901E+02  0.76313953182E+02  0.61488022291E+03  0.62728529170E+03  0.93471348332E+02 0.  0.
          6    2    1    2  501    0 -0.57749058190E+02 -0.11565654796E+03  0.12356656711E+04  0.12542108524E+04  0.17165028647E+03 0.  0.
         24    2    5    5    0    0  0.26671253688E+02 -0.64135310514E+02  0.82592815803E+03  0.83268013401E+03  0.79838521537E+02 0.  0.
          5    1    5    5  501    0 -0.84420311878E+02 -0.51521237443E+02  0.40973751305E+03  0.42153071841E+03  0.47000000000E+01 0. -1.
        -13    1    6    6    0    0 -0.25507030882E+02 -0.24631352148E+02  0.18105079203E+03  0.18449038302E+03  0.00000000000E+00 0.  1.
         14    1    6    6    0    0  0.52178284570E+02 -0.39503958366E+02  0.64487736600E+03  0.64818975098E+03  0.00000000000E+00 0. -1.
         -5    1    3    3    0  503  0.28621129289E+02  0.39342594776E+02  0.32823379429E+02  0.58876761482E+02  0.47000000000E+01 0.  1.
         11    1    4    4    0    0  0.24764565746E+02  0.87487536729E+02  0.33417701416E+03  0.34632590084E+03  0.00000000000E+00 0. -1.
        -12    1    4    4    0    0  0.43633631551E+01 -0.11173583548E+02  0.28070320875E+03  0.28095939086E+03  0.00000000000E+00 0.  1.
</event>
<event>
12    1  0.8344842E-002  0.2372300E+03  0.7818608E-02  0.1121789E+00
         21   -1    0    0  503  502  0.00000000000E+00  0.00000000000E+00  0.97930426461E+03  0.97930426461E+03  0.00000000000E+00 0. -1.
         21   -1    0    0  501  503 -0.00000000000E+00 -0.00000000000E+00 -0.14534338238E+03  0.14534338238E+03  0.00000000000E+00 0.  1.
          6    2    1    2  501    0 -0.40486204386E+02  0.15826505490E+03 -0.20469033008E+02  0.23811139137E+03  0.17202061806E+03 0.  0.
         24    2    3    3    0    0 -0.39947710822E+02  0.12402309548E+02 -0.97283400302E+01  0.91777243123E+02  0.81109708872E+02 0.  0.
         -6    2    1    2    0  502  0.40486204386E+02 -0.15826505490E+03  0.85442991524E+03  0.88653625562E+03  0.17090667661E+03 0.  0.
        -24    2    5    5    0    0  0.49569479359E+02 -0.17210407553E+03  0.65171504327E+03  0.68309232306E+03  0.99023623940E+02 0.  0.
          5    1    3    3  501    0 -0.53849356366E+00  0.14586274535E+03 -0.10740692978E+02  0.14633414825E+03  0.47000000000E+01 0. -1.
        -11    1    4    4    0    0  0.51876825307E+01  0.69766641248E+01 -0.37507099181E+02  0.38501537389E+02  0.00000000000E+00 0.  1.
         12    1    4    4    0    0 -0.45135393353E+02  0.54256454230E+01  0.27778759151E+02  0.53275705733E+02  0.00000000000E+00 0. -1.
         -5    1    5    5    0  502 -0.90832749726E+01  0.13839020625E+02  0.20271487197E+03  0.20344393256E+03  0.47000000000E+01 0.  1.
         11    1    6    6    0    0 -0.30146354274E+02 -0.38655895677E+02  0.16901452197E+03  0.17598008291E+03  0.00000000000E+00 0. -1.
        -12    1    6    6    0    0  0.79715833633E+02 -0.13344817985E+03  0.48270052131E+03  0.50711224015E+03  0.00000000000E+00 0.  1.
</event>
<event>
12    1  0.8344842E-002  0.1782470E+03  0.7818608E-02  0.1169875E+00
         21   -1    0    0  503  502  0.00000000000E+00  0.00000000000E+00  0.12419163750E+04  0.12419163750E+04  0.00000000000E+00 0. -1.
         21   -1    0    0  501  503 -0.00000000000E+00 -0.00000000000E+00 -0.75085786980E+02  0.75085786980E+02  0.00000000000E+00 0. -1.
          6    2    1    2  501    0  0.29663234675E+02  0.41003241563E+02  0.46773138790E+02  0.18285019800E+03  0.16936733772E+03 0.  0.
         24    2    3    3    0    0 -0.13480754190E+02  0.66286695943E+02  0.71882352648E+02  0.12669666328E+03  0.79431197098E+02 0.  0.
         -6    2    1    2    0  502 -0.29663234675E+02 -0.41003241563E+02  0.11200574492E+04  0.11341519639E+04  0.17091171557E+03 0.  0.
        -24    2    5    5    0    0 -0.84330664373E+00  0.49780588744E+01  0.99223680753E+03  0.99520926109E+03  0.76694842745E+02 0.  0.
          5    1    3    3  501    0  0.43143988864E+02 -0.25283454379E+02 -0.25109213857E+02  0.56153534715E+02  0.47000000000E+01 0. -1.
        -13    1    4    4    0    0  0.18340609530E+02  0.67103890617E+02  0.34666510021E+02  0.77724365619E+02  0.00000000000E+00 0.  1.
         14    1    4    4    0    0 -0.31821363719E+02 -0.81719467415E+00  0.37215842626E+02  0.48972297664E+02  0.00000000000E+00 0. -1.
         -5    1    5    5    0  502 -0.28819928031E+02 -0.45981300438E+02  0.12782064165E+03  0.13894270285E+03  0.47000000000E+01 0.  1.
         13    1    6    6    0    0  0.32063527275E+02 -0.67225428149E+01  0.24813927002E+03  0.25029254821E+03  0.00000000000E+00 0. -1.
        -14    1    6    6    0    0 -0.32906833919E+02  0.11700601689E+02  0.74409753751E+03  0.74491671288E+03  0.00000000000E+00 0.  1.
</event>
<event>
12    1  0.8344842E-002  0.2523845E+03  0.7818608E-02  0.1111858E+00
         21   -1    0    0  501  502  0.00000000000E+00  0.00000000000E+00  0.43426625298E+02  0.43426625298E+02  0.00000000000E+00 0. -1.
         21   -1    0    0  502  503 -0.00000000000E+00 -0.00000000000E+00 -0.22281615624E+04  0.22281615624E+04  0.00000000000E+00 0. -1.
         -6    2    1    2    0  503 -0.18451716953E+03 -0.20806641702E+02 -0.17575821939E+04  0.17756106347E+04  0.17093406791E+03 0.  0.
        -24    2    3    3    0    0 -0.12899974783E+03  0.11701430916E+02 -0.68064078703E+03  0.69673907482E+03  0.73454741076E+02 0.  0.
          6    2    1    2  501    0  0.18451716953E+03  0.20806641702E+02 -0.42715274322E+03  0.49597755301E+03  0.17045458298E+03 0.  0.
         24    2    5    5    0    0  0.18167446722E+03  0.47998146958E+02 -0.42050859816E+03  0.46745223832E+03  0.79841592139E+02 0.  0.
          5    1    5    5  501    0  0.28427023151E+01 -0.27191505256E+02 -0.66441450595E+01  0.28525314689E+02  0.47000000000E+01 0. -1.
        -11    1    6    6    0    0  0.78025456858E+02  0.56112647710E+02 -0.24885686292E+03  0.26677019956E+03  0.00000000000E+00 0.  1.
         12    1    6    6    0    0  0.10364901036E+03 -0.81145007515E+01 -0.17165173525E+03  0.20068203877E+03  0.00000000000E+00 0. -1.
         -5    1    3    3    0  503 -0.55517421701E+02 -0.32508072619E+02 -0.10769414069E+04  0.10788715599E+04  0.47000000000E+01 0.  1.
         11    1    4    4    0    0 -0.28122735140E+02  0.83661358717E+00 -0.34380381662E+03  0.34495311635E+03  0.00000000000E+00 0. -1.
        -12    1    4    4    0    0 -0.10087701269E+03  0.10864817329E+02 -0.33683697041E+03  0.35178595848E+03  0.00000000000E+00 0.  1.
</event>
<event>
12    1  0.8344842E-002  0.1835665E+03  0.7818608E-02  0.1167188E+00
         21   -1    0    0  503  502  0.00000000000E+00  0.00000000000E+00  0.25615817337E+04  0.25615817337E+04  0.00000000000E+00 0. -1.
         21   -1    0    0  501  503 -0.00000000000E+00 -0.00000000000E+00 -0.49927482365E+02  0.49927482365E+02  0.00000000000E+00 0. -1.
          6    2    1    2  501    0 -0.13735012299E+01  0.41145642237E+01  0.13311881404E+03  0.22675375612E+03  0.18351520678E+03 0.  0.
         24    2    3    3    0    0  0.48961247730E+02  0.54687919249E+02  0.73842128134E+02  0.13387175204E+03  0.84148760030E+02 0.  0.
         -6    2    1    2    0  502  0.13735012299E+01 -0.41145642237E+01  0.23785354373E+04  0.23847554600E+04  0.17207254608E+03 0.  0.
        -24    2    5    5    0    0  0.24542676515E+02  0.64686381888E+00  0.23196137314E+04  0.23210896190E+04  0.79034138300E+02 0.  0.
          5    1    3    3  501    0 -0.50334748960E+02 -0.50573355025E+02  0.59276685907E+02  0.92882004088E+02  0.47000000000E+01 0. -1.
        -13    1    4    4    0    0  0.54897935945E+02  0.55885735125E+02  0.21576001380E+02  0.81255908074E+02  0.00000000000E+00 0.  1.
         14    1    4    4    0    0 -0.59366882154E+01 -0.11978158757E+01  0.52266126754E+02  0.52615843961E+02  0.00000000000E+00 0. -1.
         -5    1    5    5    0  502 -0.23169175285E+02 -0.47614280426E+01  0.58921705899E+02  0.63665840970E+02  0.47000000000E+01 0.  1.
         11    1    6    6    0    0 -0.18732203323E+02  0.20684802300E+02  0.13652126749E+04  0.13654978594E+04  0.00000000000E+00 0. -1.
        -12    1    6    6    0    0  0.43274879838E+02 -0.20037938481E+02  0.95440105659E+03  0.95559175960E+03  0.00000000000E+00 0.  1.
</event>
<event>
12    1  0.8344842E-002  0.2105444E+03  0.7818608E-02  0.1141166E+00
         21   -1    0    0  501  502  0.00000000000E+00  0.00000000000E+00  0.61265947573E+03  0.61265947573E+03  0.00000000000E+00 0. -1.
         21   -1    0    0  502  503 -0.00000000000E+00 -0.00000000000E+00 -0.85539087776E+02  0.85539087776E+02  0.00000000000E+00 0.  1.
         -6    2    1    2    0  503  0.12061975898E+03 -0.17844730382E+02  0.12631349831E+03  0.24552808400E+03  0.17164317499E+03 0.  0.
        -24    2    3    3    0    0  0.14456255430E+03  0.16980994147E+02  0.10879760986E+03  0.19953911919E+03  0.82415131546E+02 0.  0.
          6    2    1    2  501    0 -0.12061975898E+03  0.17844730382E+02  0.40080688965E+03  0.45267047950E+03  0.17145506574E+03 0.  0.
         24    2    5    5    0    0 -0.15360231812E+03  0.13898950363E+02  0.36299010219E+03  0.40211736089E+03  0.78420052875E+02 0.  0.
          5    1    5    5  501    0  0.32982559140E+02  0.39457800191E+01  0.37816787460E+02  0.50553118610E+02  0.47000000000E+01 0. -1.
        -11    1    6    6    0    0  0.30997220066E-01  0.12839104071E+02  0.75513796445E+01  0.14895196833E+02  0.00000000000E+00 0.  1.
         12    1    6    6    0    0 -0.15363331534E+03  0.10598462923E+01  0.35543872254E+03  0.38722216406E+03  0.00000000000E+00 0. -1.
         -5    1    3    3    0  503 -0.23942795318E+02 -0.34825724529E+02  0.17515888442E+02  0.45988964813E+02  0.47000000000E+01 0.  1.
         13    1    4    4    0    0  0.45697677119E+02 -0.23328830470E+02  0.68130943716E+02  0.85289726913E+02  0.00000000000E+00 0. -1.
        -14    1    4    4    0    0  0.98864877178E+02  0.40309824617E+02  0.40666666148E+02  0.11424939228E+03  0.00000000000E+00 0.  1.
</event>
<event>
12    1  0.8344842E-002  0.3291343E+03  0.7818608E-02  0.1071578E+00
         21   -1    0    0  503  502  0.00000000000E+00  0.00000000000E+00  0.23838624116E+03  0.23838624116E+03  0.00000000000E+00 0.  1.
         21   -1    0    0  501  503 -0.00000000000E+00 -0.00000000000E+00 -0.70225734248E+03  0.70225734248E+03  0.00000000000E+00 0. -1.
          6    2    1    2  501    0  0.44846784768E+02  0.27651409482E+03 -0.51185723454E+03  0.60854516858E+03  0.17279500837E+03 0.  0.
         24    2    3    3    0    0 -0.40187305192E+01  0.16485790622E+03 -0.18358038948E+03  0.25834134216E+03  0.76447434427E+02 0.  0.
         -6    2    1    2    0  502 -0.44846784768E+02 -0.27651409482E+03  0.47986133220E+02  0.33209841506E+03  0.17180049349E+03 0.  0.
        -24    2    5    5    0    0 -0.85704649302E+02 -0.18500598022E+03  0.69368801447E+02  0.22951962274E+03  0.79339315479E+02 0.  0.
          5    1    3    3  501    0  0.48865515287E+02  0.11165618861E+03 -0.32827684506E+03  0.35020382642E+03  0.47000000000E+01 0. -1.
        -13    1    4    4    0    0 -0.31193097648E+02  0.29670419585E+02 -0.33639690086E+02  0.54634896250E+02  0.00000000000E+00 0.  1.
         14    1    4    4    0    0  0.27174367128E+02  0.13518748663E+03 -0.14994069939E+03  0.20370644591E+03  0.00000000000E+00 0. -1.
         -5    1    5    5    0  502  0.40857864534E+02 -0.91508114605E+02 -0.21382668227E+02  0.10257879232E+03  0.47000000000E+01 0.  1.
         11    1    6    6    0    0  0.10517317508E+01 -0.86049054276E+02  0.16117214337E+02  0.87551758860E+02  0.00000000000E+00 0. -1.
        -12    1    6    6    0    0 -0.86756381053E+02 -0.98956925942E+02  0.53251587110E+02  0.14196786388E+03  0.00000000000E+00 0.  1.
</event>
<event>
12    1  0.8344842E-002  0.2458346E+03  0.7818608E-02  0.1115966E+00
         21   -1    0    0  503  502  0.00000000000E+00  0.00000000000E+00  0.87066983393E+03  0.87066983393E+03  0.00000000000E+00 0.  1.
         21   -1    0    0  501  503 -0.00000000000E+00 -0.00000000000E+00 -0.16754884046E+03  0.16754884046E+03  0.00000000000E+00 0.  1.
          6    2    1    2  501    0  0.38517771910E+02  0.17121558029E+03 -0.45727732622E+02  0.25005131443E+03  0.17215179532E+03 0.  0.
         24    2    3    3    0    0 -0.76484445196E+01  0.11339525038E+03  0.36764439680E+02  0.13913892296E+03  0.71351484533E+02 0.  0.
         -6    2    1    2    0  502 -0.38517771910E+02 -0.17121558029E+03  0.74884872609E+03  0.78816735996E+03  0.17214813111E+03 0.  0.
        -24    2    5    5    0    0 -0.44131678767E+02 -0.47877200986E+02  0.20812741677E+03  0.23350936073E+03  0.83485139331E+02 0.  0.
          5    1    3    3  501    0  0.46166216430E+02  0.57820329910E+02 -0.82492172302E+02  0.11091239147E+03  0.47000000000E+01 0. -1.
        -11    1    4    4    0    0  0.14673772944E+02  0.25332324580E+02 -0.16722646430E+02  0.33714880760E+02  0.00000000000E+00 0.  1.
         12    1    4    4    0    0 -0.22322217464E+02  0.88062925804E+02  0.53487086111E+02  0.10542404220E+03  0.00000000000E+00 0. -1.
         -5    1    5    5    0  502  0.56139068573E+01 -0.12333837931E+03  0.54072130932E+03  0.55465799923E+03  0.47000000000E+01 0.  1.
         11    1    6    6    0    0 -0.32834017779E+02 -0.43867157201E+02  0.21346588738E+03  0.22038621844E+03  0.00000000000E+00 0. -1.
        -12    1    6    6    0    0 -0.11297660988E+02 -0.40100437842E+01 -0.53384706075E+01  0.13123142283E+02  0.00000000000E+00 0.  1.
</event>
<event>
12    1  0.8344842E-002  0.2135103E+03  0.7818608E-02  0.1139537E+00
         21   -1    0    0  503  502  0.00000000000E+00  0.00000000000E+00  0.53009657775E+03  0.53009657775E+03  0.00000000000E+00 0. -1.
         21   -1    0    0  501  503 -0.00000000000E+00 -0.00000000000E+00 -0.98742468308E+02  0.98742468308E+02  0.00000000000E+00 0.  1.
          6    2    1    2  501    0  0.26889710605E+01 -0.11620544430E+03  0.97955499334E+02  0.23490837732E+03  0.17909698499E+03 0.  0.
         24    2    3    3    0    0  0.38110792492E+02 -0.10894124057E+02  0.84431865221E+02  0.12288088835E+03  0.79999115076E+02 0.  0.
         -6    2    1    2    0  502 -0.26889710605E+01  0.11620544430E+03  0.33339861011E+03  0.39393066874E+03  0.17468772911E+03 0.  0.
        -24    2    5    5    0    0  0.64275523513E+02  0.56380020539E+02  0.15706658597E+03  0.19599533183E+03  0.80213515263E+02 0.  0.
          5    1    3    3  501    0 -0.35421821431E+02 -0.10531132025E+03  0.13523634112E+02  0.11202748897E+03  0.47000000000E+01 0. -1.
        -11    1    4    4    0    0  0.12521968242E+02 -0.29091545358E+02 -0.11784367886E+01  0.31693949158E+02  0.00000000000E+00 0.  1.
         12    1    4    4    0    0  0.25588824249E+02  0.18197421301E+02  0.85610302010E+02  0.91186939189E+02  0.00000000000E+00 0. -1.
         -5    1    5    5    0  502 -0.66964494574E+02  0.59825423764E+02  0.17633202413E+03  0.19793533691E+03  0.47000000000E+01 0.  1.
         11    1    6    6    0    0  0.22383684921E+02  0.67301703683E+02  0.75100296932E+02  0.10329861213E+03  0.00000000000E+00 0. -1.
        -12    1    6    6    0    0  0.41891838593E+02 -0.10921683144E+02  0.81966289042E+02  0.92696719698E+02  0.00000000000E+00 0.  1.
</event>
<event>
12    1  0.8344842E-002  0.2376227E+03  0.7818608E-02  0.1121650E+00
         21   -1    0    0  503  502  0.00000000000E+00  0.00000000000E+00  0.71470723920E+02  0.71470723920E+02  0.00000000000E+00 0. -1.
         21   -1    0    0  501  503 -0.00000000000E+00 -0.00000000000E+00 -0.82103285047E+03  0.82103285047E+03  0.00000000000E+00 0. -1.
          6    2    1    2  501    0  0.13744636823E+03 -0.85303309675E+02 -0.27996667730E+03  0.36621045216E+03  0.17193195192E+03 0.  0.
         24    2    3    3    0    0  0.11585624768E+03 -0.13024160827E+03 -0.21645893793E+03  0.28533457847E+03  0.64620455038E+02 0.  0.
         -6    2    1    2    0  502 -0.13744636823E+03  0.85303309675E+02 -0.46959544924E+03  0.52629312222E+03  0.17405862739E+03 0.  0.
        -24    2    5    5    0    0 -0.15696720284E+03  0.87152467104E+02 -0.33149728709E+03  0.38673068187E+03  0.86231743934E+02 0.  0.
          5    1    3    3  501    0  0.21590120551E+02  0.44938298591E+02 -0.63507739369E+02  0.80875873692E+02  0.47000000000E+01 0. -1.
        -13    1    4    4    0    0  0.34612050281E+02 -0.12714728644E+02 -0.18645815038E+02  0.41319786636E+02  0.00000000000E+00 0.  1.
         14    1    4    4    0    0  0.81244197400E+02 -0.11752687962E+03 -0.19781312289E+03  0.24401479183E+03  0.00000000000E+00 0. -1.
         -5    1    5    5    0  502  0.19520834608E+02 -0.18491574284E+01 -0.13809816216E+03  0.13956244036E+03  0.47000000000E+01 0.  1.
         11    1    6    6    0    0 -0.91218565936E+02  0.10973181834E+02 -0.20827780964E+03  0.22764200728E+03  0.00000000000E+00 0. -1.
        -12    1    6    6    0    0 -0.65748636904E+02  0.76179285270E+02 -0.12321947745E+03  0.15908867458E+03  0.00000000000E+00 0.  1.
</event>
<event>
12    1  0.8344842E-002  0.1911481E+03  0.7818608E-02  0.1157598E+00
         21   -1    0    0  501  502  0.00000000000E+00  0.00000000000E+00  0.13255047909E+04  0.13255047909E+04  0.00000000000E+00 0. -1.
         21   -1    0    0  502  503 -0.00000000000E+00 -0.00000000000E+00 -0.27782744291E+02  0.27782744291E+02  0.00000000000E+00 0. -1.
         -6    2    1    2    0  503 -0.77707925222E+02  0.23853560577E+02  0.72084587887E+03  0.74556744069E+03  0.17217582160E+03 0.  0.
        -24    2    3    3    0    0 -0.81336926058E+00  0.39036294504E+02  0.55627397988E+03  0.56322356752E+03  0.79092050568E+02 0.  0.
          6    2    1    2  501    0  0.77707925222E+02 -0.23853560577E+02  0.57687616773E+03  0.60772009449E+03  0.17300313972E+03 0.  0.
         24    2    5    5    0    0  0.27413862473E+02 -0.29185619133E+02  0.53391096575E+03  0.54119173829E+03  0.78893967033E+02 0.  0.
          5    1    5    5  501    0  0.50294062749E+02  0.53320585553E+01  0.42965201983E+02  0.66528356192E+02  0.47000000000E+01 0. -1.
        -13    1    6    6    0    0  0.73105080935E+01 -0.10230375746E+02  0.48383740916E+03  0.48400076717E+03  0.00000000000E+00 0.  1.
         14    1    6    6    0    0  0.20103354380E+02 -0.18955243387E+02  0.50073556584E+02  0.57190971125E+02  0.00000000000E+00 0. -1.
         -5    1    3    3    0  503 -0.76894555962E+02 -0.15182733927E+02  0.16457189899E+03  0.18234387317E+03  0.47000000000E+01 0.  1.
         11    1    4    4    0    0 -0.28454904072E+02 -0.38825288190E+01  0.33072490541E+03  0.33196945440E+03  0.00000000000E+00 0. -1.
        -12    1    4    4    0    0  0.27641534811E+02  0.42918823323E+02  0.22554907447E+03  0.23125411313E+03  0.00000000000E+00 0.  1.
</event>
<event>
12    1  0.8344842E-002  0.2789838E+03  0.7818608E-02  0.1096289E+00
         21   -1    0    0  501  502  0.00000000000E+00  0.00000000000E+00  0.14119229376E+03  0.14119229376E+03  0.00000000000E+00 0. -1.
         21   -1    0    0  502  503 -0.00000000000E+00 -0.00000000000E+00 -0.57873926934E+03  0.57873926934E+03  0.00000000000E+00 0.  1.
         -6    2    1    2    0  503 -0.14662618036E+02  0.21865479797E+03 -0.29824854023E+03  0.40839213636E+03  0.17264713218E+03 0.  0.
        -24    2    3    3    0    0 -0.14745630706E+02  0.20686672484E+03 -0.17313453452E+03  0.28263614253E+03  0.83044244537E+02 0.  0.
          6    2    1    2  501    0  0.14662618036E+02 -0.21865479797E+03 -0.13929843535E+03  0.31153942674E+03  0.17212741583E+03 0.  0.
         24    2    5    5    0    0 -0.19421722986E+02 -0.22844755648E+03 -0.12049287471E+03  0.27112433632E+03  0.80152252044E+02 0.  0.
          5    1    5    5  501    0  0.34084341021E+02  0.97927585089E+01 -0.18805560640E+02  0.40415090412E+02  0.47000000000E+01 0. -1.
        -11    1    6    6    0    0 -0.31679301747E+02 -0.52557450286E+02 -0.56909503577E+02  0.83693221572E+02  0.00000000000E+00 0.  1.
         12    1    6    6    0    0  0.12257578761E+02 -0.17589010619E+03 -0.63583371131E+02  0.18743111475E+03  0.00000000000E+00 0. -1.
         -5    1    3    3    0  503  0.83012670296E-01  0.11788073126E+02 -0.12511400571E+03  0.12575599382E+03  0.47000000000E+01 0.  1.
         11    1    4    4    0    0  0.85597230955E+01  0.11825086282E+03 -0.14391257394E+03  0.18646008783E+03  0.00000000000E+00 0. -1.
        -12    1    4    4    0    0 -0.23305353801E+02  0.88615862022E+02 -0.29221960587E+02  0.96176054703E+02  0.00000000000E+00 0.  1.
</event>
<event>
12    1  0.8344842E-002  0.1926524E+03  0.7818608E-02  0.1157462E+00
         21   -1    0    0  501  502  0.00000000000E+00  0.00000000000E+00  0.18844694957E+02  0.18844694957E+02  0.00000000000E+00 0.  1.
         21   -1    0    0  502  503 -0.00000000000E+00 -0.00000000000E+00 -0.19110604748E+04  0.19110604748E+04  0.00000000000E+00 0.  1.
         -6    2    1    2    0  503  0.55818396580E+01  0.84428606403E+02 -0.92140130160E+03  0.94132635209E+03  0.17307685008E+03 0.  0.
        -24    2    3    3    0    0  0.20151723101E+02 -0.10128481904E+02 -0.60391274212E+03  0.60970246897E+03  0.80733032195E+02 0.  0.
          6    2    1    2  501    0 -0.55818396580E+01 -0.84428606403E+02 -0.97081447826E+03  0.98857881768E+03  0.16627682058E+03 0.  0.
         24    2    5    5    0    0 -0.59139197597E+02 -0.49713047996E+02 -0.42742766916E+03  0.44143635462E+03  0.78757926477E+02 0.  0.
          5    1    5    5  501    0  0.53557357939E+02 -0.34715558406E+02 -0.54338680910E+03  0.54714246307E+03  0.47000000000E+01 0. -1.
        -11    1    6    6    0    0 -0.59668940643E+02 -0.53215954419E+02 -0.42979969576E+03  0.43717284769E+03  0.00000000000E+00 0.  1.
         12    1    6    6    0    0  0.52974304637E+00  0.35029064227E+01  0.23720266036E+01  0.42635069261E+01  0.00000000000E+00 0. -1.
         -5    1    3    3    0  503 -0.14569883443E+02  0.94557088307E+02 -0.31748855948E+03  0.33162388312E+03  0.47000000000E+01 0.  1.
         13    1    4    4    0    0 -0.13890534204E+02 -0.43957047595E+00 -0.18092643338E+02  0.22814116368E+02  0.00000000000E+00 0. -1.
        -14    1    4    4    0    0  0.34042257305E+02 -0.96889114280E+01 -0.58582009878E+03  0.58688835261E+03  0.00000000000E+00 0.  1.
</event>
<event>
12    1  0.8344842E-002  0.1920301E+03  0.7818608E-02  0.1157290E+00
         21   -1    0    0  501  502  0.00000000000E+00  0.00000000000E+00  0.10274312604E+03  0.10274312604E+03  0.00000000000E+00 0.  1.
         21   -1    0    0  502  503 -0.00000000000E+00 -0.00000000000E+00 -0.35735154055E+03  0.35735154055E+03  0.00000000000E+00 0.  1.
         -6    2    1    2    0  503  0.27691434783E+02 -0.75929239167E+02 -0.10448939741E+03  0.21861746021E+03  0.17419384265E+03 0.  0.
        -24    2    3    3    0    0 -0.36652696990E+02 -0.25886222352E+02 -0.10538370381E+03  0.13696355271E+03  0.75098422342E+02 0.  0.
          6    2    1    2  501    0 -0.27691434783E+02  0.75929239167E+02 -0.15011901709E+03  0.24147720638E+03  0.17100718403E+03 0.  0.
         24    2    5    5    0    0 -0.81897191581E+02  0.34444282898E+02 -0.10721367931E+03  0.16071692111E+03  0.80259560720E+02 0.  0.
          5    1    5    5  501    0  0.54205756798E+02  0.41484956269E+02 -0.42905337775E+02  0.80760285266E+02  0.47000000000E+01 0. -1.
        -13    1    6    6    0    0 -0.41577577081E+02 -0.22167141814E+02 -0.25969782718E+02  0.53800619945E+02  0.00000000000E+00 0.  1.
         14    1    6    6    0    0 -0.40319614500E+02  0.56611424712E+02 -0.81243896596E+02  0.10691630117E+03  0.00000000000E+00 0. -1.
         -5    1    3    3    0  503  0.64344131773E+02 -0.50043016815E+02  0.89430640081E+00  0.81653907497E+02  0.47000000000E+01 0.  1.
         13    1    4    4    0    0  0.11899195600E+02  0.31900542873E+01 -0.68072550310E+02  0.69178316025E+02  0.00000000000E+00 0. -1.
        -14    1    4    4    0    0 -0.48551892590E+02 -0.29076276639E+02 -0.37311153504E+02  0.67785236689E+02  0.00000000000E+00 0.  1.
</event>
<event>
12    1  0.8344842E-002  0.2516295E+03  0.7818608E-02  0.1112898E+00
         21   -1    0    0  501  502  0.00000000000E+00  0.00000000000E+00  0.46373960659E+02  0.46373960659E+02  0.00000000000E+00 0. -1.
         21   -1    0    0  502  503 -0.00000000000E+00 -0.00000000000E+00 -0.16448024522E+04  0.16448024522E+04  0.00000000000E+00 0.  1.
         -6    2    1    2    0  503 -0.16018051191E+03 -0.77761871438E+02 -0.11658308758E+04  0.11926772546E+04  0.17779959922E+03 0.  0.
        -24    2    3    3    0    0 -0.42579501093E+02  0.12129624075E+02 -0.29253143069E+03  0.30690951436E+03  0.81600676286E+02 0.  0.
          6    2    1    2  501    0  0.16018051191E+03  0.77761871438E+02 -0.43259761575E+03  0.49849915833E+03  0.17220920027E+03 0.  0.
         24    2    5    5    0    0  0.14117250305E+03  0.94407006858E+02 -0.43394153718E+03  0.47276472500E+03  0.79742516591E+02 0.  0.
          5    1    5    5  501    0  0.19008008853E+02 -0.16645135420E+02  0.13439214346E+01  0.25734433325E+02  0.47000000000E+01 0. -1.
        -11    1    6    6    0    0  0.13546505444E+03  0.54060470706E+02 -0.31749004811E+03  0.34938981971E+03  0.00000000000E+00 0.  1.
         12    1    6    6    0    0  0.57074486142E+01  0.40346536152E+02 -0.11645148907E+03  0.12337490529E+03  0.00000000000E+00 0. -1.
         -5    1    3    3    0  503 -0.11760101081E+03 -0.89891495513E+02 -0.87329944515E+03  0.88576774021E+03  0.47000000000E+01 0.  1.
         13    1    4    4    0    0 -0.26274538152E+02 -0.14700458247E+02 -0.29982486129E+02  0.42490049450E+02  0.00000000000E+00 0. -1.
        -14    1    4    4    0    0 -0.16304962941E+02  0.26830082321E+02 -0.26254894456E+03  0.26441946491E+03  0.00000000000E+00 0.  1.
</event>
<event>
12    1  0.8344842E-002  0.1724898E+03  0.7818608E-02  0.1175743E+00
         21   -1    0    0  503  502  0.00000000000E+00  0.00000000000E+00  0.22905427313E+03  0.22905427313E+03  0.00000000000E+00 0.  1.
         21   -1    0    0  501  503 -0.00000000000E+00 -0.00000000000E+00 -0.19061364032E+03  0.19061364032E+03  0.00000000000E+00 0.  1.
          6    2    1    2  501    0  0.76623211206E+01  0.15242364900E+02 -0.10046407989E+03  0.19961401043E+03  0.17164405308E+03 0.  0.
         24    2    3    3    0    0  0.32807999296E+02  0.68864824499E+02 -0.75793316254E+02  0.13528353645E+03  0.82087024391E+02 0.  0.
         -6    2    1    2    0  502 -0.76623211206E+01 -0.15242364900E+02  0.13890471270E+03  0.22005390302E+03  0.16981802074E+03 0.  0.
        -24    2    5    5    0    0  0.11237214629E+02 -0.65170511295E+02  0.13054155015E+03  0.16581328409E+03  0.77971009536E+02 0.  0.
          5    1    3    3  501    0 -0.25145678175E+02 -0.53622459599E+02 -0.24670763640E+02  0.64330473984E+02  0.47000000000E+01 0. -1.
        -11    1    4    4    0    0 -0.15576491930E+02  0.16777080801E+02 -0.57477980771E+02  0.61869344708E+02  0.00000000000E+00 0.  1.
         12    1    4    4    0    0  0.48384491226E+02  0.52087743698E+02 -0.18315335484E+02  0.73414191738E+02  0.00000000000E+00 0. -1.
         -5    1    5    5    0  502 -0.18899535750E+02  0.49928146395E+02  0.83631625459E+01  0.54240618929E+02  0.47000000000E+01 0.  1.
         13    1    6    6    0    0  0.34748621784E+02 -0.43526198550E+02  0.11977518844E+03  0.13209122773E+03  0.00000000000E+00 0. -1.
        -14    1    6    6    0    0 -0.23511407154E+02 -0.21644312745E+02  0.10766361710E+02  0.33722056359E+02  0.00000000000E+00 0.  1.
</event>
<event>
12    1  0.8344842E-002  0.1846766E+03  0.7818608E-02  0.1163408E+00
         21   -1    0    0  503  502  0.00000000000E+00  0.00000000000E+00  0.24614948023E+03  0.24614948023E+03  0.00000000000E+00 0. -1.
         21   -1    0    0  501  503 -0.00000000000E+00 -0.00000000000E+00 -0.17662167803E+03  0.17662167803E+03  0.00000000000E+00 0. -1.
          6    2    1    2  501    0 -0.46456330773E+02  0.48158643602E+02 -0.63582956114E+02  0.19531578839E+03  0.17212791541E+03 0.  0.
         24    2    3    3    0    0 -0.25794385447E+02  0.75411489226E+02 -0.95342160514E+02  0.14840767988E+03  0.81132415525E+02 0.  0.
         -6    2    1    2    0  502  0.46456330773E+02 -0.48158643602E+02  0.13311075831E+03  0.22745536987E+03  0.17187212014E+03 0.  0.
        -24    2    5    5    0    0  0.35582678476E+02 -0.56633910020E+02  0.16552259531E+03  0.19192110988E+03  0.70444702330E+02 0.  0.
          5    1    3    3  501    0 -0.20661945326E+02 -0.27252845625E+02  0.31759204400E+02  0.46908108504E+02  0.47000000000E+01 0. -1.
        -13    1    4    4    0    0  0.25949109227E+02  0.16973088215E+02 -0.96010921248E+01  0.32459558888E+02  0.00000000000E+00 0.  1.
         14    1    4    4    0    0 -0.51743494674E+02  0.58438401011E+02 -0.85741068389E+02  0.11594812100E+03  0.00000000000E+00 0. -1.
         -5    1    5    5    0  502  0.10873652297E+02  0.84752664183E+01 -0.32411837003E+02  0.35534259991E+02  0.47000000000E+01 0.  1.
         11    1    6    6    0    0  0.15501673216E+02  0.14525177977E+02  0.22669150685E+02  0.31067234517E+02  0.00000000000E+00 0. -1.
        -12    1    6    6    0    0  0.20081005260E+02 -0.71159087997E+02  0.14285344463E+03  0.16085387536E+03  0.00000000000E+00 0.  1.
</event>
<event>
12    1  0.8344842E-002  0.2684071E+03  0.7818608E-02  0.1102296E+00
         21   -1    0    0  501  502  0.00000000000E+00  0.00000000000E+00  0.14030536766E+03  0.14030536766E+03  0.00000000000E+00 0. -1.
         21   -1    0    0  502  503 -0.00000000000E+00 -0.00000000000E+00 -0.57116642520E+03  0.57116642520E+03  0.00000000000E+00 0.  1.
         -6    2    1    2    0  503 -0.36142326849E+02 -0.20358893138E+03 -0.10081383731E+03  0.28606195462E+03  0.17003908762E+03 0.  0.
        -24    2    3    3    0    0 -0.70987649766E+02 -0.16596651781E+03 -0.33985085541E+02  0.20169481295E+03  0.83316745471E+02 0.  0.
          6    2    1    2  501    0  0.36142326849E+02  0.20358893138E+03 -0.33004722023E+03  0.42540983824E+03  0.17113632610E+03 0.  0.
         24    2    5    5    0    0  0.59143508680E+02  0.57417862782E+02 -0.17780519658E+03  0.21305457122E+03  0.83563130647E+02 0.  0.
          5    1    5    5  501    0 -0.23001181830E+02  0.14617106860E+03 -0.15224202366E+03  0.21235526701E+03  0.47000000000E+01 0. -1.
        -13    1    6    6    0    0  0.43056420713E+02  0.60121373279E+02 -0.18179619983E+03  0.19626077846E+03  0.00000000000E+00 0.  1.
         14    1    6    6    0    0  0.16087087967E+02 -0.27035104970E+01  0.39910032547E+01  0.16793792759E+02  0.00000000000E+00 0. -1.
         -5    1    3    3    0  503  0.34845322917E+02 -0.37622413571E+02 -0.66828751764E+02  0.84367141675E+02  0.47000000000E+01 0.  1.
         13    1    4    4    0    0 -0.21886688690E+02 -0.13361525718E+03 -0.34532317995E+01  0.13543998266E+03  0.00000000000E+00 0. -1.
        -14    1    4    4    0    0 -0.49100961076E+02 -0.32351260630E+02 -0.30531853742E+02  0.66254830283E+02  0.00000000000E+00 0.  1.
</event>
<event>
12    1  0.8344842E-002  0.1752650E+03  0.7818608E-02  0.1172683E+00
         21   -1    0    0  501  502  0.00000000000E+00  0.00000000000E+00  0.33534732262E+02  0.33534732262E+02  0.00000000000E+00 0. -1.
         21   -1    0    0  502  503 -0.00000000000E+00 -0.00000000000E+00 -0.10266221618E+04  0.10266221618E+04  0.00000000000E+00 0. -1.
         -6    2    1    2    0  503  0.25774817030E+02  0.78544589850E+01 -0.67513951694E+03  0.69751788016E+03  0.17318138495E+03 0.  0.
        -24    2    3    3    0    0 -0.24086271615E+02  0.60012850005E+02 -0.40488700017E+03  0.41775880751E+03  0.80045285274E+02 0.  0.
          6    2    1    2  501    0 -0.25774817030E+02 -0.78544589850E+01 -0.31794791256E+03  0.36263901386E+03  0.17230828638E+03 0.  0.
         24    2    5    5    0    0  0.11781647298E+02 -0.60620583112E+02 -0.24536243396E+03  0.26524551525E+03  0.79616562672E+02 0.  0.
          5    1    5    5  501    0 -0.37556464328E+02  0.52766124127E+02 -0.72585478604E+02  0.97393498615E+02  0.47000000000E+01 0. -1.
        -11    1    6    6    0    0  0.25743702546E+02  0.97900566210E+01 -0.49543098697E+02  0.56684231122E+02  0.00000000000E+00 0.  1.
         12    1    6    6    0    0 -0.13962055248E+02 -0.70410639733E+02 -0.19581933526E+03  0.20856128412E+03  0.00000000000E+00 0. -1.
         -5    1    3    3    0  503  0.49861088645E+02 -0.52158391020E+02 -0.27025251676E+03  0.27975907265E+03  0.47000000000E+01 0.  1.
         11    1    4    4    0    0  0.12311871113E+02  0.29724415434E+02 -0.48256213658E+02  0.57998148244E+02  0.00000000000E+00 0. -1.
        -12    1    4    4    0    0 -0.36398142728E+02  0.30288434571E+02 -0.35663078652E+03  0.35976065926E+03  0.00000000000E+00 0.  1.
</event>
<event>
12    1  0.8344842E-002  0.1772893E+03  0.7818608E-02  0.1171142E+00
         21   -1    0    0  501  502  0.00000000000E+00  0.00000000000E+00  0.10921743563E+03  0.10921743563E+03  0.00000000000E+00 0.  1.
         21   -1    0    0  502  503 -0.00000000000E+00 -0.00000000000E+00 -0.35393395721E+03  0.35393395721E+03  0.00000000000E+00 0.  1.
         -6    2    1    2    0  503 -0.24574809645E+02 -0.14498424215E+02 -0.22657048657E+03  0.28769022745E+03  0.17497815867E+03 0.  0.
        -24    2    3    3    0    0 -0.36554001586E+01  0.58814194368E+02 -0.12831619100E+03  0.16323799431E+03  0.81909257732E+02 0.  0.
          6    2    1    2  501    0  0.24574809645E+02  0.14498424215E+02 -0.18146035007E+02  0.17546116540E+03  0.17217205465E+03 0.  0.
         24    2    5    5    0    0 -0.92595904609E+01 -0.51714410984E+02 -0.23972450459E+02  0.10072868723E+03  0.82531628673E+02 0.  0.
          5    1    5    5  501    0  0.33834400105E+02  0.66212835199E+02  0.58264154513E+01  0.74732478164E+02  0.47000000000E+01 0. -1.
        -13    1    6    6    0    0 -0.44317330211E+02 -0.21715581315E+02 -0.23318170060E+02  0.54583232626E+02  0.00000000000E+00 0.  1.
         14    1    6    6    0    0  0.35057739750E+02 -0.29998829669E+02 -0.65428039823E+00  0.46145454606E+02  0.00000000000E+00 0. -1.
         -5    1    3    3    0  503 -0.20919409486E+02 -0.73312618583E+02 -0.98254295569E+02  0.12445223314E+03  0.47000000000E+01 0.  1.
         13    1    4    4    0    0 -0.31776218331E+02  0.37516287753E+02 -0.27292150530E+02  0.56232209443E+02  0.00000000000E+00 0. -1.
        -14    1    4    4    0    0  0.28120818173E+02  0.21297906615E+02 -0.10102404047E+03  0.10700578486E+03  0.00000000000E+00 0.  1.
</event>
<event>
12    1  0.8344842E-002  0.1759367E+03  0.7818608E-02  0.1172358E+00
         21   -1    0    0  503  502  0.00000000000E+00  0.00000000000E+00  0.51062296852E+02  0.51062296852E+02  0.00000000000E+00 0. -1.
         21   -1    0    0  501  503 -0.00000000000E+00 -0.00000000000E+00 -0.60129896605E+03  0.60129896605E+03  0.00000000000E+00 0. -1.
          6    2    1    2  501    0 -0.79607607289E+01 -0.24857016767E+02 -0.29565780439E+03  0.34290347678E+03  0.17172073869E+03 0.  0.
         24    2    3    3    0    0 -0.54664758023E+02 -0.20327365867E+02 -0.93014726104E+02  0.13484558032E+03  0.78295297987E+02 0.  0.
         -6    2    1    2    0  502  0.79607607289E+01  0.24857016767E+02 -0.25457886480E+03  0.30945778612E+03  0.17398987899E+03 0.  0.
        -24    2    5    5    0    0  0.17612562581E+02  0.18423492959E+02 -0.43227035990E+02  0.97735720549E+02  0.83869344681E+02 0.  0.
          5    1    3    3  501    0  0.46703997294E+02 -0.45296508999E+01 -0.20264307829E+03  0.20805789646E+03  0.47000000000E+01 0. -1.
        -11    1    4    4    0    0  0.17846036085E+02  0.71859140661E+01 -0.11902969437E+02  0.22622976071E+02  0.00000000000E+00 0.  1.
         12    1    4    4    0    0 -0.72510794108E+02 -0.27513279933E+02 -0.81111756666E+02  0.11222260425E+03  0.00000000000E+00 0. -1.
         -5    1    5    5    0  502 -0.96518018520E+01  0.64335238076E+01 -0.21135182881E+03  0.21172206557E+03  0.47000000000E+01 0.  1.
         13    1    6    6    0    0  0.24646220715E+02  0.43555132950E+02 -0.50032771939E+02  0.70765557087E+02  0.00000000000E+00 0. -1.
        -14    1    6    6    0    0 -0.70336581344E+01 -0.25131639991E+02  0.68057359488E+01  0.26970163463E+02  0.00000000000E+00 0.  1.
</event>
<event>
12    1  0.8344842E-002  0.1800477E+03  0.7818608E-02  0.1168103E+00
         21   -1    0    0  501  502  0.00000000000E+00  0.00000000000E+00  0.33808471125E+03  0.33808471125E+03  0.00000000000E+00 0. -1.
         21   -1    0    0  502  503 -0.00000000000E+00 -0.00000000000E+00 -0.24542534512E+03  0.24542534512E+03  0.00000000000E+00 0. -1.
         -6    2    1    2    0  503  0.18089636063E+02  0.52567040787E+02 -0.18191412434E+03  0.25594905649E+03  0.17125023262E+03 0.  0.
        -24    2    3    3    0    0  0.59854258681E+02  0.60564443303E+02 -0.17867854555E+03  0.21304449823E+03  0.78812127940E+02 0.  0.
          6    2    1    2  501    0 -0.18089636063E+02 -0.52567040787E+02  0.27457349047E+03  0.32756099988E+03  0.16975004643E+03 0.  0.
         24    2    5    5    0    0 -0.26373461027E+02 -0.79405322753E+02  0.10658567169E+03  0.15717639849E+03  0.79643895578E+02 0.  0.
          5    1    5    5  501    0  0.82838249636E+01  0.26838281965E+02  0.16798781878E+03  0.17038460139E+03  0.47000000000E+01 0. -1.
        -13    1    6    6    0    0  0.33931180545E+01  0.15355996425E+02  0.10028219763E+02  0.18651677350E+02  0.00000000000E+00 0.  1.
         14    1    6    6    0    0 -0.29766579081E+02 -0.94761319178E+02  0.96557451930E+02  0.13852472114E+03  0.00000000000E+00 0. -1.
         -5    1    3    3    0  503 -0.41764622618E+02 -0.79974025159E+01 -0.32355787942E+01  0.42904558261E+02  0.47000000000E+01 0.  1.
         13    1    4    4    0    0  0.78213865458E+02  0.49737217093E+02 -0.15895146489E+03  0.18400208614E+03  0.00000000000E+00 0. -1.
        -14    1    4    4    0    0 -0.18359606777E+02  0.10827226210E+02 -0.19727080660E+02  0.29042412086E+02  0.00000000000E+00 0.  1.
</event>
<event>
12    1  0.8344842E-002  0.2340294E+03  0.7818608E-02  0.1123858E+00
         21   -1    0    0  501  502  0.00000000000E+00  0.00000000000E+00  0.32347288776E+03  0.32347288776E+03  0.00000000000E+00 0.  1.
         21   -1    0    0  502  503 -0.00000000000E+00 -0.00000000000E+00 -0.18379680852E+03  0.18379680852E+03  0.00000000000E+00 0. -1.
         -6    2    1    2    0  503  0.15588088589E+03  0.28627961010E+02 -0.15662197466E+01  0.23403460247E+03  0.17219561949E+03 0.  0.
        -24    2    3    3    0    0  0.10236489025E+03 -0.33350888982E+02 -0.42966902880E+02  0.14215725924E+03  0.82290212412E+02 0.  0.
          6    2    1    2  501    0 -0.15588088589E+03 -0.28627961010E+02  0.14124229899E+03  0.27323509381E+03  0.17201633273E+03 0.  0.
         24    2    5    5    0    0 -0.46980137067E+02 -0.60471170746E+02  0.38144549794E+02  0.11985778457E+03  0.83946328519E+02 0.  0.
          5    1    5    5  501    0 -0.10890074883E+03  0.31843209736E+02  0.10309774920E+03  0.15337730924E+03  0.47000000000E+01 0. -1.
        -11    1    6    6    0    0 -0.64641447045E+02 -0.65935767773E+02  0.41214652185E+02  0.10111720775E+03  0.00000000000E+00 0.  1.
         12    1    6    6    0    0  0.17661309978E+02  0.54645970270E+01 -0.30701023910E+01  0.18740576819E+02  0.00000000000E+00 0. -1.
         -5    1    3    3    0  503  0.53515995646E+02  0.61978849993E+02  0.41400683133E+02  0.91877343237E+02  0.47000000000E+01 0.  1.
         13    1    4    4    0    0  0.68232716149E+02  0.16782997724E+02 -0.41257090411E+02  0.81483250272E+02  0.00000000000E+00 0. -1.
        -14    1    4    4    0    0  0.34132174100E+02 -0.50133886707E+02 -0.17098124684E+01  0.60674008964E+02  0.00000000000E+00 0.  1.
</event>
<event>
12    1  0.8344842E-002  0.1830839E+03  0.7818608E-02  0.1165344E+00
         21   -1    0    0  501  502  0.00000000000E+00  0.00000000000E+00  0.19883245468E+03  0.19883245468E+03  0.00000000000E+00 0. -1.
         21   -1    0    0  502  503 -0.00000000000E+00 -0.00000000000E+00 -0.44958299845E+03  0.44958299845E+03  0.00000000000E+00 0.  1.
         -6    2    1    2    0  503  0.19814534174E+02 -0.60719171146E+02 -0.38228872667E+03  0.42297809185E+03  0.16937048781E+03 0.  0.
        -24    2    3    3    0    0 -0.52572059886E+02 -0.42392823105E+02 -0.25444577205E+03  0.27485116966E+03  0.78990769197E+02 0.  0.
          6    2    1    2  501    0 -0.19814534174E+02  0.60719171146E+02  0.13153818290E+03  0.22543736129E+03  0.17158169131E+03 0.  0.
         24    2    5    5    0    0  0.43303938471E+02 -0.28347714703E+01  0.35092171498E+02  0.93729471143E+02  0.75302631056E+02 0.  0.
          5    1    5    5  501    0 -0.63118472645E+02  0.63553942617E+02  0.96446011401E+02  0.13170789014E+03  0.47000000000E+01 0. -1.
        -11    1    6    6    0    0 -0.35881470381E+01 -0.26343723850E+02  0.31400876344E+02  0.41144642672E+02  0.00000000000E+00 0.  1.
         12    1    6    6    0    0  0.46892085509E+02  0.23508952380E+02  0.36912951541E+01  0.52584828471E+02  0.00000000000E+00 0. -1.
         -5    1    3    3    0  503  0.72386594060E+02 -0.18326348041E+02 -0.12784295461E+03  0.14812692219E+03  0.47000000000E+01 0.  1.
         13    1    4    4    0    0 -0.45191527613E+02 -0.14812934627E+02 -0.23626430788E+03  0.24100315429E+03  0.00000000000E+00 0. -1.
        -14    1    4    4    0    0 -0.73805322735E+01 -0.27579888478E+02 -0.18181464170E+02  0.33848015370E+02  0.00000000000E+00 0.  1.
</event>
<event>
12    1  0.8344842E-002  0.2212938E+03  0.7818608E-02  0.1133045E+00
         21   -1    0    0  501  502  0.00000000000E+00  0.00000000000E+00  0.19124453546E+03  0.19124453546E+03  0.00000000000E+00 0. -1.
         21   -1    0    0  502  503 -0.00000000000E+00 -0.00000000000E+00 -0.56263129747E+03  0.56263129747E+03  0.00000000000E+00 0. -1.
         -6    2    1    2    0  503 -0.12488922409E+03 -0.58802466954E+02 -0.46440787255E+03  0.51443718044E+03  0.17296211180E+03 0.  0.
        -24    2    3    3    0    0 -0.48310852378E+02  0.29997370755E+02 -0.27077013704E+03  0.28801429996E+03  0.80012431280E+02 0.  0.
          6    2    1    2  501    0  0.12488922409E+03  0.58802466954E+02  0.93021110534E+02  0.23943865249E+03  0.17211302358E+03 0.  0.
         24    2    5    5    0    0  0.33797178836E+02 -0.58776214837E+01  0.10158762573E+03  0.12729254363E+03  0.68604301845E+02 0.  0.
          5    1    5    5  501    0  0.91092045254E+02  0.64680088438E+02 -0.85665151947E+01  0.11214610886E+03  0.47000000000E+01 0. -1.
        -13    1    6    6    0    0 -0.75279186402E+01  0.13516975104E+02  0.70220371964E+02  0.71904650849E+02  0.00000000000E+00 0.  1.
         14    1    6    6    0    0  0.41325097476E+02 -0.19394596588E+02  0.31367253765E+02  0.55387892783E+02  0.00000000000E+00 0. -1.
         -5    1    3    3    0  503 -0.76578371711E+02 -0.88799837709E+02 -0.19363773550E+03  0.22642288047E+03  0.47000000000E+01 0.  1.
         11    1    4    4    0    0 -0.66670238936E+02  0.39139125077E+02 -0.22325697405E+03  0.23626355693E+03  0.00000000000E+00 0. -1.
        -12    1    4    4    0    0  0.18359386557E+02 -0.91417543222E+01 -0.47513162991E+02  0.51750743030E+02  0.00000000000E+00 0.  1.
</event>
<event>
12    1  0.8344842E-002  0.1853158E+03  0.7818608E-02  0.1162941E+00
         21   -1    0    0  501  502  0.00000000000E+00  0.00000000000E+00  0.18384903070E+03  0.18384903070E+03  0.00000000000E+00 0.  1.
         21   -1    0    0  502  503 -0.00000000000E+00 -0.00000000000E+00 -0.18601257640E+03  0.18601257640E+03  0.00000000000E+00 0. -1.
         -6    2    1    2    0  503  0.49187684231E+02 -0.45663338726E+02  0.74496450243E+00  0.18452299886E+03  0.17188255686E+03 0.  0.
        -24    2    3    3    0    0 -0.26466748909E+02 -0.54334579339E+02 -0.24041977407E+02  0.10430288818E+03  0.81537356445E+02 0.  0.
          6    2    1    2  501    0 -0.49187684231E+02  0.45663338726E+02 -0.29085102030E+01  0.18533860825E+03  0.17273497472E+03 0.  0.
         24    2    5    5    0    0 -0.32687801274E+02  0.44758765855E+02  0.63422069441E+02  0.11681926656E+03  0.80947777447E+02 0.  0.
          5    1    5    5  501    0 -0.16499882958E+02  0.90457287071E+00 -0.66330579644E+02  0.68519341690E+02  0.47000000000E+01 0. -1.
        -13    1    6    6    0    0 -0.15561865552E+02  0.61854717795E+02  0.66829968630E+02  0.92381938062E+02  0.00000000000E+00 0.  1.
         14    1    6    6    0    0 -0.17125935721E+02 -0.17095951939E+02 -0.34078991898E+01  0.24437328494E+02  0.00000000000E+00 0. -1.
         -5    1    3    3    0  503  0.75654433140E+02  0.86712406131E+01  0.24786941910E+02  0.80220110676E+02  0.47000000000E+01 0.  1.
         13    1    4    4    0    0  0.18814846677E+02 -0.50802833890E+02 -0.23045271851E+02  0.58872837042E+02  0.00000000000E+00 0. -1.
        -14    1    4    4    0    0 -0.45281595586E+02 -0.35317454495E+01 -0.99670555607E+00  0.45430051141E+02  0.00000000000E+00 0.  1.
</event>
<event>
12    1  0.8344842E-002  0.1894031E+03  0.7818608E-02  0.1159135E+00
         21   -1    0    0  503  502  0.00000000000E+00  0.00000000000E+00  0.14090363519E+03  0.14090363519E+03  0.00000000000E+00 0.  1.
         21   -1    0    0  501  503 -0.00000000000E+00 -0.00000000000E+00 -0.27621465885E+03  0.27621465885E+03  0.00000000000E+00 0.  1.
          6    2    1    2  501    0 -0.48605899700E+02  0.64497550486E+02 -0.83439641263E+01  0.18958677257E+03  0.17132149629E+03 0.  0.
         24    2    3    3    0    0 -0.24368267848E+02  0.97489108887E+02  0.31849420313E+02  0.13202372994E+03  0.79485475806E+02 0.  0.
         -6    2    1    2    0  502  0.48605899700E+02 -0.64497550486E+02 -0.12696705953E+03  0.22753152148E+03  0.17066778125E+03 0.  0.
        -24    2    5    5    0    0 -0.34838036477E+02 -0.48966001415E+02 -0.52607221054E+02  0.11459085086E+03  0.82171681945E+02 0.  0.
          5    1    3    3  501    0 -0.24237631852E+02 -0.32991558402E+02 -0.40193384440E+02  0.57563042625E+02  0.47000000000E+01 0. -1.
        -13    1    4    4    0    0 -0.38524987148E+02  0.54380055092E+02 -0.13362144131E+02  0.67969933958E+02  0.00000000000E+00 0.  1.
         14    1    4    4    0    0  0.14156719299E+02  0.43109053796E+02  0.45211564445E+02  0.64053795984E+02  0.00000000000E+00 0. -1.
         -5    1    5    5    0  502  0.83443936177E+02 -0.15531549071E+02 -0.74359838479E+02  0.11294067062E+03  0.47000000000E+01 0.  1.
         13    1    6    6    0    0 -0.57542741685E+02 -0.18948389178E+02 -0.17346270115E+02  0.63016677633E+02  0.00000000000E+00 0. -1.
        -14    1    6    6    0    0  0.22704705207E+02 -0.30017612236E+02 -0.35260950939E+02  0.51574173227E+02  0.00000000000E+00 0.  1.
</event>
<event>
12    1  0.8344842E-002  0.1703548E+03  0.7818608E-02  0.1178065E+00
         21   -1    0    0  501  502  0.00000000000E+00  0.00000000000E+00  0.72880818317E+03  0.72880818317E+03  0.00000000000E+00 0.  1.
         21   -1    0    0  502  503 -0.00000000000E+00 -0.00000000000E+00 -0.56827183552E+02  0.56827183552E+02  0.00000000000E+00 0.  1.
         -6    2    1    2    0  503 -0.35721204093E+01 -0.11034272024E+02  0.11935943752E+03  0.20800824676E+03  0.16995952516E+03 0.  0.
        -24    2    3    3    0    0  0.15665797491E+02  0.28973352188E+02  0.51829789113E+01  0.85415175256E+02  0.78638518206E+02 0.  0.
          6    2    1    2  501    0  0.35721204093E+01  0.11034272024E+02  0.55262156210E+03  0.57762711996E+03  0.16771399350E+03 0.  0.
         24    2    5    5    0    0 -0.57459810329E+01 -0.13656541573E+01  0.11548169377E+03  0.14018690728E+03  0.79255700545E+02 0.  0.
          5    1    5    5  501    0  0.93181014422E+01  0.12399926182E+02  0.43713986833E+03  0.43744021268E+03  0.47000000000E+01 0. -1.
        -13    1    6    6    0    0  0.25071334960E+02 -0.78465240290E+01  0.10302447693E+03  0.10632112971E+03  0.00000000000E+00 0.  1.
         14    1    6    6    0    0 -0.30817315993E+02  0.64808698717E+01  0.12457216836E+02  0.33865777572E+02  0.00000000000E+00 0. -1.
         -5    1    3    3    0  503 -0.19237917900E+02 -0.40007624213E+02  0.11417645860E+03  0.12259307150E+03  0.47000000000E+01 0.  1.
         11    1    4    4    0    0  0.15939962973E+02  0.43455711569E+02  0.31072317312E+02  0.55749172108E+02  0.00000000000E+00 0. -1.
        -12    1    4    4    0    0 -0.27416548235E+00 -0.14482359381E+02 -0.25889338401E+02  0.29666003148E+02  0.00000000000E+00 0.  1.
</event>
<event>
12    1  0.8344842E-002  0.1769001E+03  0.7818608E-02  0.1170865E+00
         21   -1    0    0  503  502  0.00000000000E+00  0.00000000000E+00  0.23604656235E+03  0.23604656235E+03  0.00000000000E+00 0. -1.
         21   -1    0    0  501  503 -0.00000000000E+00 -0.00000000000E+00 -0.18014351673E+03  0.18014351673E+03  0.00000000000E+00 0. -1.
          6    2    1    2  501    0  0.15992827093E+02 -0.36025873358E+02 -0.79070432859E+02  0.19376737209E+03  0.17245297059E+03 0.  0.
         24    2    3    3    0    0  0.56551932123E+02  0.26428195496E+02 -0.36634168637E+02  0.10792753147E+03  0.80060721911E+02 0.  0.
         -6    2    1    2    0  502 -0.15992827093E+02  0.36025873358E+02  0.13497347848E+03  0.22242270698E+03  0.17233800109E+03 0.  0.
        -24    2    5    5    0    0  0.36277684342E+02  0.49580154478E+02  0.13619655414E+03  0.16820545128E+03  0.77261312306E+02 0.  0.
          5    1    3    3  501    0 -0.40559105029E+02 -0.62454068853E+02 -0.42436264222E+02  0.85839840623E+02  0.47000000000E+01 0. -1.
        -13    1    4    4    0    0 -0.12821735470E+02 -0.10600550682E+02  0.69385024556E+01  0.18025298654E+02  0.00000000000E+00 0.  1.
         14    1    4    4    0    0  0.69373667593E+02  0.37028746178E+02 -0.43572671093E+02  0.89902232814E+02  0.00000000000E+00 0. -1.
         -5    1    5    5    0  502 -0.52270511435E+02 -0.13554281120E+02 -0.12230756638E+01  0.54217255708E+02  0.47000000000E+01 0.  1.
         11    1    6    6    0    0  0.15919459045E+01 -0.14187395754E+02  0.64921887801E+02  0.66473062256E+02  0.00000000000E+00 0. -1.
        -12    1    6    6    0    0  0.34685738437E+02  0.63767550232E+02  0.71274666341E+02  0.10173238902E+03  0.00000000000E+00 0.  1.
</event>
<event>
12    1  0.8344842E-002  0.2080030E+03  0.7818608E-02  0.1143607E+00
         21   -1    0    0  501  502  0.00000000000E+00  0.00000000000E+00  0.66151900964E+02  0.66151900964E+02  0.00000000000E+00 0. -1.
         21   -1    0    0  502  503 -0.00000000000E+00 -0.00000000000E+00 -0.77961947068E+03  0.77961947068E+03  0.00000000000E+00 0.  1.
         -6    2    1    2    0  503 -0.21959335480E+02 -0.11308385678E+03 -0.18393526383E+03  0.27766426528E+03  0.17319091159E+03 0.  0.
        -24    2    3    3    0    0 -0.15315036810E+02 -0.13095403656E+03 -0.82834046183E+02  0.17467379854E+03  0.79157732695E+02 0.  0.
          6    2    1    2  501    0  0.21959335480E+02  0.11308385678E+03 -0.52953230588E+03  0.56810710636E+03  0.17050234673E+03 0.  0.
         24    2    5    5    0    0  0.72056509040E+02  0.11006660258E+03 -0.42927604883E+03  0.45589196611E+03  0.79074402739E+02 0.  0.
          5    1    5    5  501    0 -0.50097173560E+02  0.30172541935E+01 -0.10025625705E+03  0.11221514024E+03  0.47000000000E+01 0. -1.
        -13    1    6    6    0    0  0.12717545660E+02  0.85842249298E+01 -0.58025586342E+01  0.16404102290E+02  0.00000000000E+00 0.  1.
         14    1    6    6    0    0  0.59338963381E+02  0.10148237765E+03 -0.42347349019E+03  0.43948786382E+03  0.00000000000E+00 0. -1.
         -5    1    3    3    0  503 -0.66442986702E+01  0.17870179782E+02 -0.10110121765E+03  0.10299046675E+03  0.47000000000E+01 0.  1.
         13    1    4    4    0    0  0.25576039269E+02 -0.16548970095E+02 -0.28011845679E+02  0.41384365336E+02  0.00000000000E+00 0. -1.
        -14    1    4    4    0    0 -0.40891076079E+02 -0.11440506647E+03 -0.54822200504E+02  0.13328943320E+03  0.00000000000E+00 0.  1.
</event>
<event>
12    1  0.8344842E-002  0.1780430E+03  0.7818608E-02  0.1170047E+00
         21   -1    0    0  501  502  0.00000000000E+00  0.00000000000E+00  0.63927740361E+02  0.63927740361E+02  0.00000000000E+00 0. -1.
         21   -1    0    0  502  503 -0.00000000000E+00 -0.00000000000E+00 -0.54503560609E+03  0.54503560609E+03  0.00000000000E+00 0. -1.
         -6    2    1    2    0  503  0.37841061191E+02 -0.30571253083E+01 -0.14647276153E+03  0.23055063702E+03  0.17394836715E+03 0.  0.
        -24    2    3    3    0    0  0.42701566245E+02 -0.30820886880E+02 -0.13594945033E+02  0.94635019516E+02  0.77444260992E+02 0.  0.
          6    2    1    2  501    0 -0.37841061191E+02  0.30571253083E+01 -0.33463510420E+03  0.37841270943E+03  0.17255211898E+03 0.  0.
         24    2    5    5    0    0  0.16423774206E+02  0.44997420912E+02 -0.26350317530E+03  0.27949101279E+03  0.79917423568E+02 0.  0.
          5    1    5    5  501    0 -0.54264835397E+02 -0.41940295604E+02 -0.71131928897E+02  0.98921696633E+02  0.47000000000E+01 0. -1.
        -13    1    6    6    0    0 -0.24437636025E+02  0.43119172334E+02 -0.11034766683E+03  0.12096722139E+03  0.00000000000E+00 0.  1.
         14    1    6    6    0    0  0.40861410231E+02  0.18782485787E+01 -0.15315550847E+03  0.15852379140E+03  0.00000000000E+00 0. -1.
         -5    1    3    3    0  503 -0.48605050539E+01  0.27763761572E+02 -0.13287781649E+03  0.13591561751E+03  0.47000000000E+01 0.  1.
         11    1    4    4    0    0  0.34257832669E+00  0.15173069582E+02 -0.26734043791E+02  0.30741641106E+02  0.00000000000E+00 0. -1.
        -12    1    4    4    0    0  0.42358987918E+02 -0.45993956462E+02  0.13139098758E+02  0.63893378410E+02  0.00000000000E+00 0.  1.
</event>
<event>
12    1  0.8344842E-002  0.1731331E+03  0.7818608E-02  0.1174898E+00
         21   -1    0    0  501  502  0.00000000000E+00  0.00000000000E+00  0.70149117233E+02  0.70149117233E+02  0.00000000000E+00 0. -1.
         21   -1    0    0  502  503 -0.00000000000E+00 -0.00000000000E+00 -0.61346460360E+03  0.61346460360E+03  0.00000000000E+00 0. -1.
         -6    2    1    2    0  503 -0.25635042545E+02  0.24395915283E+02 -0.46070874534E+03  0.49178317721E+03  0.16836219668E+03 0.  0.
        -24    2    3    3    0    0 -0.75945373625E+02  0.20215979872E+01 -0.36780161123E+03  0.38368338510E+03  0.78505593051E+02 0.  0.
          6    2    1    2  501    0  0.25635042545E+02 -0.24395915283E+02 -0.82606741033E+02  0.19183054362E+03  0.16947792692E+03 0.  0.
         24    2    5    5    0    0  0.73264153532E+01  0.40020103661E+02 -0.69733261536E+01  0.90701256212E+02  0.80763887610E+02 0.  0.
          5    1    5    5  501    0  0.18308627192E+02 -0.64416018944E+02 -0.75633414879E+02  0.10112928741E+03  0.47000000000E+01 0. -1.
        -13    1    6    6    0    0  0.26467506569E+02 -0.12088330303E+01 -0.29767317066E+02  0.39850763438E+02  0.00000000000E+00 0.  1.
         14    1    6    6    0    0 -0.19141091216E+02  0.41228936691E+02  0.22793990913E+02  0.50850492774E+02  0.00000000000E+00 0. -1.
         -5    1    3    3    0  503  0.50310331080E+02  0.22374317295E+02 -0.92907134102E+02  0.10809979211E+03  0.47000000000E+01 0.  1.
         13    1    4    4    0    0 -0.69935984889E+02 -0.26949302282E+02 -0.30766280161E+03  0.31666023807E+03  0.00000000000E+00 0. -1.
        -14    1    4    4    0    0 -0.60093887362E+01  0.28970900269E+02 -0.60138809621E+02  0.67023147032E+02  0.00000000000E+00 0.  1.
</event>
<event>
12    1  0.8344842E-002  0.2077586E+03  0.7818608E-02  0.1143504E+00
         21   -1    0    0  503  502  0.00000000000E+00  0.00000000000E+00  0.15882661715E+03  0.15882661715E+03  0.00000000000E+00 0. -1.
         21   -1    0    0  501  503 -0.00000000000E+00 -0.00000000000E+00 -0.46929071692E+03  0.46929071692E+03  0.00000000000E+00 0. -1.
          6    2    1    2  501    0  0.11158771987E+03 -0.35463796653E+02 -0.35964772176E+03  0.41534338019E+03  0.17162208366E+03 0.  0.
         24    2    3    3    0    0 -0.25651276217E+01 -0.83691627291E+01 -0.21092688553E+03  0.22585731498E+03  0.80279218529E+02 0.  0.
         -6    2    1    2    0  502 -0.11158771987E+03  0.35463796653E+02  0.49183621983E+02  0.21277395388E+03  0.17071680257E+03 0.  0.
        -24    2    5    5    0    0 -0.79477558941E+02  0.40996359690E+02  0.97952626165E+02  0.15393368317E+03  0.78124758936E+02 0.  0.
          5    1    3    3  501    0  0.11415284749E+03 -0.27094633924E+02 -0.14872083623E+03  0.18948606520E+03  0.47000000000E+01 0. -1.
        -11    1    4    4    0    0 -0.47612544532E+01 -0.38540692147E+01 -0.21749985668E+03  0.21758610031E+03  0.00000000000E+00 0.  1.
         12    1    4    4    0    0  0.21961268314E+01 -0.45150935144E+01  0.65729711462E+01  0.82712146746E+01  0.00000000000E+00 0. -1.
         -5    1    5    5    0  502 -0.32110160929E+02 -0.55325630372E+01 -0.48769004182E+02  0.58840270713E+02  0.47000000000E+01 0.  1.
         13    1    6    6    0    0 -0.50466342525E+02  0.97567707446E+01  0.49666795170E+01  0.51640238271E+02  0.00000000000E+00 0. -1.
        -14    1    6    6    0    0 -0.29011216416E+02  0.31239588945E+02  0.92985946649E+02  0.10229344490E+03  0.00000000000E+00 0.  1.
</event>
<event>
12    1  0.8344842E-002  0.1899489E+03  0.7818608E-02  0.1158692E+00
         21   -1    0    0  503  502  0.00000000000E+00  0.00000000000E+00  0.10141772353E+03  0.10141772353E+03  0.00000000000E+00 0.  1.
         21   -1    0    0  501  503 -0.00000000000E+00 -0.00000000000E+00 -0.37089798169E+03  0.37089798169E+03  0.00000000000E+00 0.  1.
          6    2    1    2  501    0  0.21854380971E+02  0.77034686139E+02 -0.18452030404E+03  0.26423214256E+03  0.17134446510E+03 0.  0.
         24    2    3    3    0    0 -0.32293736587E+02  0.95018743242E+02 -0.10322205159E+03  0.16479904547E+03  0.80202783391E+02 0.  0.
         -6    2    1    2    0  502 -0.21854380971E+02 -0.77034686139E+02 -0.84959954122E+02  0.20808356266E+03  0.17224580810E+03 0.  0.
        -24    2    5    5    0    0  0.51881185977E+02 -0.49949385351E+02 -0.65189203597E+02  0.12694466984E+03  0.81723426140E+02 0.  0.
          5    1    3    3  501    0  0.54148117557E+02 -0.17984057103E+02 -0.81298252454E+02  0.99433097090E+02  0.47000000000E+01 0. -1.
        -11    1    4    4    0    0  0.19805048811E+02  0.48842060869E+02 -0.70103113775E+02  0.87705378565E+02  0.00000000000E+00 0.  1.
         12    1    4    4    0    0 -0.52098785398E+02  0.46176682373E+02 -0.33118937813E+02  0.77093666905E+02  0.00000000000E+00 0. -1.
         -5    1    5    5    0  502 -0.73735566947E+02 -0.27085300789E+02 -0.19770750525E+02  0.81138892821E+02  0.47000000000E+01 0.  1.
         11    1    6    6    0    0 -0.14870409054E+02  0.11013554908E+02 -0.10112016815E+02  0.21087445109E+02  0.00000000000E+00 0. -1.
        -12    1    6    6    0    0  0.66751595030E+02 -0.60962940259E+02 -0.55077186782E+02  0.10585722473E+03  0.00000000000E+00 0.  1.
</event>
<event>
12    1  0.8344842E-002  0.1847219E+03  0.7818608E-02  0.1164059E+00
         21   -1    0    0  503  502  0.00000000000E+00  0.00000000000E+00  0.12863756523E+03  0.12863756523E+03  0.00000000000E+00 0. -1.
         21   -1    0    0  501  503 -0.00000000000E+00 -0.00000000000E+00 -0.42607180737E+03  0.42607180737E+03  0.00000000000E+00 0. -1.
          6    2    1    2  501    0  0.63494698262E+02  0.13813693709E+02 -0.32070580963E+03  0.36852731945E+03  0.16952219328E+03 0.  0.
         24    2    3    3    0    0  0.92768859747E+02  0.22190720964E+02 -0.14836106977E+03  0.19345033504E+03  0.79457760269E+02 0.  0.
         -6    2    1    2    0  502 -0.63494698262E+02 -0.13813693709E+02  0.23271567486E+02  0.18618205316E+03  0.17291557542E+03 0.  0.
        -24    2    5    5    0    0 -0.90199371557E+02 -0.49749869227E+02  0.39263275778E+02  0.13840786535E+03  0.83690837299E+02 0.  0.
          5    1    3    3  501    0 -0.29274161484E+02 -0.83770272547E+01 -0.17234473985E+03  0.17507698441E+03  0.47000000000E+01 0. -1.
        -13    1    4    4    0    0  0.15907453886E+02  0.32576726872E+02 -0.15121226246E+02  0.39280296664E+02  0.00000000000E+00 0.  1.
         14    1    4    4    0    0  0.76861405861E+02 -0.10386005908E+02 -0.13323984353E+03  0.15417003837E+03  0.00000000000E+00 0. -1.
         -5    1    5    5    0  502  0.26704673295E+02  0.35936175517E+02 -0.15991708291E+02  0.47774187808E+02  0.47000000000E+01 0.  1.
         11    1    6    6    0    0 -0.53945153005E+02 -0.41715735757E+02  0.64215698646E+02  0.93669301775E+02  0.00000000000E+00 0. -1.
        -12    1    6    6    0    0 -0.36254218553E+02 -0.80341334693E+01 -0.24952422868E+02  0.44738563572E+02  0.00000000000E+00 0.  1.
</event>
<event>
12    1  0.8344842E-002  0.2920173E+03  0.7818608E-02  0.1089484E+00
         21   -1    0    0  503  502  0.00000000000E+00  0.00000000000E+00  0.42717192658E+03  0.42717192658E+03  0.00000000000E+00 0.  1.
         21   -1    0    0  501  503 -0.00000000000E+00 -0.00000000000E+00 -0.55876492768E+03  0.55876492768E+03  0.00000000000E+00 0. -1.
          6    2    1    2  501    0 -0.12941064114E+03  0.19552228461E+03 -0.46160161877E+03  0.54621441058E+03  0.17406335068E+03 0.  0.
         24    2    3    3    0    0 -0.89980921906E+02  0.82961075150E+02 -0.36367793783E+03  0.39182572601E+03  0.79288402693E+02 0.  0.
         -6    2    1    2    0  502  0.12941064114E+03 -0.19552228461E+03  0.33000861767E+03  0.43972244368E+03  0.17168011511E+03 0.  0.
        -24    2    5    5    0    0  0.42265688725E+02 -0.17532175087E+02  0.15014019293E+03  0.17204827228E+03  0.70461087521E+02 0.  0.
          5    1    3    3  501    0 -0.39429719236E+02  0.11256120946E+03 -0.97923680943E+02  0.15438868457E+03  0.47000000000E+01 0. -1.
        -13    1    4    4    0    0 -0.34079457971E+02  0.62027030605E+02 -0.28147318883E+03  0.29023424680E+03  0.00000000000E+00 0.  1.
         14    1    4    4    0    0 -0.55901463935E+02  0.20934044545E+02 -0.82204748993E+02  0.10159147921E+03  0.00000000000E+00 0. -1.
         -5    1    5    5    0  502  0.87144952417E+02 -0.17799010952E+03  0.17986842474E+03  0.26767417141E+03  0.47000000000E+01 0.  1.
         13    1    6    6    0    0  0.10062772798E+02  0.16885710333E+02  0.62368864233E+01  0.20622448014E+02  0.00000000000E+00 0. -1.
        -14    1    6    6    0    0  0.32202915927E+02 -0.34417885420E+02  0.14390330650E+03  0.15142582426E+03  0.00000000000E+00 0.  1.
</event>
<event>
12    1  0.8344842E-002  0.1738805E+03  0.7818608E-02  0.1174278E+00
         21   -1    0    0  503  502  0.00000000000E+00  0.00000000000E+00  0.14149284660E+04  0.14149284660E+04  0.00000000000E+00 0. -1.
         21   -1    0    0  501  503 -0.00000000000E+00 -0.00000000000E+00 -0.24851534728E+02  0.24851534728E+02  0.00000000000E+00 0. -1.
          6    2    1    2  501    0  0.66886679542E+01  0.20481209615E+02  0.41504550548E+03  0.44936558940E+03  0.17088722331E+03 0.  0.
         24    2    3    3    0    0 -0.11209112415E+02 -0.60813142900E+01  0.40833938755E+03  0.41630564028E+03  0.80041889758E+02 0.  0.
         -6    2    1    2    0  502 -0.66886679542E+01 -0.20481209615E+02  0.97503142577E+03  0.99041441131E+03  0.17254044935E+03 0.  0.
        -24    2    5    5    0    0 -0.15227650925E+02  0.13912464037E+02  0.21806628204E+03  0.23260562419E+03  0.78275379474E+02 0.  0.
          5    1    3    3  501    0  0.17897780369E+02  0.26562523905E+02  0.67061179319E+01  0.33059949124E+02  0.47000000000E+01 0. -1.
        -11    1    4    4    0    0  0.92818822118E+01 -0.20518749267E+02  0.31987785053E+02  0.39120209630E+02  0.00000000000E+00 0.  1.
         12    1    4    4    0    0 -0.20490994627E+02  0.14437434977E+02  0.37635160250E+03  0.37718543065E+03  0.00000000000E+00 0. -1.
         -5    1    5    5    0  502  0.85389829703E+01 -0.34393673652E+02  0.75696514373E+03  0.75780878713E+03  0.47000000000E+01 0.  1.
         11    1    6    6    0    0 -0.18417371755E+02 -0.20694052629E+02  0.17541105823E+03  0.17758514225E+03  0.00000000000E+00 0. -1.
        -12    1    6    6    0    0  0.31897208304E+01  0.34606516666E+02  0.42655223807E+02  0.55020481938E+02  0.00000000000E+00 0.  1.
</event>
<event>
12    1  0.8344842E-002  0.1949420E+03  0.7818608E-02  0.1154610E+00
         21   -1    0    0  503  502  0.00000000000E+00  0.00000000000E+00  0.35101453828E+02  0.35101453828E+02  0.00000000000E+00 0. -1.
         21   -1    0    0  501  503 -0.00000000000E+00 -0.00000000000E+00 -0.17418430274E+04  0.17418430274E+04  0.00000000000E+00 0.  1.
          6    2    1    2  501    0 -0.72270385403E+02 -0.57056707832E+02 -0.14021926220E+04  0.14153473867E+04  0.16907276366E+03 0.  0.
         24    2    3    3    0    0 -0.10276936060E+03 -0.74139781573E+02 -0.12603072712E+04  0.12691435507E+04  0.79326450602E+02 0.  0.
         -6    2    1    2    0  502  0.72270385403E+02  0.57056707832E+02 -0.30454895152E+03  0.36159709445E+03  0.17182525520E+03 0.  0.
        -24    2    5    5    0    0  0.45430614784E+02 -0.16077979602E+02 -0.24860243116E+03  0.26557022876E+03  0.80012095578E+02 0.  0.
          5    1    3    3  501    0  0.30498975198E+02  0.17083073740E+02 -0.14188535080E+03  0.14620383603E+03  0.47000000000E+01 0. -1.
        -11    1    4    4    0    0 -0.58303730194E+02 -0.16426171962E+02 -0.86920909167E+03  0.87131715760E+03  0.00000000000E+00 0.  1.
         12    1    4    4    0    0 -0.44465630407E+02 -0.57713609611E+02 -0.39109817953E+03  0.39782639311E+03  0.00000000000E+00 0. -1.
         -5    1    5    5    0  502  0.26839770619E+02  0.73134687434E+02 -0.55946520362E+02  0.96026865686E+02  0.47000000000E+01 0.  1.
         11    1    6    6    0    0 -0.17941459084E+02 -0.18605642279E+02 -0.40739910555E+02  0.48247343872E+02  0.00000000000E+00 0. -1.
        -12    1    6    6    0    0  0.63372073869E+02  0.25276626776E+01 -0.20786252060E+03  0.21732288489E+03  0.00000000000E+00 0.  1.
</event>
<event>
12    1  0.8344842E-002  0.2242763E+03  0.7818608E-02  0.1130988E+00
         21   -1    0    0  501  502  0.00000000000E+00  0.00000000000E+00  0.15574685128E+03  0.15574685128E+03  0.00000000000E+00 0. -1.
         21   -1    0    0  502  503 -0.00000000000E+00 -0.00000000000E+00 -0.41026561804E+03  0.41026561804E+03  0.00000000000E+00 0.  1.
         -6    2    1    2    0  503 -0.42493570669E+02 -0.13725640517E+03 -0.25960624338E+03  0.34306741934E+03  0.17220577313E+03 0.  0.
        -24    2    3    3    0    0 -0.80578651130E+02 -0.34719069902E+02 -0.14047004128E+03  0.18126537013E+03  0.73667965070E+02 0.  0.
          6    2    1    2  501    0  0.42493570669E+02  0.13725640517E+03  0.50874766269E+01  0.22294504998E+03  0.17039245460E+03 0.  0.
         24    2    5    5    0    0 -0.46291545284E+02  0.35092975832E+02  0.42923531990E+01  0.87509141411E+02  0.65306978317E+02 0.  0.
          5    1    5    5  501    0  0.88785115954E+02  0.10216342934E+03  0.79512342786E+00  0.13543590857E+03  0.47000000000E+01 0. -1.
        -13    1    6    6    0    0  0.13118113540E+02 -0.33128747784E+01 -0.79828724174E+01  0.15709433287E+02  0.00000000000E+00 0.  1.
         14    1    6    6    0    0 -0.59409658825E+02  0.38405850611E+02  0.12275225616E+02  0.71799708124E+02  0.00000000000E+00 0. -1.
         -5    1    3    3    0  503  0.38085080460E+02 -0.10253733527E+03 -0.11913620210E+03  0.16180204921E+03  0.47000000000E+01 0.  1.
         13    1    4    4    0    0 -0.38820446631E+02 -0.48510271670E+02 -0.46797520772E+02  0.77783555361E+02  0.00000000000E+00 0. -1.
        -14    1    4    4    0    0 -0.41758204499E+02  0.13791201768E+02 -0.93672520508E+02  0.10348181477E+03  0.00000000000E+00 0.  1.
</event>
<event>
12    1  0.8344842E-002  0.2700452E+03  0.7818608E-02  0.1101525E+00
         21   -1    0    0  501  502  0.00000000000E+00  0.00000000000E+00  0.13507183534E+04  0.13507183534E+04  0.00000000000E+00 0. -1.
         21   -1    0    0  502  503 -0.00000000000E+00 -0.00000000000E+00 -0.14949714097E+03  0.14949714097E+03  0.00000000000E+00 0.  1.
         -6    2    1    2    0  503  0.10794025885E+03 -0.17733288093E+03 -0.88142208167E+00  0.26815414588E+03  0.16972866261E+03 0.  0.
        -24    2    3    3    0    0 -0.48506016697E+01 -0.59915255909E+02 -0.20029553709E+02  0.10414982330E+03  0.82659763148E+02 0.  0.
          6    2    1    2  501    0 -0.10794025885E+03  0.17733288093E+03  0.12021026345E+04  0.12320613485E+04  0.17270313376E+03 0.  0.
         24    2    5    5    0    0 -0.10084425149E+03  0.14609774813E+03  0.11710349541E+04  0.11871917863E+04  0.81162545288E+02 0.  0.
          5    1    5    5  501    0 -0.70960073656E+01  0.31235132797E+02  0.31067680393E+02  0.44869562137E+02  0.47000000000E+01 0. -1.
        -13    1    6    6    0    0  0.66562499240E+01 -0.53409546252E+01  0.32113229029E+02  0.33227863880E+02  0.00000000000E+00 0.  1.
         14    1    6    6    0    0 -0.10750050141E+03  0.15143870275E+03  0.11389217251E+04  0.11539639224E+04  0.00000000000E+00 0. -1.
         -5    1    3    3    0  503  0.11279086052E+03 -0.11741762502E+03  0.19148131627E+02  0.16400432259E+03  0.47000000000E+01 0.  1.
         11    1    4    4    0    0 -0.32965017689E+02 -0.64370397192E+02 -0.22066062536E+02  0.75611847893E+02  0.00000000000E+00 0. -1.
        -12    1    4    4    0    0  0.28114416019E+02  0.44551412835E+01  0.20365088268E+01  0.28537975404E+02  0.00000000000E+00 0.  1.
</event>
<event>
12    1  0.8344842E-002  0.2030464E+03  0.7818608E-02  0.1148211E+00
         21   -1    0    0  503  502  0.00000000000E+00  0.00000000000E+00  0.31108554391E+03  0.31108554391E+03  0.00000000000E+00 0. -1.
         21   -1    0    0  501  503 -0.00000000000E+00 -0.00000000000E+00 -0.16925701242E+03  0.16925701242E+03  0.00000000000E+00 0. -1.
          6    2    1    2  501    0 -0.60249383390E+02  0.90237458013E+02 -0.44999011417E+02  0.20797295914E+03  0.17162474669E+03 0.  0.
         24    2    3    3    0    0  0.26458868860E+02  0.14423477974E+02 -0.38520792705E+02  0.92516742785E+02  0.78532717810E+02 0.  0.
         -6    2    1    2    0  502  0.60249383390E+02 -0.90237458013E+02  0.18682754291E+03  0.27236959719E+03  0.16585499587E+03 0.  0.
        -24    2    5    5    0    0  0.25617181977E+02 -0.67032246221E+02  0.20058284839E+03  0.22822019563E+03  0.81862180390E+02 0.  0.
          5    1    3    3  501    0 -0.86708252249E+02  0.75813980039E+02 -0.64782187119E+01  0.11545621636E+03  0.47000000000E+01 0. -1.
        -11    1    4    4    0    0  0.52923682172E+02  0.15844768078E+02 -0.35899795592E+02  0.65884506021E+02  0.00000000000E+00 0.  1.
         12    1    4    4    0    0 -0.26464813312E+02 -0.14212901041E+01 -0.26209971133E+01  0.26632236764E+02  0.00000000000E+00 0. -1.
         -5    1    5    5    0  502  0.34632201412E+02 -0.23205211791E+02 -0.13755305485E+02  0.44149401558E+02  0.47000000000E+01 0.  1.
         13    1    6    6    0    0  0.53201508714E+02 -0.48155981503E+02  0.10688692467E+03  0.12874087832E+03  0.00000000000E+00 0. -1.
        -14    1    6    6    0    0 -0.27584326737E+02 -0.18876264718E+02  0.93695923718E+02  0.99479317311E+02  0.00000000000E+00 0.  1.
</event>
<event>
12    1  0.8344842E-002  0.1845344E+03  0.7818608E-02  0.1167207E+00
         21   -1    0    0  503  502  0.00000000000E+00  0.00000000000E+00  0.39713426852E+03  0.39713426852E+03  0.00000000000E+00 0. -1.
         21   -1    0    0  501  503 -0.00000000000E+00 -0.00000000000E+00 -0.11054193727E+03  0.11054193727E+03  0.00000000000E+00 0.  1.
          6    2    1    2  501    0 -0.59184855580E+02  0.31422154606E+02  0.11829984059E+02  0.18491321190E+03  0.17193821123E+03 0.  0.
         24    2    3    3    0    0 -0.58285830259E+02  0.78342706073E+02  0.36939435310E+02  0.13148175171E+03  0.79925662630E+02 0.  0.
         -6    2    1    2    0  502  0.59184855580E+02 -0.31422154606E+02  0.27476234720E+03  0.32276299389E+03  0.15553586036E+03 0.  0.
        -24    2    5    5    0    0  0.26887720150E+02 -0.70609638222E+02  0.22935802573E+03  0.25448117905E+03  0.80292565183E+02 0.  0.
          5    1    3    3  501    0 -0.89902532119E+00 -0.46920551467E+02 -0.25109451251E+02  0.53431460195E+02  0.47000000000E+01 0. -1.
        -11    1    4    4    0    0  0.93285372618E-01  0.32804801101E+02 -0.19697177475E+02  0.38264114754E+02  0.00000000000E+00 0.  1.
         12    1    4    4    0    0 -0.58379115632E+02  0.45537904972E+02  0.56636612785E+02  0.93217636952E+02  0.00000000000E+00 0. -1.
         -5    1    5    5    0  502  0.32297135431E+02  0.39187483616E+02  0.45404321472E+02  0.68281814837E+02  0.47000000000E+01 0.  1.
         13    1    6    6    0    0 -0.77142874104E+01  0.76114609393E+01  0.92230268556E+02  0.92864778069E+02  0.00000000000E+00 0. -1.
        -14    1    6    6    0    0  0.34602007560E+02 -0.78221099161E+02  0.13712775717E+03  0.16161640099E+03  0.00000000000E+00 0.  1.
</event>
<event>
12    1  0.8344842E-002  0.1787180E+03  0.7818608E-02  0.1169629E+00
         21   -1    0    0  501  502  0.00000000000E+00  0.00000000000E+00  0.64924907031E+02  0.64924907031E+02  0.00000000000E+00 0. -1.
         21   -1    0    0  502  503 -0.00000000000E+00 -0.00000000000E+00 -0.48585839369E+03  0.48585839369E+03  0.00000000000E+00 0. -1.
         -6    2    1    2    0  503  0.15898961875E+02  0.38237608783E+02 -0.20150555566E+03  0.26778378598E+03  0.17143154715E+03 0.  0.
        -24    2    3    3    0    0 -0.10619462118E+02  0.13279727715E+02 -0.22925585808E+02  0.85468075548E+02  0.80561065717E+02 0.  0.
          6    2    1    2  501    0 -0.15898961875E+02 -0.38237608783E+02 -0.21942793100E+03  0.28299951474E+03  0.17385400981E+03 0.  0.
         24    2    5    5    0    0  0.42436420322E+02 -0.37825835578E+01 -0.18558101334E+03  0.20711888866E+03  0.81503152202E+02 0.  0.
          5    1    5    5  501    0 -0.58335382196E+02 -0.34455025226E+02 -0.33846917659E+02  0.75880626080E+02  0.47000000000E+01 0. -1.
        -11    1    6    6    0    0  0.41144668772E+02  0.12163198112E+01 -0.28763851201E+02  0.50216753560E+02  0.00000000000E+00 0.  1.
         12    1    6    6    0    0  0.12917515495E+01 -0.49989033690E+01 -0.15681716214E+03  0.15690213510E+03  0.00000000000E+00 0. -1.
         -5    1    3    3    0  503  0.26518423992E+02  0.24957881068E+02 -0.17857996985E+03  0.18231571043E+03  0.47000000000E+01 0.  1.
         13    1    4    4    0    0  0.30530815878E+02  0.24943366755E+01 -0.29375822610E+02  0.42441623292E+02  0.00000000000E+00 0. -1.
        -14    1    4    4    0    0 -0.41150277995E+02  0.10785391039E+02  0.64502368022E+01  0.43026452257E+02  0.00000000000E+00 0.  1.
</event>
<event>
12    1  0.8344842E-002  0.2477787E+03  0.7818608E-02  0.1115250E+00
         21   -1    0    0  501  502  0.00000000000E+00  0.00000000000E+00  0.14413578189E+03  0.14413578189E+03  0.00000000000E+00 0.  1.
         21   -1    0    0  502  503 -0.00000000000E+00 -0.00000000000E+00 -0.42065176357E+03  0.42065176357E+03  0.00000000000E+00 0.  1.
         -6    2    1    2    0  503 -0.15303348483E+03  0.90316722874E+02 -0.14580150549E+03  0.28464368744E+03  0.16789160755E+03 0.  0.
        -24    2    3    3    0    0 -0.87724506959E+02  0.14258176959E+02 -0.13919539098E+03  0.18406587803E+03  0.81277339112E+02 0.  0.
          6    2    1    2  501    0  0.15303348483E+03 -0.90316722874E+02 -0.13071447619E+03  0.28014385802E+03  0.17267874505E+03 0.  0.
         24    2    5    5    0    0  0.44531596815E+02 -0.65523758592E+02 -0.64919236458E+01  0.11328858139E+03  0.80720081426E+02 0.  0.
          5    1    5    5  501    0  0.10850188801E+03 -0.24792964282E+02 -0.12422255254E+03  0.16685527663E+03  0.47000000000E+01 0. -1.
        -11    1    6    6    0    0  0.71548725536E+01 -0.49562031770E+02 -0.37173535013E+02  0.62365526533E+02  0.00000000000E+00 0.  1.
         12    1    6    6    0    0  0.37376724261E+02 -0.15961726822E+02  0.30681611367E+02  0.50923054854E+02  0.00000000000E+00 0. -1.
         -5    1    3    3    0  503 -0.65308977871E+02  0.76058545915E+02 -0.66061145104E+01  0.10057780941E+03  0.47000000000E+01 0.  1.
         11    1    4    4    0    0  0.15845761267E+02  0.43634907010E+00 -0.15929844787E+02  0.22473061776E+02  0.00000000000E+00 0. -1.
        -12    1    4    4    0    0 -0.10357026823E+03  0.13821827889E+02 -0.12326554619E+03  0.16159281625E+03  0.00000000000E+00 0.  1.
</event>
<event>
12    1  0.8344842E-002  0.1863622E+03  0.7818608E-02  0.1163493E+00
         21   -1    0    0  503  502  0.00000000000E+00  0.00000000000E+00  0.11924651085E+03  0.11924651085E+03  0.00000000000E+00 0. -1.
         21   -1    0    0  501  503 -0.00000000000E+00 -0.00000000000E+00 -0.43077439333E+03  0.43077439333E+03  0.00000000000E+00 0. -1.
          6    2    1    2  501    0  0.36255520894E+02 -0.32396683946E+02 -0.32042014323E+03  0.37067495180E+03  0.17990787579E+03 0.  0.
         24    2    3    3    0    0 -0.33763504790E+02  0.29539440534E+02 -0.17158833798E+03  0.19485759278E+03  0.80711653020E+02 0.  0.
         -6    2    1    2    0  502 -0.36255520894E+02  0.32396683946E+02  0.88922607487E+01  0.17934595238E+03  0.17240037822E+03 0.  0.
        -24    2    5    5    0    0 -0.70749647109E+02 -0.26822901019E+02  0.11767162406E+02  0.11059161400E+03  0.79793849333E+02 0.  0.
          5    1    3    3  501    0  0.70019025683E+02 -0.61936124480E+02 -0.14883180526E+03  0.17581735901E+03  0.47000000000E+01 0. -1.
        -13    1    4    4    0    0 -0.15580531770E+02  0.10337541590E+02  0.24175122879E+01  0.18853702608E+02  0.00000000000E+00 0.  1.
         14    1    4    4    0    0 -0.18182973020E+02  0.19201898944E+02 -0.17400585026E+03  0.17600389018E+03  0.00000000000E+00 0. -1.
         -5    1    5    5    0  502  0.34494126215E+02  0.59219584966E+02 -0.28749016573E+01  0.68754338382E+02  0.47000000000E+01 0.  1.
         13    1    6    6    0    0 -0.66338970181E+02 -0.35857612040E+02  0.36584160313E+02  0.83815440652E+02  0.00000000000E+00 0. -1.
        -14    1    6    6    0    0 -0.44106769275E+01  0.90347110204E+01 -0.24816997907E+02  0.26776173350E+02  0.00000000000E+00 0.  1.
</event>
<event>
12    1  0.8344842E-002  0.1812336E+03  0.7818608E-02  0.1166727E+00
         21   -1    0    0  501  502  0.00000000000E+00  0.00000000000E+00  0.42918611259E+03  0.42918611259E+03  0.00000000000E+00 0. -1.
         21   -1    0    0  502  503 -0.00000000000E+00 -0.00000000000E+00 -0.29162798874E+03  0.29162798874E+03  0.00000000000E+00 0. -1.
         -6    2    1    2    0  503  0.26948951019E+02  0.46408035834E+02 -0.24086577964E+03  0.30143315289E+03  0.17310595054E+03 0.  0.
        -24    2    3    3    0    0  0.46867811725E+02 -0.33375859117E+02 -0.11908927611E+03  0.15441669900E+03  0.79697688147E+02 0.  0.
          6    2    1    2  501    0 -0.26948951019E+02 -0.46408035834E+02  0.37842390349E+03  0.41938094844E+03  0.17261453424E+03 0.  0.
         24    2    5    5    0    0 -0.46914760774E+02 -0.89076521058E+02  0.24225298230E+03  0.27521492274E+03  0.83193298289E+02 0.  0.
          5    1    5    5  501    0  0.19965809755E+02  0.42668485225E+02  0.13617092119E+03  0.14416602570E+03  0.47000000000E+01 0. -1.
        -13    1    6    6    0    0  0.14219497092E+02 -0.40114863829E+02  0.40330810829E+02  0.58634211001E+02  0.00000000000E+00 0.  1.
         14    1    6    6    0    0 -0.61134257866E+02 -0.48961657230E+02  0.20192217148E+03  0.21658071174E+03  0.00000000000E+00 0. -1.
         -5    1    3    3    0  503 -0.19918860706E+02  0.79783894951E+02 -0.12177650353E+03  0.14701645390E+03  0.47000000000E+01 0.  1.
         11    1    4    4    0    0  0.60438663466E+02 -0.18596129739E+02 -0.11853108050E+03  0.13434383174E+03  0.00000000000E+00 0. -1.
        -12    1    4    4    0    0 -0.13570851741E+02 -0.14779729378E+02 -0.55819561436E+00  0.20072867254E+02  0.00000000000E+00 0.  1.
</event>
<event>
12    1  0.8344842E-002  0.1841673E+03  0.7818608E-02  0.1164111E+00
         21   -1    0    0  501  502  0.00000000000E+00  0.00000000000E+00  0.67902669824E+03  0.67902669824E+03  0.00000000000E+00 0. -1.
         21   -1    0    0  502  503 -0.00000000000E+00 -0.00000000000E+00 -0.83760484282E+02  0.83760484282E+02  0.00000000000E+00 0.  1.
         -6    2    1    2    0  503 -0.65032969699E+02 -0.80409177421E+01  0.53589747280E+02  0.19065871311E+03  0.17083600430E+03 0.  0.
        -24    2    3    3    0    0 -0.52508235079E+02 -0.21399784401E+02 -0.33399235260E+02  0.10163904462E+03  0.77459156662E+02 0.  0.
          6    2    1    2  501    0  0.65032969699E+02  0.80409177421E+01  0.54167646667E+03  0.57212846941E+03  0.17211521563E+03 0.  0.
         24    2    5    5    0    0  0.87618043648E+02  0.54264298477E+02  0.41399742810E+03  0.43439425658E+03  0.81749397637E+02 0.  0.
          5    1    5    5  501    0 -0.22585073949E+02 -0.46223380735E+02  0.12767903857E+03  0.13773421282E+03  0.47000000000E+01 0. -1.
        -13    1    6    6    0    0  0.84180389483E+02  0.23593206808E+02  0.37282788006E+03  0.38294073371E+03  0.00000000000E+00 0.  1.
         14    1    6    6    0    0  0.34376541651E+01  0.30671091669E+02  0.41169548042E+02  0.51453522875E+02  0.00000000000E+00 0. -1.
         -5    1    3    3    0  503 -0.12524734620E+02  0.13358866659E+02  0.86988982540E+02  0.89019668496E+02  0.47000000000E+01 0.  1.
         13    1    4    4    0    0 -0.29498123965E+02 -0.13651484843E+02  0.23278421000E+02  0.39979835419E+02  0.00000000000E+00 0. -1.
        -14    1    4    4    0    0 -0.23010111113E+02 -0.77482995581E+01 -0.56677656260E+02  0.61659209196E+02  0.00000000000E+00 0.  1.
</event>
<event>
12    1  0.8344842E-002  0.1840626E+03  0.7818608E-02  0.1163980E+00
         21   -1    0    0  501  502  0.00000000000E+00  0.00000000000E+00  0.65544808654E+03  0.65544808654E+03  0.00000000000E+00 0.  1.
         21   -1    0    0  502  503 -0.00000000000E+00 -0.00000000000E+00 -0.79822433644E+02  0.79822433644E+02  0.00000000000E+00 0. -1.
         -6    2    1    2    0  503  0.31585187824E+02  0.55360183673E+02  0.69199781893E+02  0.19643269886E+03  0.17243787675E+03 0.  0.
        -24    2    3    3    0    0  0.66085595735E+02  0.41452924689E+02  0.99479553252E+02  0.14823887610E+03  0.77414029364E+02 0.  0.
          6    2    1    2  501    0 -0.31585187824E+02 -0.55360183673E+02  0.50642587100E+03  0.53883782133E+03  0.17267501512E+03 0.  0.
         24    2    5    5    0    0 -0.35131022155E+02 -0.10328495503E+03  0.35743390275E+03  0.38221709073E+03  0.80180664475E+02 0.  0.
          5    1    5    5  501    0  0.35458343310E+01  0.47924771355E+02  0.14899196826E+03  0.15662073060E+03  0.47000000000E+01 0. -1.
        -11    1    6    6    0    0  0.69179934885E+01 -0.47529297666E+02  0.24647703046E+03  0.25111316038E+03  0.00000000000E+00 0.  1.
         12    1    6    6    0    0 -0.42049015644E+02 -0.55755657362E+02  0.11095687229E+03  0.13110393035E+03  0.00000000000E+00 0. -1.
         -5    1    3    3    0  503 -0.34500407911E+02  0.13907258984E+02 -0.30279771359E+02  0.48193822758E+02  0.47000000000E+01 0.  1.
         11    1    4    4    0    0  0.73801414705E+02  0.18569748842E+02  0.44421986154E+02  0.88118086897E+02  0.00000000000E+00 0. -1.
        -12    1    4    4    0    0 -0.77158189701E+01  0.22883175847E+02  0.55057567099E+02  0.60120789200E+02  0.00000000000E+00 0.  1.
</event>
<event>
12    1  0.8344842E-002  0.1849741E+03  0.7818608E-02  0.1163408E+00
         21   -1    0    0  501  502  0.00000000000E+00  0.00000000000E+00  0.49061472276E+03  0.49061472276E+03  0.00000000000E+00 0. -1.
         21   -1    0    0  502  503 -0.00000000000E+00 -0.00000000000E+00 -0.72616458512E+02  0.72616458512E+02  0.00000000000E+00 0. -1.
         -6    2    1    2    0  503 -0.62557520615E+02  0.55452338891E+01  0.14871982157E+03  0.23734572359E+03  0.17398624708E+03 0.  0.
        -24    2    3    3    0    0 -0.46463295420E+02 -0.13980876402E+01  0.17959293082E+03  0.20153409596E+03  0.78750102003E+02 0.  0.
          6    2    1    2  501    0  0.62557520615E+02 -0.55452338891E+01  0.26927844268E+03  0.32588545768E+03  0.17247103767E+03 0.  0.
         24    2    5    5    0    0  0.74888877671E+02 -0.56181174467E+02  0.22274739399E+03  0.25586196636E+03  0.84168140865E+02 0.  0.
          5    1    5    5  501    0 -0.12331357056E+02  0.50635940578E+02  0.46531048688E+02  0.70023491323E+02  0.47000000000E+01 0. -1.
        -11    1    6    6    0    0 -0.15616504180E+02  0.52805458748E+01  0.29990909065E+02  0.34223003873E+02  0.00000000000E+00 0.  1.
         12    1    6    6    0    0  0.90505381851E+02 -0.61461720342E+02  0.19275648493E+03  0.22163896249E+03  0.00000000000E+00 0. -1.
         -5    1    3    3    0  503 -0.16094225195E+02  0.69433215293E+01 -0.30873109249E+02  0.35811627625E+02  0.47000000000E+01 0.  1.
         13    1    4    4    0    0 -0.38586036736E+02 -0.27840934836E+02  0.49941695433E+02  0.68979510191E+02  0.00000000000E+00 0. -1.
        -14    1    4    4    0    0 -0.78772586839E+01  0.26442847196E+02  0.12965123539E+03  0.13255458577E+03  0.00000000000E+00 0.  1.
</event>
<event>
12    1  0.8344842E-002  0.1750355E+03  0.7818608E-02  0.1173013E+00
         21   -1    0    0  501  502  0.00000000000E+00  0.00000000000E+00  0.20252270368E+03  0.20252270368E+03  0.00000000000E+00 0. -1.
         21   -1    0    0  502  503 -0.00000000000E+00 -0.00000000000E+00 -0.24398675831E+03  0.24398675831E+03  0.00000000000E+00 0. -1.
         -6    2    1    2    0  503  0.27329105960E+02 -0.79273005409E+01 -0.15910669017E+03  0.23561324358E+03  0.17143202608E+03 0.  0.
        -24    2    3    3    0    0  0.40851779945E+02 -0.59129965885E+02 -0.14791239576E+03  0.18128113634E+03  0.76285993354E+02 0.  0.
          6    2    1    2  501    0 -0.27329105960E+02  0.79273005409E+01  0.11764263554E+03  0.21089621841E+03  0.17270698630E+03 0.  0.
         24    2    5    5    0    0 -0.12338625340E+02  0.50266940887E+02  0.13188066610E+03  0.16354464855E+03  0.81702723072E+02 0.  0.
          5    1    5    5  501    0 -0.14990480620E+02 -0.42339640346E+02 -0.14238030560E+02  0.47351569859E+02  0.47000000000E+01 0. -1.
        -11    1    6    6    0    0  0.30430497167E+02  0.43418738094E+01  0.25084863825E+02  0.39675148634E+02  0.00000000000E+00 0.  1.
         12    1    6    6    0    0 -0.42769122507E+02  0.45925067078E+02  0.10679580228E+03  0.12386949992E+03  0.00000000000E+00 0. -1.
         -5    1    3    3    0  503 -0.13522673985E+02  0.51202665344E+02 -0.11194294413E+02  0.54332107243E+02  0.47000000000E+01 0.  1.
         11    1    4    4    0    0  0.23736244514E+02 -0.76480319738E+02 -0.11946816280E+03  0.14382381768E+03  0.00000000000E+00 0. -1.
        -12    1    4    4    0    0  0.17115535431E+02  0.17350353853E+02 -0.28444232963E+02  0.37457318654E+02  0.00000000000E+00 0.  1.
</event>
<event>
12    1  0.8344842E-002  0.2073129E+03  0.7818608E-02  0.1143927E+00
         21   -1    0    0  501  502  0.00000000000E+00  0.00000000000E+00  0.11712257117E+03  0.11712257117E+03  0.00000000000E+00 0. -1.
         21   -1    0    0  502  503 -0.00000000000E+00 -0.00000000000E+00 -0.43787005045E+03  0.43787005045E+03  0.00000000000E+00 0. -1.
         -6    2    1    2    0  503  0.10248814166E+03  0.53452135432E+02 -0.27317803833E+03  0.34229213482E+03  0.17081192865E+03 0.  0.
        -24    2    3    3    0    0  0.12134283978E+03  0.13316275527E+02 -0.14190351922E+03  0.20365059609E+03  0.80221870856E+02 0.  0.
          6    2    1    2  501    0 -0.10248814166E+03 -0.53452135432E+02 -0.47569440945E+02  0.21270048679E+03  0.17209792389E+03 0.  0.
         24    2    5    5    0    0 -0.63972390209E+02  0.12569893478E+02 -0.91997488982E+02  0.12416623995E+03  0.51992770982E+02 0.  0.
          5    1    5    5  501    0 -0.38515751448E+02 -0.66022028910E+02  0.44428048036E+02  0.88534246839E+02  0.47000000000E+01 0. -1.
        -11    1    6    6    0    0 -0.68368044683E+02  0.60106202275E+00 -0.65131355682E+02  0.94427984741E+02  0.00000000000E+00 0.  1.
         12    1    6    6    0    0  0.43956544739E+01  0.11968831455E+02 -0.26866133299E+02  0.29738255213E+02  0.00000000000E+00 0. -1.
         -5    1    3    3    0  503 -0.18854698119E+02  0.40135859906E+02 -0.13127451911E+03  0.13864153873E+03  0.47000000000E+01 0.  1.
         13    1    4    4    0    0  0.32629725236E+02  0.35446013319E+02 -0.79479792896E+02  0.92941682296E+02  0.00000000000E+00 0. -1.
        -14    1    4    4    0    0  0.88713114539E+02 -0.22129737792E+02 -0.62423726323E+02  0.11070891380E+03  0.00000000000E+00 0.  1.
</event>
<event>
12    1  0.8344842E-002  0.1756003E+03  0.7818608E-02  0.1172490E+00
         21   -1    0    0  501  502  0.00000000000E+00  0.00000000000E+00  0.40056888075E+03  0.40056888075E+03  0.00000000000E+00 0. -1.
         21   -1    0    0  502  503 -0.00000000000E+00 -0.00000000000E+00 -0.13226697571E+03  0.13226697571E+03  0.00000000000E+00 0. -1.
         -6    2    1    2    0  503  0.25645468895E+02  0.11800955804E+02 -0.39387429461E+02  0.17856451959E+03  0.17186321719E+03 0.  0.
        -24    2    3    3    0    0 -0.18600021575E+02  0.58124143956E+02 -0.15867473421E+02  0.11016291493E+03  0.90331136380E+02 0.  0.
          6    2    1    2  501    0 -0.25645468895E+02 -0.11800955804E+02  0.30768933450E+03  0.35427133687E+03  0.17331618775E+03 0.  0.
         24    2    5    5    0    0  0.19788649427E+02 -0.50909468543E+02  0.25958293697E+03  0.27726451666E+03  0.80678041618E+02 0.  0.
          5    1    5    5  501    0 -0.45434118323E+02  0.39108512740E+02  0.48106397524E+02  0.77006820212E+02  0.47000000000E+01 0. -1.
        -13    1    6    6    0    0  0.42428602235E+02 -0.51314689444E+02  0.13371091903E+03  0.14937199706E+03  0.00000000000E+00 0.  1.
         14    1    6    6    0    0 -0.22639952807E+02  0.40522090136E+00  0.12587201795E+03  0.12789251960E+03  0.00000000000E+00 0. -1.
         -5    1    3    3    0  503  0.44245490470E+02 -0.46323188153E+02 -0.23519956039E+02  0.68401604657E+02  0.47000000000E+01 0.  1.
         11    1    4    4    0    0 -0.31521637157E+02  0.21912460480E+02 -0.47003555668E+02  0.60688580299E+02  0.00000000000E+00 0. -1.
        -12    1    4    4    0    0  0.12921615583E+02  0.36211683476E+02  0.31136082246E+02  0.49474334630E+02  0.00000000000E+00 0.  1.
</event>
<event>
12    1  0.8344842E-002  0.1738628E+03  0.7818608E-02  0.1174017E+00
         21   -1    0    0  503  502  0.00000000000E+00  0.00000000000E+00  0.75800614820E+02  0.75800614820E+02  0.00000000000E+00 0.  1.
         21   -1    0    0  501  503 -0.00000000000E+00 -0.00000000000E+00 -0.42103702647E+03  0.42103702647E+03  0.00000000000E+00 0.  1.
          6    2    1    2  501    0  0.26204936315E+02 -0.33966948925E+01 -0.23105802615E+03  0.28883533304E+03  0.17128865093E+03 0.  0.
         24    2    3    3    0    0 -0.54872379461E+02 -0.10760761375E+02 -0.13361313770E+03  0.16177095213E+03  0.72045807472E+02 0.  0.
         -6    2    1    2    0  502 -0.26204936315E+02  0.33966948925E+01 -0.11417838550E+03  0.20800230826E+03  0.17184301063E+03 0.  0.
        -24    2    5    5    0    0  0.34910509450E+02  0.26866092708E+02 -0.10933592215E+03  0.14218855745E+03  0.79515478919E+02 0.  0.
          5    1    3    3  501    0  0.81077315777E+02  0.73640664823E+01 -0.97444888459E+02  0.12706438091E+03  0.47000000000E+01 0. -1.
        -13    1    4    4    0    0 -0.41989708412E+02 -0.28455093662E+02 -0.13005504696E+03  0.13959635815E+03  0.00000000000E+00 0.  1.
         14    1    4    4    0    0 -0.12882671049E+02  0.17694332287E+02 -0.35580907320E+01  0.22174593978E+02  0.00000000000E+00 0. -1.
         -5    1    5    5    0  502 -0.61115445765E+02 -0.23469397815E+02 -0.48424633455E+01  0.65813750814E+02  0.47000000000E+01 0.  1.
         13    1    6    6    0    0 -0.67129560718E+01  0.30770738977E+02 -0.91442203985E+02  0.96713901928E+02  0.00000000000E+00 0. -1.
        -14    1    6    6    0    0  0.41623465522E+02 -0.39046462693E+01 -0.17893718168E+02  0.45474655517E+02  0.00000000000E+00 0.  1.
</event>
<event>
12    1  0.8344842E-002  0.1780824E+03  0.7818608E-02  0.1170012E+00
         21   -1    0    0  501  502  0.00000000000E+00  0.00000000000E+00  0.44184981761E+02  0.44184981761E+02  0.00000000000E+00 0. -1.
         21   -1    0    0  502  503 -0.00000000000E+00 -0.00000000000E+00 -0.75259241450E+03  0.75259241450E+03  0.00000000000E+00 0.  1.
         -6    2    1    2    0  503 -0.39500741272E+02  0.40008006070E+00 -0.26320402678E+03  0.31778876836E+03  0.17364582620E+03 0.  0.
        -24    2    3    3    0    0 -0.82530166056E+00 -0.48965991831E+02 -0.22573302535E+03  0.24458381886E+03  0.80420745048E+02 0.  0.
          6    2    1    2  501    0  0.39500741272E+02 -0.40008006070E+00 -0.44520340596E+03  0.47898862790E+03  0.17223113644E+03 0.  0.
         24    2    5    5    0    0 -0.30073283309E+02 -0.35379877751E+02 -0.30531592531E+03  0.31881769301E+03  0.79188187302E+02 0.  0.
          5    1    5    5  501    0  0.69574024581E+02  0.34979797690E+02 -0.13988748064E+03  0.16017093489E+03  0.47000000000E+01 0. -1.
        -13    1    6    6    0    0 -0.15281109932E+02 -0.60600750796E+02 -0.20247891651E+03  0.21190487240E+03  0.00000000000E+00 0.  1.
         14    1    6    6    0    0 -0.14792173377E+02  0.25220873045E+02 -0.10283700881E+03  0.10691282061E+03  0.00000000000E+00 0. -1.
         -5    1    3    3    0  503 -0.38675439612E+02  0.49366071892E+02 -0.37471001427E+02  0.73204949499E+02  0.47000000000E+01 0.  1.
         11    1    4    4    0    0  0.17083772165E+02 -0.15889626613E+02 -0.19392660439E+03  0.19532501989E+03  0.00000000000E+00 0. -1.
        -12    1    4    4    0    0 -0.17909073825E+02 -0.33076365218E+02 -0.31806420963E+02  0.49258798968E+02  0.00000000000E+00 0.  1.
</event>
<event>
12    1  0.8344842E-002  0.2160159E+03  0.7818608E-02  0.1137466E+00
         21   -1    0    0  501  502  0.00000000000E+00  0.00000000000E+00  0.73707196417E+02  0.73707196417E+02  0.00000000000E+00 0.  1.
         21   -1    0    0  502  503 -0.00000000000E+00 -0.00000000000E+00 -0.64058746141E+03  0.64058746141E+03  0.00000000000E+00 0.  1.
         -6    2    1    2    0  503 -0.12543053453E+03  0.13631370260E+02 -0.22844408546E+03  0.31440348165E+03  0.17534028586E+03 0.  0.
        -24    2    3    3    0    0 -0.43171516670E+02  0.58329899536E+02 -0.17553123708E+03  0.20676350737E+03  0.81693180615E+02 0.  0.
          6    2    1    2  501    0  0.12543053453E+03 -0.13631370260E+02 -0.33843617954E+03  0.39989117618E+03  0.17162538251E+03 0.  0.
         24    2    5    5    0    0  0.87795235421E+02  0.23490694297E+02 -0.32248310992E+03  0.34447408634E+03  0.80045136638E+02 0.  0.
          5    1    5    5  501    0  0.37635299105E+02 -0.37122064558E+02 -0.15953069621E+02  0.55417089837E+02  0.47000000000E+01 0. -1.
        -11    1    6    6    0    0  0.77206838383E+02 -0.15506495626E+02 -0.18226571876E+03  0.19855009327E+03  0.00000000000E+00 0.  1.
         12    1    6    6    0    0  0.10588397038E+02  0.38997189923E+02 -0.14021739115E+03  0.14592399308E+03  0.00000000000E+00 0. -1.
         -5    1    3    3    0  503 -0.82259017855E+02 -0.44698529276E+02 -0.52912848374E+02  0.10763997427E+03  0.47000000000E+01 0.  1.
         13    1    4    4    0    0 -0.61328156960E+01  0.19969553662E+01  0.85585912217E+01  0.10716750571E+02  0.00000000000E+00 0. -1.
        -14    1    4    4    0    0 -0.37038700974E+02  0.56332944170E+02 -0.18408982830E+03  0.19604675680E+03  0.00000000000E+00 0.  1.
</event>
<event>
12    1  0.8344842E-002  0.1831322E+03  0.7818608E-02  0.1164982E+00
         21   -1    0    0  503  502  0.00000000000E+00  0.00000000000E+00  0.31873322481E+03  0.31873322481E+03  0.00000000000E+00 0.  1.
         21   -1    0    0  501  503 -0.00000000000E+00 -0.00000000000E+00 -0.11398040629E+03  0.11398040629E+03  0.00000000000E+00 0. -1.
          6    2    1    2  501    0 -0.43306184198E+02  0.42782812297E+02  0.40766882172E+02  0.18689095995E+03  0.17193166553E+03 0.  0.
         24    2    3    3    0    0 -0.94594210629E+02  0.33998907005E+02  0.42679321490E+02  0.13460935638E+03  0.78703011255E+02 0.  0.
         -6    2    1    2    0  502  0.43306184198E+02 -0.42782812297E+02  0.16398593635E+03  0.24582267115E+03  0.17271827846E+03 0.  0.
        -24    2    5    5    0    0  0.86430226250E+02 -0.43162687005E+02  0.73224228977E+02  0.14522642454E+03  0.79973277506E+02 0.  0.
          5    1    3    3  501    0  0.51288026431E+02  0.87839052918E+01 -0.19124393182E+01  0.52281603567E+02  0.47000000000E+01 0. -1.
        -13    1    4    4    0    0 -0.76082951703E+02 -0.12403269981E+02  0.32319063899E+02  0.83588148307E+02  0.00000000000E+00 0.  1.
         14    1    4    4    0    0 -0.18511258925E+02  0.46402176986E+02  0.10360257591E+02  0.51021208074E+02  0.00000000000E+00 0. -1.
         -5    1    5    5    0  502 -0.43124042052E+02  0.37987470776E+00  0.90761707375E+02  0.10059624662E+03  0.47000000000E+01 0.  1.
         11    1    6    6    0    0  0.45235735553E+01  0.27438600276E+01 -0.15295307775E+02  0.16184496455E+02  0.00000000000E+00 0. -1.
        -12    1    6    6    0    0  0.81906652695E+02 -0.45906547032E+02  0.88519536752E+02  0.12904192808E+03  0.00000000000E+00 0.  1.
</event>
<event>
12    1  0.8344842E-002  0.1825217E+03  0.7818608E-02  0.1166451E+00
         21   -1    0    0  503  502  0.00000000000E+00  0.00000000000E+00  0.79238031574E+03  0.79238031574E+03  0.00000000000E+00 0.  1.
         21   -1    0    0  501  503 -0.00000000000E+00 -0.00000000000E+00 -0.20552910534E+03  0.20552910534E+03  0.00000000000E+00 0.  1.
          6    2    1    2  501    0 -0.37155510170E+01 -0.42916624499E+02 -0.15366921440E+03  0.23522686592E+03  0.17280569730E+03 0.  0.
         24    2    3    3    0    0 -0.57593504436E+02 -0.13195225618E+01 -0.12924545558E+03  0.16275781908E+03  0.80417454526E+02 0.  0.
         -6    2    1    2    0  502  0.37155510170E+01  0.42916624499E+02  0.74052042480E+03  0.76268255517E+03  0.17736555030E+03 0.  0.
        -24    2    5    5    0    0  0.69131335688E+02  0.19153950482E+01  0.39279057162E+03  0.40645444497E+03  0.78345212820E+02 0.  0.
          5    1    3    3  501    0  0.53877953419E+02 -0.41597101937E+02 -0.24423758821E+02  0.72469046834E+02  0.47000000000E+01 0. -1.
        -13    1    4    4    0    0 -0.55405388796E+02  0.12277607945E+02 -0.33236169396E+02  0.65765794458E+02  0.00000000000E+00 0.  1.
         14    1    4    4    0    0 -0.21881156396E+01 -0.13597130507E+02 -0.96009286179E+02  0.96992024624E+02  0.00000000000E+00 0. -1.
         -5    1    5    5    0  502 -0.65415784671E+02  0.41001229450E+02  0.34772985318E+03  0.35622811020E+03  0.47000000000E+01 0.  1.
         13    1    6    6    0    0 -0.13486468414E+02  0.15748013276E+02  0.77192264261E+02  0.79928282943E+02  0.00000000000E+00 0. -1.
        -14    1    6    6    0    0  0.82617804103E+02 -0.13832618228E+02  0.31559830736E+03  0.32652616203E+03  0.00000000000E+00 0.  1.
</event>
<event>
12    1  0.8344842E-002  0.1919341E+03  0.7818608E-02  0.1156992E+00
         21   -1    0    0  501  502  0.00000000000E+00  0.00000000000E+00  0.14082686889E+03  0.14082686889E+03  0.00000000000E+00 0. -1.
         21   -1    0    0  502  503 -0.00000000000E+00 -0.00000000000E+00 -0.27227060345E+03  0.27227060345E+03  0.00000000000E+00 0.  1.
         -6    2    1    2    0  503 -0.82081508403E+02 -0.22561927910E+01 -0.10979853389E+03  0.22112080586E+03  0.17348264556E+03 0.  0.
        -24    2    3    3    0    0 -0.51847382700E+02  0.40230474582E+02 -0.12871951045E+03  0.16544933547E+03  0.80610967368E+02 0.  0.
          6    2    1    2  501    0  0.82081508403E+02  0.22561927910E+01 -0.21645200671E+02  0.19197666649E+03  0.17217450838E+03 0.  0.
         24    2    5    5    0    0  0.12185044729E+03  0.21563799817E+02 -0.19408844829E+02  0.14746325865E+03  0.77821465079E+02 0.  0.
          5    1    5    5  501    0 -0.39768938891E+02 -0.19307607026E+02 -0.22363558417E+01  0.44513407834E+02  0.47000000000E+01 0. -1.
        -11    1    6    6    0    0  0.31514148716E+02  0.42702978548E+02 -0.11849025525E+02  0.54379089291E+02  0.00000000000E+00 0.  1.
         12    1    6    6    0    0  0.90336298577E+02 -0.21139178731E+02 -0.75598193045E+01  0.93084169363E+02  0.00000000000E+00 0. -1.
         -5    1    3    3    0  503 -0.30234125702E+02 -0.42486667373E+02  0.18920976557E+02  0.55671470389E+02  0.47000000000E+01 0.  1.
         11    1    4    4    0    0 -0.60350384591E+02  0.38569307876E+02 -0.13627743227E+03  0.15395226200E+03  0.00000000000E+00 0. -1.
        -12    1    4    4    0    0  0.85030018913E+01  0.16611667056E+01  0.75579218230E+01  0.11497073465E+02  0.00000000000E+00 0.  1.
</event>
<event>
12    1  0.8344842E-002  0.1775400E+03  0.7818608E-02  0.1171067E+00
         21   -1    0    0  501  502  0.00000000000E+00  0.00000000000E+00  0.52053773820E+03  0.52053773820E+03  0.00000000000E+00 0. -1.
         21   -1    0    0  502  503 -0.00000000000E+00 -0.00000000000E+00 -0.14843821475E+03  0.14843821475E+03  0.00000000000E+00 0. -1.
         -6    2    1    2    0  503  0.24458325175E+02  0.32547747937E+02 -0.73766991526E+02  0.18906200552E+03  0.16924924616E+03 0.  0.
        -24    2    3    3    0    0  0.20656347020E+02  0.79184644918E+02 -0.84228451125E+02  0.14088537908E+03  0.77829078093E+02 0.  0.
          6    2    1    2  501    0 -0.24458325175E+02 -0.32547747937E+02  0.44586651497E+03  0.47991394743E+03  0.17280880244E+03 0.  0.
         24    2    5    5    0    0 -0.68913455432E+02 -0.48069715987E+02  0.38789426077E+03  0.40508038307E+03  0.81045649320E+02 0.  0.
          5    1    5    5  501    0  0.44455130257E+02  0.15521968049E+02  0.57972254201E+02  0.74833564364E+02  0.47000000000E+01 0. -1.
        -11    1    6    6    0    0  0.14441041141E+02 -0.27414453433E+01  0.18147223439E+02  0.23353391838E+02  0.00000000000E+00 0.  1.
         12    1    6    6    0    0 -0.83354496573E+02 -0.45328270643E+02  0.36974703733E+03  0.38172699123E+03  0.00000000000E+00 0. -1.
         -5    1    3    3    0  503  0.38019781543E+01 -0.46636896981E+02  0.10461459599E+02  0.48176626437E+02  0.47000000000E+01 0.  1.
         13    1    4    4    0    0  0.15730644828E+02  0.32684755531E+02 -0.86779849279E+02  0.94055774260E+02  0.00000000000E+00 0. -1.
        -14    1    4    4    0    0  0.49257021925E+01  0.46499889387E+02  0.25513981541E+01  0.46829604820E+02  0.00000000000E+00 0.  1.
</event>
<event>
12    1  0.8344842E-002  0.2428821E+03  0.7818608E-02  0.1119963E+00
         21   -1    0    0  503  502  0.00000000000E+00  0.00000000000E+00  0.14120634267E+04  0.14120634267E+04  0.00000000000E+00 0.  1.
         21   -1    0    0  501  503 -0.00000000000E+00 -0.00000000000E+00 -0.78171278789E+02  0.78171278789E+02  0.00000000000E+00 0.  1.
          6    2    1    2  501    0  0.40752178651E+02 -0.14376834796E+03  0.13542230575E+03  0.26740124965E+03  0.17559655315E+03 0.  0.
         24    2    3    3    0    0  0.23761099756E+02 -0.17518030969E+03  0.12015722266E+03  0.22827937772E+03  0.80131051234E+02 0.  0.
         -6    2    1    2    0  502 -0.40752178651E+02  0.14376834796E+03  0.11984698422E+04  0.12228334559E+04  0.19147224397E+03 0.  0.
        -24    2    5    5    0    0 -0.10026064817E+03  0.10997594152E+03  0.95655450551E+03  0.97138106515E+03  0.80235568366E+02 0.  0.
          5    1    3    3  501    0  0.16991078894E+02  0.31411961724E+02  0.15265083086E+02  0.39121871925E+02  0.47000000000E+01 0. -1.
        -11    1    4    4    0    0  0.39338902884E+02 -0.12779231296E+03  0.51214274672E+02  0.14318284277E+03  0.00000000000E+00 0.  1.
         12    1    4    4    0    0 -0.15577803128E+02 -0.47387996722E+02  0.68942947991E+02  0.85096534955E+02  0.00000000000E+00 0. -1.
         -5    1    5    5    0  502  0.59508469524E+02  0.33792406441E+02  0.24191533670E+03  0.25145239074E+03  0.47000000000E+01 0.  1.
         11    1    6    6    0    0 -0.14104192667E+02  0.12776313423E+02  0.28426728840E+02  0.34208790508E+02  0.00000000000E+00 0. -1.
        -12    1    6    6    0    0 -0.86156455508E+02  0.97199628099E+02  0.92812777667E+03  0.93717227464E+03  0.00000000000E+00 0.  1.
</event>
<event>
12    1  0.8344842E-002  0.1762681E+03  0.7818608E-02  0.1171735E+00
         21   -1    0    0  501  502  0.00000000000E+00  0.00000000000E+00  0.32506015242E+03  0.32506015242E+03  0.00000000000E+00 0. -1.
         21   -1    0    0  502  503 -0.00000000000E+00 -0.00000000000E+00 -0.17667011880E+03  0.17667011880E+03  0.00000000000E+00 0. -1.
         -6    2    1    2    0  503 -0.27767675176E+02 -0.27324922518E+02 -0.96250793348E+02  0.20083494468E+03  0.17190917547E+03 0.  0.
        -24    2    3    3    0    0 -0.45431617080E+02 -0.55447604731E+02 -0.35962016830E+01  0.10229630528E+03  0.72891238889E+02 0.  0.
          6    2    1    2  501    0  0.27767675176E+02  0.27324922518E+02  0.24464082697E+03  0.30089532654E+03  0.17079569121E+03 0.  0.
         24    2    5    5    0    0 -0.43823430217E+02  0.43019795961E+02  0.13236749001E+03  0.16673494633E+03  0.80673378746E+02 0.  0.
          5    1    5    5  501    0  0.71591105392E+02 -0.15694873443E+02  0.11227333696E+03  0.13416038020E+03  0.47000000000E+01 0. -1.
        -13    1    6    6    0    0  0.33331259970E+00 -0.86476951705E+01 -0.73559794023E+01  0.11357999913E+02  0.00000000000E+00 0.  1.
         14    1    6    6    0    0 -0.44156742816E+02  0.51667491131E+02  0.13972346941E+03  0.15537694642E+03  0.00000000000E+00 0. -1.
         -5    1    3    3    0  503  0.17663941904E+02  0.28122682213E+02 -0.92654591665E+02  0.98538639401E+02  0.47000000000E+01 0.  1.
         13    1    4    4    0    0 -0.28283189231E+02 -0.19046705955E+02 -0.36769488623E+02  0.50146895163E+02  0.00000000000E+00 0. -1.
        -14    1    4    4    0    0 -0.17148427849E+02 -0.36400898776E+02  0.33173286940E+02  0.52149410119E+02  0.00000000000E+00 0.  1.
</event>
<event>
12    1  0.8344842E-002  0.2326852E+03  0.7818608E-02  0.1124928E+00
         21   -1    0    0  503  502  0.00000000000E+00  0.00000000000E+00  0.25404251672E+04  0.25404251672E+04  0.00000000000E+00 0. -1.
         21   -1    0    0  501  503 -0.00000000000E+00 -0.00000000000E+00 -0.21749914696E+02  0.21749914696E+02  0.00000000000E+00 0. -1.
          6    2    1    2  501    0  0.28401890502E+02 -0.15287350729E+03  0.10579616489E+04  0.10830447159E+04  0.17183139802E+03 0.  0.
         24    2    3    3    0    0 -0.48512307048E+02 -0.62197020863E+02  0.54283172179E+03  0.55434919781E+03  0.80092706255E+02 0.  0.
         -6    2    1    2    0  502 -0.28401890502E+02  0.15287350729E+03  0.14607136035E+04  0.14791303660E+04  0.17310526110E+03 0.  0.
        -24    2    5    5    0    0 -0.55749810739E+02  0.38515194116E+02  0.90748397420E+03  0.91352374889E+03  0.80043830344E+02 0.  0.
          5    1    3    3  501    0  0.76914197550E+02 -0.90676486432E+02  0.51512992716E+03  0.52869551807E+03  0.47000000000E+01 0. -1.
        -13    1    4    4    0    0  0.10155425133E+02 -0.39706041708E+02  0.32698951163E+03  0.32954793752E+03  0.00000000000E+00 0.  1.
         14    1    4    4    0    0 -0.58667732181E+02 -0.22490979155E+02  0.21584221016E+03  0.22480126030E+03  0.00000000000E+00 0. -1.
         -5    1    5    5    0  502  0.27347920237E+02  0.11435831318E+03  0.55322962933E+03  0.56560661710E+03  0.47000000000E+01 0.  1.
         11    1    6    6    0    0 -0.19840104521E+02  0.50622813629E+02  0.30203461531E+03  0.30688956947E+03  0.00000000000E+00 0. -1.
        -12    1    6    6    0    0 -0.35909706218E+02 -0.12107619513E+02  0.60544935889E+03  0.60663417941E+03  0.00000000000E+00 0.  1.
</event>
<event>
12    1  0.8344842E-002  0.2012549E+03  0.7818608E-02  0.1149649E+00
         21   -1    0    0  501  502  0.00000000000E+00  0.00000000000E+00  0.13402138499E+03  0.13402138499E+03  0.00000000000E+00 0. -1.
         21   -1    0    0  502  503 -0.00000000000E+00 -0.00000000000E+00 -0.97579878047E+03  0.97579878047E+03  0.00000000000E+00 0. -1.
         -6    2    1    2    0  503 -0.94915351827E+02 -0.17195682470E+02 -0.88569777135E+03  0.90827533516E+03  0.17663217932E+03 0.  0.
        -24    2    3    3    0    0 -0.40959626384E+02 -0.34354157947E+02 -0.79684391552E+03  0.80281097490E+03  0.81776136839E+02 0.  0.
          6    2    1    2  501    0  0.94915351827E+02  0.17195682470E+02  0.43920375870E+02  0.20154483031E+03  0.17142550481E+03 0.  0.
         24    2    5    5    0    0 -0.13773817246E+02  0.25461318029E+02  0.71668178765E+01  0.86416335877E+02  0.81107478512E+02 0.  0.
          5    1    5    5  501    0  0.10868916907E+03 -0.82656355589E+01  0.36753557994E+02  0.11512849443E+03  0.47000000000E+01 0. -1.
        -11    1    6    6    0    0 -0.29994819055E+02 -0.17930498577E+02  0.17304599925E+02  0.38995398804E+02  0.00000000000E+00 0.  1.
         12    1    6    6    0    0  0.16221001808E+02  0.43391816606E+02 -0.10137782048E+02  0.47420937073E+02  0.00000000000E+00 0. -1.
         -5    1    3    3    0  503 -0.53955725442E+02  0.17158475477E+02 -0.88853855830E+02  0.10546436026E+03  0.47000000000E+01 0.  1.
         13    1    4    4    0    0  0.21747986859E+02  0.55701703542E+01 -0.14244673368E+03  0.14420497102E+03  0.00000000000E+00 0. -1.
        -14    1    4    4    0    0 -0.62707613243E+02 -0.39924328302E+02 -0.65439718184E+03  0.65860600388E+03  0.00000000000E+00 0.  1.
</event>
<event>
12    1  0.8344842E-002  0.1842859E+03  0.7818608E-02  0.1164332E+00
         21   -1    0    0  501  502  0.00000000000E+00  0.00000000000E+00  0.11625984481E+03  0.11625984481E+03  0.00000000000E+00 0.  1.
         21   -1    0    0  502  503 -0.00000000000E+00 -0.00000000000E+00 -0.32408050443E+03  0.32408050443E+03  0.00000000000E+00 0.  1.
         -6    2    1    2    0  503 -0.42100700108E+01  0.64260290294E+02 -0.17801357648E+03  0.25622283447E+03  0.17266788321E+03 0.  0.
        -24    2    3    3    0    0  0.29937309337E+02  0.52053811798E+02 -0.31055839390E+02  0.10478404114E+03  0.80058655396E+02 0.  0.
          6    2    1    2  501    0  0.42100700108E+01 -0.64260290294E+02 -0.29807083134E+02  0.18411751477E+03  0.16989316479E+03 0.  0.
         24    2    5    5    0    0 -0.31226626902E+02 -0.51272652797E+02  0.36044556731E+02  0.10807169511E+03  0.82318248652E+02 0.  0.
          5    1    5    5  501    0  0.35436696912E+02 -0.12987637497E+02 -0.65851639864E+02  0.76045819666E+02  0.47000000000E+01 0. -1.
        -13    1    6    6    0    0 -0.42623797561E+02 -0.58816585562E+02  0.34404978186E+01  0.72718745045E+02  0.00000000000E+00 0.  1.
         14    1    6    6    0    0  0.11397170659E+02  0.75439327654E+01  0.32604058912E+02  0.35352950063E+02  0.00000000000E+00 0. -1.
         -5    1    3    3    0  503 -0.34147379348E+02  0.12206478496E+02 -0.14695773709E+03  0.15143879333E+03  0.47000000000E+01 0.  1.
         11    1    4    4    0    0  0.34310808896E+02  0.87418088621E+01 -0.46630475423E+02  0.58549569319E+02  0.00000000000E+00 0. -1.
        -12    1    4    4    0    0 -0.43734995589E+01  0.43312002936E+02  0.15574636034E+02  0.46234471818E+02  0.00000000000E+00 0.  1.
</event>
<event>
12    1  0.8344842E-002  0.1896810E+03  0.7818608E-02  0.1158895E+00
         21   -1    0    0  503  502  0.00000000000E+00  0.00000000000E+00  0.63704563247E+02  0.63704563247E+02  0.00000000000E+00 0. -1.
         21   -1    0    0  501  503 -0.00000000000E+00 -0.00000000000E+00 -0.13717479791E+04  0.13717479791E+04  0.00000000000E+00 0. -1.
          6    2    1    2  501    0  0.18021555017E+02  0.76891018408E+02 -0.12047092366E+04  0.12194505747E+04  0.17175084915E+03 0.  0.
         24    2    3    3    0    0 -0.26486928834E+02 -0.12013519662E+02 -0.40806276754E+03  0.41661017417E+03  0.78758700581E+02 0.  0.
         -6    2    1    2    0  502 -0.18021555017E+02 -0.76891018408E+02 -0.10333417926E+03  0.21600196768E+03  0.17245837840E+03 0.  0.
        -24    2    5    5    0    0  0.48639159517E+02 -0.78265711983E+02 -0.55448708627E+02  0.13377880219E+03  0.79567073067E+02 0.  0.
          5    1    3    3  501    0  0.44508483851E+02  0.88904538070E+02 -0.79664646906E+03  0.80284040051E+03  0.47000000000E+01 0. -1.
        -13    1    4    4    0    0  0.16161257458E+02  0.94565640638E+01 -0.26758952219E+03  0.26824385404E+03  0.00000000000E+00 0.  1.
         14    1    4    4    0    0 -0.42648186292E+02 -0.21470083726E+02 -0.14047324536E+03  0.14836632013E+03  0.00000000000E+00 0. -1.
         -5    1    5    5    0  502 -0.66660714533E+02  0.13746935750E+01 -0.47885470636E+02  0.82223165486E+02  0.47000000000E+01 0.  1.
         13    1    6    6    0    0 -0.16090445697E+02 -0.46611433273E+02 -0.17366418646E+02  0.52279256413E+02  0.00000000000E+00 0. -1.
        -14    1    6    6    0    0  0.64729605213E+02 -0.31654278710E+02 -0.38082289981E+02  0.81499545777E+02  0.00000000000E+00 0.  1.
</event>
<event>
12    1  0.8344842E-002  0.2506011E+03  0.7818608E-02  0.1112968E+00
         21   -1    0    0  503  502  0.00000000000E+00  0.00000000000E+00  0.83816847358E+03  0.83816847358E+03  0.00000000000E+00 0. -1.
         21   -1    0    0  501  503 -0.00000000000E+00 -0.00000000000E+00 -0.87134992815E+02  0.87134992815E+02  0.00000000000E+00 0. -1.
          6    2    1    2  501    0 -0.15132329035E+03  0.10118488915E+03  0.20159750702E+03  0.32141537845E+03  0.17184053851E+03 0.  0.
         24    2    3    3    0    0 -0.10965128526E+03  0.82232674818E+02  0.65036194432E+02  0.17730838857E+03  0.91776581460E+02 0.  0.
         -6    2    1    2    0  502  0.15132329035E+03 -0.10118488915E+03  0.54943597374E+03  0.60388808794E+03  0.17223185977E+03 0.  0.
        -24    2    5    5    0    0  0.12164784807E+03 -0.90048514546E+02  0.54550600163E+03  0.57160519162E+03  0.79049119944E+02 0.  0.
          5    1    3    3  501    0 -0.41672005086E+02  0.18952214336E+02  0.13656131259E+03  0.14410698988E+03  0.47000000000E+01 0. -1.
        -13    1    4    4    0    0  0.14140367418E+02 -0.30394406744E+01  0.34933344932E+01  0.14879233051E+02  0.00000000000E+00 0.  1.
         14    1    4    4    0    0 -0.12379165268E+03  0.85272115492E+02  0.61542859939E+02  0.16242915552E+03  0.00000000000E+00 0. -1.
         -5    1    5    5    0  502  0.29675442277E+02 -0.11136374608E+02  0.39299721109E+01  0.32282896316E+02  0.47000000000E+01 0.  1.
         13    1    6    6    0    0  0.11818628622E+03 -0.50735360064E+02  0.45586514588E+03  0.47366138353E+03  0.00000000000E+00 0. -1.
        -14    1    6    6    0    0  0.34615618493E+01 -0.39313154481E+02  0.89640855747E+02  0.97943808099E+02  0.00000000000E+00 0.  1.
</event>
<event>
12    1  0.8344842E-002  0.3224859E+03  0.7818608E-02  0.1074575E+00
         21   -1    0    0  503  502  0.00000000000E+00  0.00000000000E+00  0.23089013034E+03  0.23089013034E+03  0.00000000000E+00 0. -1.
         21   -1    0    0  501  503 -0.00000000000E+00 -0.00000000000E+00 -0.52816120180E+03  0.52816120180E+03  0.00000000000E+00 0.  1.
          6    2    1    2  501    0 -0.14424613663E+03  0.23163189699E+03 -0.29486370709E+03  0.43655644906E+03  0.17081172038E+03 0.  0.
         24    2    3    3    0    0 -0.15347490235E+03  0.24755006239E+03 -0.28599276154E+03  0.41559596764E+03  0.78054914142E+02 0.  0.
         -6    2    1    2    0  502  0.14424613663E+03 -0.23163189699E+03 -0.24073643692E+01  0.32249488309E+03  0.17186294127E+03 0.  0.
        -24    2    5    5    0    0  0.92949973034E+02 -0.80804531932E+02  0.49447656140E+02  0.15489051679E+03  0.79855692516E+02 0.  0.
          5    1    3    3  501    0  0.92287657193E+01 -0.15918165401E+02 -0.88709455497E+01  0.20960481421E+02  0.47000000000E+01 0. -1.
        -13    1    4    4    0    0 -0.27005413512E+01  0.31717552134E+02 -0.62940832620E+02  0.70532577210E+02  0.00000000000E+00 0.  1.
         14    1    4    4    0    0 -0.15077436100E+03  0.21583251025E+03 -0.22305192892E+03  0.34506339043E+03  0.00000000000E+00 0. -1.
         -5    1    5    5    0  502  0.51296163593E+02 -0.15082736506E+03 -0.51855020510E+02  0.16760436629E+03  0.47000000000E+01 0.  1.
         11    1    6    6    0    0  0.80444423669E+02 -0.90275110469E+02  0.60977493080E+02  0.13542213826E+03  0.00000000000E+00 0. -1.
        -12    1    6    6    0    0  0.12505549365E+02  0.94705785371E+01 -0.11529836939E+02  0.19468378530E+02  0.00000000000E+00 0.  1.
</event>
<event>
12    1  0.8344842E-002  0.2481197E+03  0.7818608E-02  0.1114580E+00
         21   -1    0    0  501  502  0.00000000000E+00  0.00000000000E+00  0.22284685914E+03  0.22284685914E+03  0.00000000000E+00 0. -1.
         21   -1    0    0  502  503 -0.00000000000E+00 -0.00000000000E+00 -0.55980769825E+03  0.55980769825E+03  0.00000000000E+00 0.  1.
         -6    2    1    2    0  503 -0.29744781649E+02 -0.17663165898E+03 -0.44717769563E+03  0.51115657386E+03  0.17096682878E+03 0.  0.
        -24    2    3    3    0    0 -0.59042614371E+02 -0.39673430575E+02 -0.20344911089E+03  0.23001313654E+03  0.80339845981E+02 0.  0.
          6    2    1    2  501    0  0.29744781649E+02  0.17663165898E+03  0.11021685653E+03  0.27149798353E+03  0.17169713045E+03 0.  0.
         24    2    5    5    0    0 -0.48313004448E+02  0.72627130138E+02  0.50772272582E+02  0.12843957395E+03  0.79435848721E+02 0.  0.
          5    1    5    5  501    0  0.78057786096E+02  0.10400452884E+03  0.59444583948E+02  0.14305840958E+03  0.47000000000E+01 0. -1.
        -11    1    6    6    0    0 -0.33532153780E+02 -0.95309106661E+00  0.40658892150E+02  0.52711092102E+02  0.00000000000E+00 0.  1.
         12    1    6    6    0    0 -0.14780850668E+02  0.73580221204E+02  0.10113380432E+02  0.75728481846E+02  0.00000000000E+00 0. -1.
         -5    1    3    3    0  503  0.29297832722E+02 -0.13695822841E+03 -0.24372858474E+03  0.28114343733E+03  0.47000000000E+01 0.  1.
         13    1    4    4    0    0 -0.32037805385E+02 -0.55145129713E+02 -0.77965286379E+02  0.10072731598E+03  0.00000000000E+00 0. -1.
        -14    1    4    4    0    0 -0.27004808986E+02  0.15471699137E+02 -0.12548382451E+03  0.12928582055E+03  0.00000000000E+00 0.  1.
</event>
<event>
12    1  0.8344842E-002  0.2161453E+03  0.7818608E-02  0.1137378E+00
         21   -1    0    0  501  502  0.00000000000E+00  0.00000000000E+00  0.63622801509E+03  0.63622801509E+03  0.00000000000E+00 0. -1.
         21   -1    0    0  502  503 -0.00000000000E+00 -0.00000000000E+00 -0.92282279909E+02  0.92282279909E+02  0.00000000000E+00 0. -1.
         -6    2    1    2    0  503 -0.75595125121E+02 -0.10145120999E+03  0.43954371774E+03  0.48847158916E+03  0.17146090710E+03 0.  0.
        -24    2    3    3    0    0 -0.99068519242E+02 -0.32933748675E+02  0.21173641607E+03  0.24938185824E+03  0.80372868708E+02 0.  0.
          6    2    1    2  501    0  0.75595125121E+02  0.10145120999E+03  0.10440201744E+03  0.24003870584E+03  0.17524790471E+03 0.  0.
         24    2    5    5    0    0  0.66809584795E+02  0.18598293515E+02 -0.17250410403E+01  0.10503191331E+03  0.78862601435E+02 0.  0.
          5    1    5    5  501    0  0.87855403258E+01  0.82852916470E+02  0.10612705848E+03  0.13500679253E+03  0.47000000000E+01 0. -1.
        -11    1    6    6    0    0 -0.41452287148E+01  0.30178794195E+02 -0.11327026543E+02  0.32499908777E+02  0.00000000000E+00 0.  1.
         12    1    6    6    0    0  0.70954813510E+02 -0.11580500680E+02  0.96019855025E+01  0.72532004535E+02  0.00000000000E+00 0. -1.
         -5    1    3    3    0  503  0.23473394121E+02 -0.68517461310E+02  0.22780730167E+03  0.23908973092E+03  0.47000000000E+01 0.  1.
         11    1    4    4    0    0 -0.37493533877E+02 -0.52817853413E+02  0.12899256042E+03  0.14434185590E+03  0.00000000000E+00 0. -1.
        -12    1    4    4    0    0 -0.61574985365E+02  0.19884104738E+02  0.82743855646E+02  0.10504000234E+03  0.00000000000E+00 0.  1.
</event>
<event>
12    1  0.8344842E-002  0.3084873E+03  0.7818608E-02  0.1081200E+00
         21   -1    0    0  501  502  0.00000000000E+00  0.00000000000E+00  0.33932278102E+03  0.33932278102E+03  0.00000000000E+00 0. -1.
         21   -1    0    0  502  503 -0.00000000000E+00 -0.00000000000E+00 -0.47120034080E+03  0.47120034080E+03  0.00000000000E+00 0.  1.
         -6    2    1    2    0  503 -0.24260048115E+03 -0.79433377643E+02 -0.32436383328E+03  0.44690882761E+03  0.17132118641E+03 0.  0.
        -24    2    3    3    0    0 -0.22323840604E+03 -0.68754200771E+02 -0.19318833818E+03  0.31379971715E+03  0.81154189175E+02 0.  0.
          6    2    1    2  501    0  0.24260048115E+03  0.79433377643E+02  0.19248627351E+03  0.36361429422E+03  0.17320431442E+03 0.  0.
         24    2    5    5    0    0  0.60512098409E+02  0.53777235855E+02  0.28643373361E+02  0.11727915124E+03  0.79876475431E+02 0.  0.
          5    1    5    5  501    0  0.18208838274E+03  0.25656141788E+02  0.16384290014E+03  0.24633514298E+03  0.47000000000E+01 0. -1.
        -13    1    6    6    0    0  0.60785361595E+02  0.99721294826E+01  0.38147993919E+02  0.72453937027E+02  0.00000000000E+00 0.  1.
         14    1    6    6    0    0 -0.27326318527E+00  0.43805106372E+02 -0.95046205581E+01  0.44825214210E+02  0.00000000000E+00 0. -1.
         -5    1    3    3    0  503 -0.19362075110E+02 -0.10679176872E+02 -0.13117549510E+03  0.13310911046E+03  0.47000000000E+01 0.  1.
         11    1    4    4    0    0 -0.11632010265E+03  0.65289611937E+01 -0.89261865071E+02  0.14676741522E+03  0.00000000000E+00 0. -1.
        -12    1    4    4    0    0 -0.10691830339E+03 -0.75283161964E+02 -0.10392647311E+03  0.16703230193E+03  0.00000000000E+00 0.  1.
</event>
<event>
12    1  0.8344842E-002  0.2696152E+03  0.7818608E-02  0.1101730E+00
         21   -1    0    0  503  502  0.00000000000E+00  0.00000000000E+00  0.10576634740E+04  0.10576634740E+04  0.00000000000E+00 0. -1.
         21   -1    0    0  501  503 -0.00000000000E+00 -0.00000000000E+00 -0.48021054101E+03  0.48021054101E+03  0.00000000000E+00 0. -1.
          6    2    1    2  501    0  0.19537127757E+03  0.63874215576E+02 -0.42328970623E+03  0.50186305212E+03  0.17447778129E+03 0.  0.
         24    2    3    3    0    0  0.20666585589E+03  0.45450758025E+02 -0.29475205816E+03  0.37143679610E+03  0.79435321568E+02 0.  0.
         -6    2    1    2    0  502 -0.19537127757E+03 -0.63874215576E+02  0.10007426392E+04  0.10360109629E+04  0.17199719117E+03 0.  0.
        -24    2    5    5    0    0 -0.12177628079E+03 -0.36236996993E+02  0.87202405215E+03  0.88511164527E+03  0.82789459146E+02 0.  0.
          5    1    3    3  501    0 -0.11294578315E+02  0.18423457550E+02 -0.12853764807E+03  0.13042625602E+03  0.47000000000E+01 0. -1.
        -11    1    4    4    0    0  0.46642244427E+01  0.22853011353E+01  0.51283964571E+01  0.72991808549E+01  0.00000000000E+00 0.  1.
         12    1    4    4    0    0  0.20200163145E+03  0.43165456890E+02 -0.29988045462E+03  0.36413761525E+03  0.00000000000E+00 0. -1.
         -5    1    5    5    0  502 -0.73594996784E+02 -0.27637218583E+02  0.12871858705E+03  0.15089931761E+03  0.47000000000E+01 0.  1.
         11    1    6    6    0    0 -0.88520756660E+02 -0.42256741580E+02  0.39893916076E+03  0.41082114180E+03  0.00000000000E+00 0. -1.
        -12    1    6    6    0    0 -0.33255524131E+02  0.60197445876E+01  0.47308489140E+03  0.47429050346E+03  0.00000000000E+00 0.  1.
</event>
<event>
12    1  0.8344842E-002  0.1924462E+03  0.7818608E-02  0.1156367E+00
         21   -1    0    0  501  502  0.00000000000E+00  0.00000000000E+00  0.24192271943E+03  0.24192271943E+03  0.00000000000E+00 0.  1.
         21   -1    0    0  502  503 -0.00000000000E+00 -0.00000000000E+00 -0.15505293005E+03  0.15505293005E+03  0.00000000000E+00 0.  1.
         -6    2    1    2    0  503 -0.82986823286E+02 -0.19102701550E+02  0.67568652458E+02  0.20356398674E+03  0.17210766357E+03 0.  0.
        -24    2    3    3    0    0 -0.74290748264E+02  0.40771993318E+01 -0.20832547957E+02  0.11164123787E+03  0.80585557683E+02 0.  0.
          6    2    1    2  501    0  0.82986823286E+02  0.19102701550E+02  0.19301136923E+02  0.19341166273E+03  0.17257986948E+03 0.  0.
         24    2    5    5    0    0  0.10206454723E+03  0.59703677938E+02  0.24812065945E+02  0.14797094120E+03  0.85428682909E+02 0.  0.
          5    1    5    5  501    0 -0.19077723943E+02 -0.40600976388E+02 -0.55109290213E+01  0.45440721530E+02  0.47000000000E+01 0. -1.
        -11    1    6    6    0    0  0.68141003061E+02  0.11114371982E+02  0.48264771015E+02  0.84239027083E+02  0.00000000000E+00 0.  1.
         12    1    6    6    0    0  0.33923544168E+02  0.48589305956E+02 -0.23452705071E+02  0.63731914120E+02  0.00000000000E+00 0. -1.
         -5    1    3    3    0  503 -0.86960750219E+01 -0.23179900882E+02  0.88401200414E+02  0.91922748873E+02  0.47000000000E+01 0.  1.
         13    1    4    4    0    0  0.99630947691E+01 -0.90205322714E+01 -0.22671214949E+02  0.26355592331E+02  0.00000000000E+00 0. -1.
        -14    1    4    4    0    0 -0.84253843033E+02  0.13097731603E+02  0.18386669925E+01  0.85285645541E+02  0.00000000000E+00 0.  1.
</event>
<event>
12    1  0.8344842E-002  0.2158594E+03  0.7818608E-02  0.1137693E+00
         21   -1    0    0  503  502  0.00000000000E+00  0.00000000000E+00  0.39293713878E+03  0.39293713878E+03  0.00000000000E+00 0. -1.
         21   -1    0    0  501  503 -0.00000000000E+00 -0.00000000000E+00 -0.14366738872E+03  0.14366738872E+03  0.00000000000E+00 0. -1.
          6    2    1    2  501    0  0.13051418452E+03 -0.12814983481E+02  0.74203953532E+01  0.21243419356E+03  0.16695822281E+03 0.  0.
         24    2    3    3    0    0  0.23974534924E+02 -0.44452279355E+01 -0.44036560740E+02  0.93730115805E+02  0.79066918182E+02 0.  0.
         -6    2    1    2    0  502 -0.13051418452E+03  0.12814983481E+02  0.24184935471E+03  0.32417033394E+03  0.17145588025E+03 0.  0.
        -24    2    5    5    0    0 -0.14200536268E+03  0.15249995763E+02  0.12193066768E+03  0.20358609800E+03  0.78626497925E+02 0.  0.
          5    1    3    3  501    0  0.10653964960E+03 -0.83697555459E+01  0.51456956094E+02  0.11870407775E+03  0.47000000000E+01 0. -1.
        -13    1    4    4    0    0  0.23347154376E+01  0.25418141218E+02  0.10742354465E+02  0.27693518712E+02  0.00000000000E+00 0.  1.
         14    1    4    4    0    0  0.21639819486E+02 -0.29863369154E+02 -0.54778915206E+02  0.66036597094E+02  0.00000000000E+00 0. -1.
         -5    1    5    5    0  502  0.11491178156E+02 -0.24350122811E+01  0.11991868703E+03  0.12058423594E+03  0.47000000000E+01 0.  1.
         13    1    6    6    0    0 -0.35887776057E+02  0.34993450173E+02  0.63329568324E+02  0.80765761616E+02  0.00000000000E+00 0. -1.
        -14    1    6    6    0    0 -0.10611758662E+03 -0.19743454411E+02  0.58601099357E+02  0.12282033638E+03  0.00000000000E+00 0.  1.
</event>
<event>
12    1  0.8344842E-002  0.3437477E+03  0.7818608E-02  0.1065297E+00
         21   -1    0    0  503  502  0.00000000000E+00  0.00000000000E+00  0.12232812761E+04  0.12232812761E+04  0.00000000000E+00 0. -1.
         21   -1    0    0  501  503 -0.00000000000E+00 -0.00000000000E+00 -0.12409527764E+03  0.12409527764E+03  0.00000000000E+00 0.  1.
          6    2    1    2  501    0 -0.27414332082E+03  0.11434545432E+03  0.23163733839E+03  0.41450979649E+03  0.17301176717E+03 0.  0.
         24    2    3    3    0    0 -0.23449419916E+03  0.98576040622E+02  0.11969783267E+03  0.29462122240E+03  0.88143793424E+02 0.  0.
         -6    2    1    2    0  502  0.27414332082E+03 -0.11434545432E+03  0.86754866008E+03  0.93286675725E+03  0.17137755365E+03 0.  0.
        -24    2    5    5    0    0  0.13829072646E+03 -0.12647051679E+02  0.54721779329E+03  0.57033062566E+03  0.80903870860E+02 0.  0.
          5    1    3    3  501    0 -0.39649121654E+02  0.15769413700E+02  0.11193950572E+03  0.11988857409E+03  0.47000000000E+01 0. -1.
        -13    1    4    4    0    0 -0.13185643422E+03  0.95172353893E+02  0.97334709234E+02  0.18952029394E+03  0.00000000000E+00 0.  1.
         14    1    4    4    0    0 -0.10263776494E+03  0.34036867293E+01  0.22363123435E+02  0.10510092847E+03  0.00000000000E+00 0. -1.
         -5    1    5    5    0  502  0.13585259436E+03 -0.10169840264E+03  0.32033086679E+03  0.36253613159E+03  0.47000000000E+01 0.  1.
         13    1    6    6    0    0  0.14628452443E+03 -0.14025324266E+02  0.53941728536E+03  0.55907681007E+03  0.00000000000E+00 0. -1.
        -14    1    6    6    0    0 -0.79937979676E+01  0.13782725870E+01  0.78005079345E+01  0.11253815589E+02  0.00000000000E+00 0.  1.
</event>
<event>
12    1  0.8344842E-002  0.1824578E+03  0.7818608E-02  0.1165889E+00
         21   -1    0    0  503  502  0.00000000000E+00  0.00000000000E+00  0.45583920204E+03  0.45583920204E+03  0.00000000000E+00 0. -1.
         21   -1    0    0  501  503 -0.00000000000E+00 -0.00000000000E+00 -0.10474289165E+03  0.10474289165E+03  0.00000000000E+00 0. -1.
          6    2    1    2  501    0  0.41766292839E+02  0.39859590801E+02  0.18913092113E+02  0.18158799362E+03  0.17112359328E+03 0.  0.
         24    2    3    3    0    0  0.93089524747E+02  0.25087714686E+02  0.23645912445E+02  0.12776632470E+03  0.80436630368E+02 0.  0.
         -6    2    1    2    0  502 -0.41766292839E+02 -0.39859590801E+02  0.33218321827E+03  0.37899410007E+03  0.17308271777E+03 0.  0.
        -24    2    5    5    0    0 -0.88496664363E+02 -0.76429964855E+01  0.26651010680E+03  0.29206490968E+03  0.79901185479E+02 0.  0.
          5    1    3    3  501    0 -0.51323231909E+02  0.14771876115E+02 -0.47328203319E+01  0.53821668924E+02  0.47000000000E+01 0. -1.
        -11    1    4    4    0    0 -0.13442042101E+02 -0.48227583169E+01  0.68821599649E+01  0.15852811089E+02  0.00000000000E+00 0.  1.
         12    1    4    4    0    0  0.10653156685E+03  0.29910473003E+02  0.16763752480E+02  0.11191351361E+03  0.00000000000E+00 0. -1.
         -5    1    5    5    0  502  0.46730371524E+02 -0.32216594316E+02  0.65673111475E+02  0.86929190396E+02  0.47000000000E+01 0.  1.
         11    1    6    6    0    0 -0.18182732463E+02 -0.33135675403E+02  0.14082880356E+03  0.14581267659E+03  0.00000000000E+00 0. -1.
        -12    1    6    6    0    0 -0.70313931900E+02  0.25492678917E+02  0.12568130324E+03  0.14625223308E+03  0.00000000000E+00 0.  1.
</event>
<event>
12    1  0.8344842E-002  0.3240763E+03  0.7818608E-02  0.1073922E+00
         21   -1    0    0  503  502  0.00000000000E+00  0.00000000000E+00  0.69867122004E+03  0.69867122004E+03  0.00000000000E+00 0. -1.
         21   -1    0    0  501  503 -0.00000000000E+00 -0.00000000000E+00 -0.31610888563E+03  0.31610888563E+03  0.00000000000E+00 0. -1.
          6    2    1    2  501    0  0.22175015392E+03 -0.16200160824E+03 -0.17660992383E+03  0.36907520442E+03  0.17206914159E+03 0.  0.
         24    2    3    3    0    0  0.66258287827E+02 -0.17404080106E+02 -0.22945592795E+02  0.10692833300E+03  0.78829597612E+02 0.  0.
         -6    2    1    2    0  502 -0.22175015392E+03  0.16200160824E+03  0.55917225825E+03  0.64570490125E+03  0.16983389903E+03 0.  0.
        -24    2    5    5    0    0 -0.19735036851E+03  0.15963520109E+03  0.56066664934E+03  0.62069944953E+03  0.80561464623E+02 0.  0.
          5    1    3    3  501    0  0.15549186609E+03 -0.14459752813E+03 -0.15366433104E+03  0.26214687142E+03  0.47000000000E+01 0. -1.
        -13    1    4    4    0    0  0.60501563593E+02 -0.27251000643E+02  0.14382593257E+02  0.67896356471E+02  0.00000000000E+00 0.  1.
         14    1    4    4    0    0  0.57567242347E+01  0.98469205369E+01 -0.37328186052E+02  0.39031976531E+02  0.00000000000E+00 0. -1.
         -5    1    5    5    0  502 -0.24399785413E+02  0.23664071476E+01 -0.14943910902E+01  0.25005451720E+02  0.47000000000E+01 0.  1.
         11    1    6    6    0    0 -0.52964623497E+02  0.14500276968E+02  0.69506867829E+02  0.88581680102E+02  0.00000000000E+00 0. -1.
        -12    1    6    6    0    0 -0.14438574501E+03  0.14513492412E+03  0.49115978151E+03  0.53211776942E+03  0.00000000000E+00 0.  1.
</event>
<event>
12    1  0.8344842E-002  0.1732109E+03  0.7818608E-02  0.1174615E+00
         21   -1    0    0  501  502  0.00000000000E+00  0.00000000000E+00  0.13632321491E+04  0.13632321491E+04  0.00000000000E+00 0.  1.
         21   -1    0    0  502  503 -0.00000000000E+00 -0.00000000000E+00 -0.37933189767E+02  0.37933189767E+02  0.00000000000E+00 0.  1.
         -6    2    1    2    0  503  0.12049669877E+02  0.12545954709E+02  0.20851004068E+03  0.27106911257E+03  0.17233522914E+03 0.  0.
        -24    2    3    3    0    0  0.49223103226E+02  0.61317568950E+02  0.13807545478E+03  0.17756159740E+03  0.79249804456E+02 0.  0.
          6    2    1    2  501    0 -0.12049669877E+02 -0.12545954709E+02  0.11167889187E+04  0.11300962263E+04  0.17203893842E+03 0.  0.
         24    2    5    5    0    0 -0.69334320014E+01  0.17636996088E+02  0.10741897425E+04  0.10774277707E+04  0.81288756908E+02 0.  0.
          5    1    5    5  501    0 -0.51162378756E+01 -0.30182950797E+02  0.42599176134E+02  0.52668455608E+02  0.47000000000E+01 0. -1.
        -11    1    6    6    0    0 -0.36937103151E+02  0.31452606564E+02  0.52145543451E+03  0.52370734789E+03  0.00000000000E+00 0.  1.
         12    1    6    6    0    0  0.30003671150E+02 -0.13815610476E+02  0.55273430803E+03  0.55372042282E+03  0.00000000000E+00 0. -1.
         -5    1    3    3    0  503 -0.37173433349E+02 -0.48771614241E+02  0.70434585895E+02  0.93507515167E+02  0.47000000000E+01 0.  1.
         11    1    4    4    0    0  0.41716926896E+02  0.30470946607E+02  0.13630402373E+03  0.14576545360E+03  0.00000000000E+00 0. -1.
        -12    1    4    4    0    0  0.75061763294E+01  0.30846622343E+02  0.17714310506E+01  0.31796143808E+02  0.00000000000E+00 0.  1.
</event>
<event>
12    1  0.8344842E-002  0.1971735E+03  0.7818608E-02  0.1152472E+00
         21   -1    0    0  503  502  0.00000000000E+00  0.00000000000E+00  0.92184095225E+02  0.92184095225E+02  0.00000000000E+00 0.  1.
         21   -1    0    0  501  503 -0.00000000000E+00 -0.00000000000E+00 -0.85724566488E+03  0.85724566488E+03  0.00000000000E+00 0.  1.
          6    2    1    2  501    0  0.68735099130E+02  0.65847871561E+02 -0.43639235569E+02  0.20194499967E+03  0.17267583493E+03 0.  0.
         24    2    3    3    0    0  0.21820416827E+02  0.59659362162E+02  0.37409390867E+02  0.10797556362E+03  0.78891632829E+02 0.  0.
         -6    2    1    2    0  502 -0.68735099130E+02 -0.65847871561E+02 -0.72142233409E+03  0.74748476043E+03  0.17094685408E+03 0.  0.
        -24    2    5    5    0    0 -0.17739914318E+02  0.27600292431E+02 -0.29755268837E+03  0.31042568572E+03  0.82158525414E+02 0.  0.
          5    1    3    3  501    0  0.46914682303E+02  0.61885093993E+01 -0.81048626436E+02  0.93969436049E+02  0.47000000000E+01 0. -1.
        -13    1    4    4    0    0 -0.18907734252E+02  0.41382919507E+02  0.43468869338E+02  0.62925281429E+02  0.00000000000E+00 0.  1.
         14    1    4    4    0    0  0.40728151078E+02  0.18276442655E+02 -0.60594784703E+01  0.45050282193E+02  0.00000000000E+00 0. -1.
         -5    1    5    5    0  502 -0.50995184812E+02 -0.93448163992E+02 -0.42386964572E+03  0.43705907471E+03  0.47000000000E+01 0.  1.
         13    1    6    6    0    0 -0.86886919543E+01  0.24563365760E+02 -0.20353984503E+02  0.33062622257E+02  0.00000000000E+00 0. -1.
        -14    1    6    6    0    0 -0.90512223633E+01  0.30369266705E+01 -0.27719870386E+03  0.27736306346E+03  0.00000000000E+00 0.  1.
</event>
<event>
12    1  0.8344842E-002  0.2604349E+03  0.7818608E-02  0.1107882E+00
         21   -1    0    0  501  502  0.00000000000E+00  0.00000000000E+00  0.14204315660E+03  0.14204315660E+03  0.00000000000E+00 0.  1.
         21   -1    0    0  502  503 -0.00000000000E+00 -0.00000000000E+00 -0.11576255983E+04  0.11576255983E+04  0.00000000000E+00 0.  1.
         -6    2    1    2    0  503  0.17145311015E+03  0.79771709694E+02 -0.10128492604E+04  0.10457963360E+04  0.17907165411E+03 0.  0.
        -24    2    3    3    0    0  0.19159966825E+03  0.44117788473E+02 -0.74629968724E+03  0.77607824078E+03  0.81715362687E+02 0.  0.
          6    2    1    2  501    0 -0.17145311015E+03 -0.79771709694E+02 -0.27331812627E+01  0.25387241894E+03  0.16936363296E+03 0.  0.
         24    2    5    5    0    0 -0.61592243067E+02 -0.49721959003E+02  0.56555251457E+02  0.12538270773E+03  0.79097720047E+02 0.  0.
          5    1    5    5  501    0 -0.10986086709E+03 -0.30049750691E+02 -0.59288432720E+02  0.12848971121E+03  0.47000000000E+01 0. -1.
        -11    1    6    6    0    0 -0.68821726336E+02 -0.55102405798E+02  0.67622546960E+02  0.11111036854E+03  0.00000000000E+00 0.  1.
         12    1    6    6    0    0  0.72294832684E+01  0.53804467949E+01 -0.11067295503E+02  0.14272339184E+02  0.00000000000E+00 0. -1.
         -5    1    3    3    0  503 -0.20146558098E+02  0.35653921221E+02 -0.26654957321E+03  0.26971809520E+03  0.47000000000E+01 0.  1.
         11    1    4    4    0    0  0.28352626787E+02 -0.19596080234E+01 -0.36326191506E+02  0.46122702638E+02  0.00000000000E+00 0. -1.
        -12    1    4    4    0    0  0.16324704146E+03  0.46077396496E+02 -0.70997349574E+03  0.72995553814E+03  0.00000000000E+00 0.  1.
</event>
<event>
12    1  0.8344842E-002  0.1912314E+03  0.7818608E-02  0.1157435E+00
         21   -1    0    0  503  502  0.00000000000E+00  0.00000000000E+00  0.28829057607E+03  0.28829057607E+03  0.00000000000E+00 0. -1.
         21   -1    0    0  501  503 -0.00000000000E+00 -0.00000000000E+00 -0.16017588558E+03  0.16017588558E+03  0.00000000000E+00 0. -1.
          6    2    1    2  501    0 -0.40709808254E+02  0.73592848900E+02 -0.38536949945E+02  0.19507578522E+03  0.17174478033E+03 0.  0.
         24    2    3    3    0    0  0.36814044703E+02  0.57280297721E+02  0.30448498479E+01  0.10548123641E+03  0.80502880251E+02 0.  0.
         -6    2    1    2    0  502  0.40709808254E+02 -0.73592848900E+02  0.16665164043E+03  0.25339067643E+03  0.17135013786E+03 0.  0.
        -24    2    5    5    0    0 -0.27573633773E+02 -0.80382916835E+02  0.12890270727E+03  0.17493173536E+03  0.82240412803E+02 0.  0.
          5    1    3    3  501    0 -0.77523852957E+02  0.16312551179E+02 -0.41581799793E+02  0.89594548815E+02  0.47000000000E+01 0. -1.
        -11    1    4    4    0    0  0.32359304225E+02  0.73857956771E+02 -0.13362480597E+02  0.81735416044E+02  0.00000000000E+00 0.  1.
         12    1    4    4    0    0  0.44547404788E+01 -0.16577659050E+02  0.16407330445E+02  0.23745820361E+02  0.00000000000E+00 0. -1.
         -5    1    5    5    0  502  0.68283442027E+02  0.67900679351E+01  0.37748933167E+02  0.78458941064E+02  0.47000000000E+01 0.  1.
         11    1    6    6    0    0  0.20524557029E+02 -0.43416037406E+02  0.92396795049E+02  0.10413153932E+03  0.00000000000E+00 0. -1.
        -12    1    6    6    0    0 -0.48098190802E+02 -0.36966879429E+02  0.36505912216E+02  0.70800196044E+02  0.00000000000E+00 0.  1.
</event>
<event>
12    1  0.8344842E-002  0.1798296E+03  0.7818608E-02  0.1168179E+00
         21   -1    0    0  501  502  0.00000000000E+00  0.00000000000E+00  0.24215120476E+03  0.24215120476E+03  0.00000000000E+00 0.  1.
         21   -1    0    0  502  503 -0.00000000000E+00 -0.00000000000E+00 -0.18058309379E+03  0.18058309379E+03  0.00000000000E+00 0.  1.
         -6    2    1    2    0  503 -0.49231519963E+02 -0.20959666052E+02  0.13933707365E+03  0.22680904549E+03  0.17077608984E+03 0.  0.
        -24    2    3    3    0    0  0.35074029258E+02 -0.45201493418E+02  0.25052084193E+02  0.82662451221E+02  0.54148973987E+02 0.  0.
          6    2    1    2  501    0  0.49231519963E+02  0.20959666052E+02 -0.77768962674E+02  0.19592525306E+03  0.17168471998E+03 0.  0.
         24    2    5    5    0    0  0.66829696092E+02  0.32696440168E+02 -0.11150689126E+03  0.15582805247E+03  0.79456463919E+02 0.  0.
          5    1    5    5  501    0 -0.17598176129E+02 -0.11736774116E+02  0.33737928589E+02  0.40097200591E+02  0.47000000000E+01 0. -1.
        -13    1    6    6    0    0  0.45264254486E+02 -0.20465391980E+02 -0.65976973794E+02  0.82587202847E+02  0.00000000000E+00 0.  1.
         14    1    6    6    0    0  0.21565441607E+02  0.53161832148E+02 -0.45529917469E+02  0.73240849625E+02  0.00000000000E+00 0. -1.
         -5    1    3    3    0  503 -0.84305549221E+02  0.24241827366E+02  0.11428498946E+03  0.14414659427E+03  0.47000000000E+01 0.  1.
         11    1    4    4    0    0  0.28051909464E+02 -0.13569126384E+01 -0.56904564914E+01  0.28655403182E+02  0.00000000000E+00 0. -1.
        -12    1    4    4    0    0  0.70221197942E+01 -0.43844580780E+02  0.30742540684E+02  0.54007048039E+02  0.00000000000E+00 0.  1.
</event>
<event>
12    1  0.8344842E-002  0.2128595E+03  0.7818608E-02  0.1139370E+00
         21   -1    0    0  501  502  0.00000000000E+00  0.00000000000E+00  0.57930885150E+03  0.57930885150E+03  0.00000000000E+00 0.  1.
         21   -1    0    0  502  503 -0.00000000000E+00 -0.00000000000E+00 -0.12638421908E+03  0.12638421908E+03  0.00000000000E+00 0.  1.
         -6    2    1    2    0  503  0.12425109438E+03  0.11641296000E+02  0.83368144441E+01  0.21277575569E+03  0.17213414973E+03 0.  0.
        -24    2    3    3    0    0 -0.31095325879E+00  0.95934014508E+01  0.29645563906E+02  0.86300262453E+02  0.80478231820E+02 0.  0.
          6    2    1    2  501    0 -0.12425109438E+03 -0.11641296000E+02  0.44458781797E+03  0.49291731490E+03  0.17243925658E+03 0.  0.
         24    2    5    5    0    0 -0.77968715925E+02  0.60686791674E+02  0.26948031276E+03  0.29783236109E+03  0.79513954738E+02 0.  0.
          5    1    5    5  501    0 -0.46282378459E+02 -0.72328087673E+02  0.17510750521E+03  0.19508495381E+03  0.47000000000E+01 0. -1.
        -13    1    6    6    0    0 -0.44356811571E+02 -0.11568088587E+02  0.11959274863E+03  0.12807721472E+03  0.00000000000E+00 0.  1.
         14    1    6    6    0    0 -0.33611904354E+02  0.72254880261E+02  0.14988756413E+03  0.16975514637E+03  0.00000000000E+00 0. -1.
         -5    1    3    3    0  503  0.12456204764E+03  0.20478945487E+01 -0.21308749462E+02  0.12647549323E+03  0.47000000000E+01 0.  1.
         11    1    4    4    0    0 -0.11845040123E+01  0.35805045971E+02  0.43730587000E+02  0.56531129531E+02  0.00000000000E+00 0. -1.
        -12    1    4    4    0    0  0.87355075351E+00 -0.26211644520E+02 -0.14085023094E+02  0.29769132922E+02  0.00000000000E+00 0.  1.
</event>
<event>
12    1  0.8344842E-002  0.1995994E+03  0.7818608E-02  0.1150749E+00
         21   -1    0    0  501  502  0.00000000000E+00  0.00000000000E+00  0.77945796989E+02  0.77945796989E+02  0.00000000000E+00 0.  1.
         21   -1    0    0  502  503 -0.00000000000E+00 -0.00000000000E+00 -0.51828714768E+03  0.51828714768E+03  0.00000000000E+00 0.  1.
         -6    2    1    2    0  503 -0.16082792870E+01  0.94685304657E+02 -0.26950783308E+03  0.33350870036E+03  0.17212114236E+03 0.  0.
        -24    2    3    3    0    0 -0.60709416376E+02  0.21404161654E+02 -0.13090735322E+03  0.16589231291E+03  0.78992107095E+02 0.  0.
          6    2    1    2  501    0  0.16082792870E+01 -0.94685304657E+02 -0.17083351761E+03  0.26272424431E+03  0.17570442318E+03 0.  0.
         24    2    5    5    0    0  0.31646415543E+02 -0.11324600634E+03 -0.17611625805E+03  0.22671332064E+03  0.80968140893E+02 0.  0.
          5    1    5    5  501    0 -0.30038136256E+02  0.18560701680E+02  0.52827404360E+01  0.36010923664E+02  0.47000000000E+01 0. -1.
        -11    1    6    6    0    0  0.28025944030E+02 -0.12532245377E+03 -0.16893777435E+03  0.21220542538E+03  0.00000000000E+00 0.  1.
         12    1    6    6    0    0  0.36204715135E+01  0.12076447439E+02 -0.71784837023E+01  0.14507895264E+02  0.00000000000E+00 0. -1.
         -5    1    3    3    0  503  0.59101137089E+02  0.73281143003E+02 -0.13860047986E+03  0.16761638745E+03  0.47000000000E+01 0.  1.
         13    1    4    4    0    0 -0.14153263999E+01  0.25286196119E+02 -0.90642479843E+02  0.94114047916E+02  0.00000000000E+00 0. -1.
        -14    1    4    4    0    0 -0.59294089976E+02 -0.38820344658E+01 -0.40264873375E+02  0.71778264994E+02  0.00000000000E+00 0.  1.
</event>
<event>
12    1  0.8344842E-002  0.2173044E+03  0.7818608E-02  0.1136057E+00
         21   -1    0    0  503  502  0.00000000000E+00  0.00000000000E+00  0.16789697527E+03  0.16789697527E+03  0.00000000000E+00 0.  1.
         21   -1    0    0  501  503 -0.00000000000E+00 -0.00000000000E+00 -0.35514097416E+03  0.35514097416E+03  0.00000000000E+00 0. -1.
          6    2    1    2  501    0 -0.91089271463E+02  0.97400327045E+02 -0.21385359810E+03  0.30488447381E+03  0.17157243912E+03 0.  0.
         24    2    3    3    0    0 -0.11686136547E+03  0.30349123571E+02 -0.15386359984E+03  0.21117772588E+03  0.79651594514E+02 0.  0.
         -6    2    1    2    0  502  0.91089271463E+02 -0.97400327045E+02  0.26609599204E+02  0.21815347562E+03  0.17058367176E+03 0.  0.
        -24    2    5    5    0    0  0.12388324206E+03 -0.41700249530E+02  0.24840259782E+02  0.15332166472E+03  0.76187439188E+02 0.  0.
          5    1    3    3  501    0  0.25772094009E+02  0.67051203473E+02 -0.59989998255E+02  0.93706747929E+02  0.47000000000E+01 0. -1.
        -11    1    4    4    0    0 -0.50229361372E+02  0.32808017811E+02 -0.22898384747E+02  0.64215969981E+02  0.00000000000E+00 0.  1.
         12    1    4    4    0    0 -0.66632004099E+02 -0.24588942398E+01 -0.13096521509E+03  0.14696175589E+03  0.00000000000E+00 0. -1.
         -5    1    5    5    0  502 -0.32793970602E+02 -0.55700077515E+02  0.17693394219E+01  0.64831810903E+02  0.47000000000E+01 0.  1.
         11    1    6    6    0    0  0.96356673106E+02 -0.12883243560E+02  0.46721098736E+02  0.10785846042E+03  0.00000000000E+00 0. -1.
        -12    1    6    6    0    0  0.27526568959E+02 -0.28817005970E+02 -0.21880838954E+02  0.45463204298E+02  0.00000000000E+00 0.  1.
</event>
<event>
12    1  0.8344842E-002  0.1815345E+03  0.7818608E-02  0.1166333E+00
         21   -1    0    0  501  502  0.00000000000E+00  0.00000000000E+00  0.15443228556E+02  0.15443228556E+02  0.00000000000E+00 0.  1.
         21   -1    0    0  502  503 -0.00000000000E+00 -0.00000000000E+00 -0.21360138706E+04  0.21360138706E+04  0.00000000000E+00 0.  1.
         -6    2    1    2    0  503  0.53596173456E+02  0.25019667612E+02 -0.10239014748E+04  0.10398645387E+04  0.17159689753E+03 0.  0.
        -24    2    3    3    0    0 -0.97419881846E+01  0.15572214688E+02 -0.85975975276E+03  0.86361025651E+03  0.79362727291E+02 0.  0.
          6    2    1    2  501    0 -0.53596173456E+02 -0.25019667612E+02 -0.10966691673E+04  0.11115925605E+04  0.17162815744E+03 0.  0.
         24    2    5    5    0    0 -0.84240433368E+02  0.27323355949E+02 -0.68199107403E+03  0.69247578222E+03  0.81042380931E+02 0.  0.
          5    1    5    5  501    0  0.30644259912E+02 -0.52343023561E+02 -0.41467809328E+03  0.41911677827E+03  0.47000000000E+01 0. -1.
        -13    1    6    6    0    0 -0.47606288269E+02 -0.20687724184E+02 -0.44050968432E+03  0.44355734983E+03  0.00000000000E+00 0.  1.
         14    1    6    6    0    0 -0.36634145099E+02  0.48011080133E+02 -0.24148138971E+03  0.24891843239E+03  0.00000000000E+00 0. -1.
         -5    1    3    3    0  503  0.63338161641E+02  0.94474529237E+01 -0.16414172201E+03  0.17625428219E+03  0.47000000000E+01 0.  1.
         13    1    4    4    0    0  0.20177191460E+02  0.24730589454E+02 -0.16006244966E+03  0.16321369091E+03  0.00000000000E+00 0. -1.
        -14    1    4    4    0    0 -0.29919179645E+02 -0.91583747657E+01 -0.69969730311E+03  0.70039656561E+03  0.00000000000E+00 0.  1.
</event>
<event>
12    1  0.8344842E-002  0.1864554E+03  0.7818608E-02  0.1161729E+00
         21   -1    0    0  503  502  0.00000000000E+00  0.00000000000E+00  0.99935329280E+02  0.99935329280E+02  0.00000000000E+00 0. -1.
         21   -1    0    0  501  503 -0.00000000000E+00 -0.00000000000E+00 -0.38086021268E+03  0.38086021268E+03  0.00000000000E+00 0. -1.
          6    2    1    2  501    0 -0.65197801077E+02 -0.30378216904E+02 -0.21142903061E+03  0.28180990702E+03  0.17187495275E+03 0.  0.
         24    2    3    3    0    0 -0.16628603602E+02 -0.76313888255E+02 -0.87993990079E+02  0.14135581460E+03  0.78346691270E+02 0.  0.
         -6    2    1    2    0  502  0.65197801077E+02  0.30378216904E+02 -0.69495852790E+02  0.19898563494E+03  0.17202331246E+03 0.  0.
        -24    2    5    5    0    0  0.56857713106E+02  0.84615710529E+02 -0.43806377303E+02  0.13821309235E+03  0.82408993424E+02 0.  0.
          5    1    3    3  501    0 -0.48569197475E+02  0.45935671351E+02 -0.12343504053E+03  0.14045409242E+03  0.47000000000E+01 0. -1.
        -11    1    4    4    0    0  0.20583568414E+02 -0.61239987520E+02 -0.75365605638E+02  0.99267285010E+02  0.00000000000E+00 0.  1.
         12    1    4    4    0    0 -0.37212172015E+02 -0.15073900735E+02 -0.12628384441E+02  0.42088529590E+02  0.00000000000E+00 0. -1.
         -5    1    5    5    0  502  0.83400879706E+01 -0.54237493625E+02 -0.25689475487E+02  0.60772542590E+02  0.47000000000E+01 0.  1.
         13    1    6    6    0    0  0.17360597322E+02 -0.15615892851E+02 -0.74056102376E+01  0.24496724514E+02  0.00000000000E+00 0. -1.
        -14    1    6    6    0    0  0.39497115784E+02  0.10023160338E+03 -0.36400767065E+02  0.11371636784E+03  0.00000000000E+00 0.  1.
</event>
<event>
12    1  0.8344842E-002  0.1847112E+03  0.7818608E-02  0.1163764E+00
         21   -1    0    0  503  502  0.00000000000E+00  0.00000000000E+00  0.36366160457E+03  0.36366160457E+03  0.00000000000E+00 0. -1.
         21   -1    0    0  501  503 -0.00000000000E+00 -0.00000000000E+00 -0.16721008716E+03  0.16721008716E+03  0.00000000000E+00 0. -1.
          6    2    1    2  501    0 -0.50368859948E+01  0.67441918597E+02  0.27550000271E+03  0.33169033436E+03  0.17188497261E+03 0.  0.
         24    2    3    3    0    0 -0.72860107321E+01  0.34494853403E+02  0.27782756497E+03  0.29825270267E+03  0.10258429670E+03 0.  0.
         -6    2    1    2    0  502  0.50368859948E+01 -0.67441918597E+02 -0.79048485298E+02  0.19918135737E+03  0.16985513678E+03 0.  0.
        -24    2    5    5    0    0  0.43761865737E+02 -0.71469445146E+02 -0.55261835254E+01  0.11585390761E+03  0.79803550805E+02 0.  0.
          5    1    3    3  501    0  0.22491247374E+01  0.32947065194E+02 -0.23275622574E+01  0.33437631690E+02  0.47000000000E+01 0. -1.
        -11    1    4    4    0    0  0.92126850311E+01  0.96468447247E+01 -0.47090882264E+01  0.14146048584E+02  0.00000000000E+00 0.  1.
         12    1    4    4    0    0 -0.16498695763E+02  0.24848008678E+02  0.28253665319E+03  0.28410665408E+03  0.00000000000E+00 0. -1.
         -5    1    5    5    0  502 -0.38724979742E+02  0.40275265482E+01 -0.73522301773E+02  0.83327449763E+02  0.47000000000E+01 0.  1.
         11    1    6    6    0    0  0.20424318572E+02 -0.14932343506E+02 -0.38727285592E+02  0.46259380897E+02  0.00000000000E+00 0. -1.
        -12    1    6    6    0    0  0.23337547165E+02 -0.56537101639E+02  0.33201102066E+02  0.69594526709E+02  0.00000000000E+00 0.  1.
</event>
<event>
12    1  0.8344842E-002  0.3676985E+03  0.7818608E-02  0.1055579E+00
         21   -1    0    0  503  502  0.00000000000E+00  0.00000000000E+00  0.71027177775E+03  0.71027177775E+03  0.00000000000E+00 0. -1.
         21   -1    0    0  501  503 -0.00000000000E+00 -0.00000000000E+00 -0.23497245134E+03  0.23497245134E+03  0.00000000000E+00 0.  1.
          6    2    1    2  501    0 -0.31778825756E+03 -0.66066865072E+02  0.31662830797E+02  0.36903632261E+03  0.17271671965E+03 0.  0.
         24    2    3    3    0    0 -0.98910537207E+02 -0.55428148659E+02 -0.30024693408E+02  0.14133458920E+03  0.78856894793E+02 0.  0.
         -6    2    1    2    0  502  0.31778825756E+03  0.66066865072E+02  0.44363649562E+03  0.57620790648E+03  0.17276574873E+03 0.  0.
        -24    2    5    5    0    0  0.27427836041E+03  0.16227901551E+02  0.41761233729E+03  0.50495918542E+03  0.71356505719E+02 0.  0.
          5    1    3    3  501    0 -0.21887772036E+03 -0.10638716413E+02  0.61687524205E+02  0.22770173341E+03  0.47000000000E+01 0. -1.
        -11    1    4    4    0    0 -0.10403652552E+03 -0.64817533628E+02 -0.15880465217E+02  0.12360056830E+03  0.00000000000E+00 0.  1.
         12    1    4    4    0    0  0.51259883138E+01  0.93893849695E+01 -0.14144228192E+02  0.17734020904E+02  0.00000000000E+00 0. -1.
         -5    1    5    5    0  502  0.43509897151E+02  0.49838963521E+02  0.26024158330E+02  0.71248721054E+02  0.47000000000E+01 0.  1.
         11    1    6    6    0    0  0.41774550425E+02 -0.22991289483E+02  0.60593213152E+02  0.77105446859E+02  0.00000000000E+00 0. -1.
        -12    1    6    6    0    0  0.23250380999E+03  0.39219191033E+02  0.35701912414E+03  0.42785373856E+03  0.00000000000E+00 0.  1.
</event>
<event>
12    1  0.8344842E-002  0.3439416E+03  0.7818608E-02  0.1065173E+00
         21   -1    0    0  501  502  0.00000000000E+00  0.00000000000E+00  0.10070975646E+03  0.10070975646E+03  0.00000000000E+00 0.  1.
         21   -1    0    0  502  503 -0.00000000000E+00 -0.00000000000E+00 -0.17255679028E+04  0.17255679028E+04  0.00000000000E+00 0. -1.
         -6    2    1    2    0  503 -0.10198703006E+03 -0.27952163498E+03 -0.13294031132E+04  0.13731746029E+04  0.17251711154E+03 0.  0.
        -24    2    3    3    0    0 -0.49692978966E+02 -0.10023747745E+03 -0.80076119963E+03  0.81249480143E+03  0.80077209517E+02 0.  0.
          6    2    1    2  501    0  0.10198703006E+03  0.27952163498E+03 -0.29545503314E+03  0.45310305642E+03  0.17168285999E+03 0.  0.
         24    2    5    5    0    0  0.10680307390E+02  0.19695151891E+03 -0.14010752060E+03  0.25483636400E+03  0.80046769587E+02 0.  0.
          5    1    5    5  501    0  0.91306722674E+02  0.82570116065E+02 -0.15534751254E+03  0.19826669242E+03  0.47000000000E+01 0. -1.
        -11    1    6    6    0    0  0.62230082500E+01  0.21252508270E+00 -0.27312025569E+02  0.28012813841E+02  0.00000000000E+00 0.  1.
         12    1    6    6    0    0  0.44572991404E+01  0.19673899383E+03 -0.11279549503E+03  0.22682355016E+03  0.00000000000E+00 0. -1.
         -5    1    3    3    0  503 -0.52294051098E+02 -0.17928415752E+03 -0.52864191362E+03  0.56067980145E+03  0.47000000000E+01 0.  1.
         13    1    4    4    0    0 -0.70471601934E+02 -0.89584341237E+02 -0.64512083330E+03  0.65511257844E+03  0.00000000000E+00 0. -1.
        -14    1    4    4    0    0  0.20778622968E+02 -0.10653136216E+02 -0.15564036633E+03  0.15738222299E+03  0.00000000000E+00 0.  1.
</event>
<event>
12    1  0.8344842E-002  0.2511205E+03  0.7818608E-02  0.1112772E+00
         21   -1    0    0  501  502  0.00000000000E+00  0.00000000000E+00  0.38779149078E+02  0.38779149078E+02  0.00000000000E+00 0. -1.
         21   -1    0    0  502  503 -0.00000000000E+00 -0.00000000000E+00 -0.17106508565E+04  0.17106508565E+04  0.00000000000E+00 0. -1.
         -6    2    1    2    0  503 -0.66874069909E+02  0.17022863911E+03 -0.10400827460E+04  0.10699689750E+04  0.17208009241E+03 0.  0.
        -24    2    3    3    0    0 -0.73460031770E+02  0.15317470090E+03 -0.58774491877E+03  0.61723747442E+03  0.81726036392E+02 0.  0.
          6    2    1    2  501    0  0.66874069909E+02 -0.17022863911E+03 -0.63178896143E+03  0.67946103055E+03  0.17047014243E+03 0.  0.
         24    2    5    5    0    0 -0.11831930075E+02 -0.46923487250E+02 -0.34533589122E+03  0.35778379117E+03  0.80065943023E+02 0.  0.
          5    1    5    5  501    0  0.78705999984E+02 -0.12330515186E+03 -0.28645307021E+03  0.32167723939E+03  0.47000000000E+01 0. -1.
        -13    1    6    6    0    0 -0.23802313216E+01 -0.67723957400E+02 -0.29200334869E+03  0.29976349937E+03  0.00000000000E+00 0.  1.
         14    1    6    6    0    0 -0.94516987530E+01  0.20800470150E+02 -0.53332542532E+02  0.58020291801E+02  0.00000000000E+00 0. -1.
         -5    1    3    3    0  503  0.65859618613E+01  0.17053938203E+02 -0.45233782721E+03  0.45273150059E+03  0.47000000000E+01 0.  1.
         13    1    4    4    0    0 -0.66219725444E+02  0.13008666921E+03 -0.56660840139E+03  0.58510911296E+03  0.00000000000E+00 0. -1.
        -14    1    4    4    0    0 -0.72403063259E+01  0.23088031691E+02 -0.21136517378E+02  0.32128361457E+02  0.00000000000E+00 0.  1.
</event>
<event>
12    1  0.8344842E-002  0.4333138E+03  0.7818608E-02  0.1032825E+00
         21   -1    0    0  503  502  0.00000000000E+00  0.00000000000E+00  0.11681423829E+04  0.11681423829E+04  0.00000000000E+00 0.  1.
         21   -1    0    0  501  503 -0.00000000000E+00 -0.00000000000E+00 -0.21985935110E+03  0.21985935110E+03  0.00000000000E+00 0. -1.
          6    2    1    2  501    0 -0.12611533303E+03 -0.37712420710E+03  0.11418947570E+03  0.44810727139E+03  0.17214280557E+03 0.  0.
         24    2    3    3    0    0 -0.12274709357E+03 -0.39098242039E+03  0.11390764336E+03  0.43308846512E+03  0.81587777084E+02 0.  0.
         -6    2    1    2    0  502  0.12611533303E+03  0.37712420710E+03  0.83409355610E+03  0.93989446261E+03  0.17193544051E+03 0.  0.
        -24    2    5    5    0    0  0.32149301489E+02  0.25783132522E+03  0.61133306332E+03  0.67025630897E+03  0.89469746614E+02 0.  0.
          5    1    3    3  501    0 -0.33682394568E+01  0.13858213285E+02  0.28183234145E+00  0.15018806277E+02  0.47000000000E+01 0. -1.
        -13    1    4    4    0    0 -0.10583567298E+03 -0.28044889647E+03  0.11555525331E+03  0.32125657935E+03  0.00000000000E+00 0.  1.
         14    1    4    4    0    0 -0.16911420593E+02 -0.11053352391E+03 -0.16476099549E+01  0.11183188577E+03  0.00000000000E+00 0. -1.
         -5    1    5    5    0  502  0.93966031542E+02  0.11929288188E+03  0.22276049279E+03  0.26963815364E+03  0.47000000000E+01 0.  1.
         11    1    6    6    0    0 -0.31364073110E+02  0.77186004086E+02  0.18575001325E+03  0.20357910436E+03  0.00000000000E+00 0. -1.
        -12    1    6    6    0    0  0.63513374599E+02  0.18064532113E+03  0.42558305006E+03  0.46667720461E+03  0.00000000000E+00 0.  1.
</event>
<event>
12    1  0.8344842E-002  0.2671990E+03  0.7818608E-02  0.1103125E+00
         21   -1    0    0  503  502  0.00000000000E+00  0.00000000000E+00  0.27940598162E+03  0.27940598162E+03  0.00000000000E+00 0.  1.
         21   -1    0    0  501  503 -0.00000000000E+00 -0.00000000000E+00 -0.34326191515E+03  0.34326191515E+03  0.00000000000E+00 0.  1.
          6    2    1    2  501    0 -0.19320296549E+03  0.67136144360E+02 -0.19061226623E+03  0.32692731219E+03  0.16945141977E+03 0.  0.
         24    2    3    3    0    0 -0.14289055309E+03  0.11055308710E+03 -0.15560615400E+03  0.25166850770E+03  0.80523706926E+02 0.  0.
         -6    2    1    2    0  502  0.19320296549E+03 -0.67136144360E+02  0.12675633270E+03  0.29574058459E+03  0.17193218937E+03 0.  0.
        -24    2    5    5    0    0  0.43414498814E+02 -0.66178481910E+02  0.79077171607E+02  0.13847363234E+03  0.81592509521E+02 0.  0.
          5    1    3    3  501    0 -0.50312412396E+02 -0.43416942742E+02 -0.35006112233E+02  0.75258804481E+02  0.47000000000E+01 0. -1.
        -13    1    4    4    0    0 -0.96150115296E+02  0.10445843521E+03 -0.14583652679E+03  0.20353059206E+03  0.00000000000E+00 0.  1.
         14    1    4    4    0    0 -0.46740437796E+02  0.60946518921E+01 -0.97696272135E+01  0.48137915648E+02  0.00000000000E+00 0. -1.
         -5    1    5    5    0  502  0.14978846668E+03 -0.95766245045E+00  0.47679161092E+02  0.15726695225E+03  0.47000000000E+01 0.  1.
         13    1    6    6    0    0 -0.13473172703E+02 -0.44885485056E+01  0.46223510979E+02  0.48355831268E+02  0.00000000000E+00 0. -1.
        -14    1    6    6    0    0  0.56887671517E+02 -0.61689933404E+02  0.32853660628E+02  0.90117801075E+02  0.00000000000E+00 0.  1.
</event>
<event>
12    1  0.8344842E-002  0.2895913E+03  0.7818608E-02  0.1091776E+00
         21   -1    0    0  503  502  0.00000000000E+00  0.00000000000E+00  0.46998594008E+03  0.46998594008E+03  0.00000000000E+00 0. -1.
         21   -1    0    0  501  503 -0.00000000000E+00 -0.00000000000E+00 -0.20114022861E+03  0.20114022861E+03  0.00000000000E+00 0.  1.
          6    2    1    2  501    0  0.85635025421E+02 -0.21156601621E+03  0.25838205901E+03  0.38134589101E+03  0.16300264839E+03 0.  0.
         24    2    3    3    0    0 -0.78738175111E+01 -0.85766463697E+02  0.14785708655E+03  0.18949362844E+03  0.81413966110E+02 0.  0.
         -6    2    1    2    0  502 -0.85635025421E+02  0.21156601621E+03  0.10463652462E+02  0.28978027768E+03  0.17824024382E+03 0.  0.
        -24    2    5    5    0    0  0.10864381534E+01  0.17503625906E+03 -0.66512116297E+01  0.19401993111E+03  0.83430346513E+02 0.  0.
          5    1    3    3  501    0  0.93508842933E+02 -0.12579955251E+03  0.11052497246E+03  0.19185226258E+03  0.47000000000E+01 0. -1.
        -11    1    4    4    0    0 -0.15443893375E+02  0.10930028893E+02  0.11438662850E+02  0.22109327941E+02  0.00000000000E+00 0.  1.
         12    1    4    4    0    0  0.75700758636E+01 -0.96696492590E+02  0.13641842370E+03  0.16738430050E+03  0.00000000000E+00 0. -1.
         -5    1    5    5    0  502 -0.86721463575E+02  0.36529757150E+02  0.17114864092E+02  0.95760346568E+02  0.47000000000E+01 0.  1.
         11    1    6    6    0    0  0.37856269086E+02  0.45705227170E+02 -0.49451427502E+01  0.59552660197E+02  0.00000000000E+00 0. -1.
        -12    1    6    6    0    0 -0.36769830932E+02  0.12933103189E+03 -0.17060688796E+01  0.13446727091E+03  0.00000000000E+00 0.  1.
</event>
<event>
12    1  0.8344842E-002  0.1894138E+03  0.7818608E-02  0.1159044E+00
         21   -1    0    0  501  502  0.00000000000E+00  0.00000000000E+00  0.11716086333E+03  0.11716086333E+03  0.00000000000E+00 0. -1.
         21   -1    0    0  502  503 -0.00000000000E+00 -0.00000000000E+00 -0.31277606064E+03  0.31277606064E+03  0.00000000000E+00 0. -1.
         -6    2    1    2    0  503  0.52405156767E+02 -0.54846943575E+02 -0.12974318491E+03  0.22939588081E+03  0.17330518869E+03 0.  0.
        -24    2    3    3    0    0  0.15962279762E+02  0.13560130214E+02 -0.84349705741E+01  0.85363301528E+02  0.82322979857E+02 0.  0.
          6    2    1    2  501    0 -0.52405156767E+02  0.54846943575E+02 -0.65872012392E+02  0.20054104316E+03  0.17356007692E+03 0.  0.
         24    2    5    5    0    0 -0.19514787100E+02  0.26327945554E+02 -0.10920827295E+03  0.13893559580E+03  0.79389327167E+02 0.  0.
          5    1    5    5  501    0 -0.32890369667E+02  0.28518998020E+02  0.43336260557E+02  0.61605447357E+02  0.47000000000E+01 0. -1.
        -11    1    6    6    0    0 -0.48723619699E+02  0.97601879951E+01 -0.81245782561E+02  0.95237227858E+02  0.00000000000E+00 0.  1.
         12    1    6    6    0    0  0.29208832599E+02  0.16567757559E+02 -0.27962490389E+02  0.43698367945E+02  0.00000000000E+00 0. -1.
         -5    1    3    3    0  503  0.36442877006E+02 -0.68407073789E+02 -0.12130821434E+03  0.14403257928E+03  0.47000000000E+01 0.  1.
         13    1    4    4    0    0 -0.27193628043E+02 -0.16940748034E+02 -0.47457954597E+01  0.32388345507E+02  0.00000000000E+00 0. -1.
        -14    1    4    4    0    0  0.43155907805E+02  0.30500878248E+02 -0.36891751144E+01  0.52974956021E+02  0.00000000000E+00 0.  1.
</event>
<event>
12    1  0.8344842E-002  0.1761640E+03  0.7818608E-02  0.1172192E+00
         21   -1    0    0  501  502  0.00000000000E+00  0.00000000000E+00  0.30743948199E+03  0.30743948199E+03  0.00000000000E+00 0.  1.
         21   -1    0    0  502  503 -0.00000000000E+00 -0.00000000000E+00 -0.99992312696E+02  0.99992312696E+02  0.00000000000E+00 0.  1.
         -6    2    1    2    0  503 -0.18733388851E+02  0.25389089767E+02  0.90481442440E+02  0.19804205340E+03  0.17331537079E+03 0.  0.
        -24    2    3    3    0    0 -0.55943440811E+02  0.67101907424E+02  0.70217890973E+02  0.13839937873E+03  0.81188061128E+02 0.  0.
          6    2    1    2  501    0  0.18733388851E+02 -0.25389089767E+02  0.11696572686E+03  0.20938974129E+03  0.17078506012E+03 0.  0.
         24    2    5    5    0    0  0.25558393767E+02 -0.59439808772E+02  0.23347110065E+02  0.10942691036E+03  0.85104869454E+02 0.  0.
          5    1    5    5  501    0 -0.68250049161E+01  0.34050719005E+02  0.93618616790E+02  0.99962830925E+02  0.47000000000E+01 0. -1.
        -13    1    6    6    0    0 -0.30246487212E+02 -0.33065099402E+02  0.14331478799E+02  0.47048295099E+02  0.00000000000E+00 0.  1.
         14    1    6    6    0    0  0.55804880979E+02 -0.26374709370E+02  0.90156312662E+01  0.62378615266E+02  0.00000000000E+00 0. -1.
         -5    1    3    3    0  503  0.37210051960E+02 -0.41712817657E+02  0.20263551467E+02  0.59642674670E+02  0.47000000000E+01 0.  1.
         11    1    4    4    0    0 -0.16405710713E+02  0.70803880859E+01 -0.17490349233E+02  0.25003830821E+02  0.00000000000E+00 0. -1.
        -12    1    4    4    0    0 -0.39537730098E+02  0.60021519339E+02  0.87708240206E+02  0.11339554791E+03  0.00000000000E+00 0.  1.
</event>
<event>
12    1  0.8344842E-002  0.2659901E+03  0.7818608E-02  0.1104028E+00
         21   -1    0    0  501  502  0.00000000000E+00  0.00000000000E+00  0.62734047164E+03  0.62734047164E+03  0.00000000000E+00 0. -1.
         21   -1    0    0  502  503 -0.00000000000E+00 -0.00000000000E+00 -0.16012980723E+03  0.16012980723E+03  0.00000000000E+00 0.  1.
         -6    2    1    2    0  503  0.19811555455E+03  0.23011710198E+02  0.17614569481E+02  0.26657269179E+03  0.17598697448E+03 0.  0.
        -24    2    3    3    0    0  0.20911959034E+03 -0.11304420109E+02  0.33870222392E+02  0.22676035885E+03  0.80089171561E+02 0.  0.
          6    2    1    2  501    0 -0.19811555455E+03 -0.23011710198E+02  0.44959609493E+03  0.52089758709E+03  0.17151774221E+03 0.  0.
         24    2    5    5    0    0 -0.14341400832E+03 -0.53438656880E+02  0.20269172551E+03  0.26613904281E+03  0.79515952386E+02 0.  0.
          5    1    5    5  501    0 -0.54701546233E+02  0.30426946682E+02  0.24690436942E+03  0.25475854428E+03  0.47000000000E+01 0. -1.
        -11    1    6    6    0    0 -0.12094411658E+03 -0.13156318483E+02  0.11682258341E+03  0.16866559829E+03  0.00000000000E+00 0.  1.
         12    1    6    6    0    0 -0.22469891744E+02 -0.40282338397E+02  0.85869142100E+02  0.97473444520E+02  0.00000000000E+00 0. -1.
         -5    1    3    3    0  503 -0.11004035785E+02  0.34316130307E+02 -0.16255652911E+02  0.39812332943E+02  0.47000000000E+01 0.  1.
         13    1    4    4    0    0  0.73767632798E+02 -0.49763477969E+00  0.51314791190E+02  0.89861666376E+02  0.00000000000E+00 0. -1.
        -14    1    4    4    0    0  0.13535195754E+03 -0.10806785329E+02 -0.17444568798E+02  0.13689869247E+03  0.00000000000E+00 0.  1.
</event>
<event>
12    1  0.8344842E-002  0.1834924E+03  0.7818608E-02  0.1165781E+00
         21   -1    0    0  503  502  0.00000000000E+00  0.00000000000E+00  0.44479534444E+03  0.44479534444E+03  0.00000000000E+00 0.  1.
         21   -1    0    0  501  503 -0.00000000000E+00 -0.00000000000E+00 -0.42507647289E+03  0.42507647289E+03  0.00000000000E+00 0.  1.
          6    2    1    2  501    0 -0.46839880893E+02 -0.70292955586E+01 -0.38573674441E+03  0.42482830044E+03  0.17158922875E+03 0.  0.
         24    2    3    3    0    0 -0.70386083001E+02 -0.72211680627E+01 -0.38607614378E+03  0.40081443693E+03  0.81185454995E+02 0.  0.
         -6    2    1    2    0  502  0.46839880893E+02  0.70292955586E+01  0.40545561596E+03  0.44504351689E+03  0.17727405330E+03 0.  0.
        -24    2    5    5    0    0  0.77539650747E+02  0.48935828616E+02  0.34611502230E+03  0.36603700173E+03  0.76028713076E+02 0.  0.
          5    1    3    3  501    0  0.23546202108E+02  0.19187250407E+00  0.33939936946E+00  0.24013863510E+02  0.47000000000E+01 0. -1.
        -11    1    4    4    0    0 -0.34496216071E+02 -0.38530667636E+02 -0.12249306847E+03  0.13296297640E+03  0.00000000000E+00 0.  1.
         12    1    4    4    0    0 -0.35889866930E+02  0.31309499573E+02 -0.26358307532E+03  0.26785146052E+03  0.00000000000E+00 0. -1.
         -5    1    5    5    0  502 -0.30699769854E+02 -0.41906533058E+02  0.59340593656E+02  0.79006515158E+02  0.47000000000E+01 0.  1.
         13    1    6    6    0    0  0.51492908738E+02  0.73423323896E+01  0.79915747514E+02  0.95351749832E+02  0.00000000000E+00 0. -1.
        -14    1    6    6    0    0  0.26046742009E+02  0.41593496227E+02  0.26619927479E+03  0.27068525190E+03  0.00000000000E+00 0.  1.
</event>
<event>
12    1  0.8344842E-002  0.1741952E+03  0.7818608E-02  0.1174425E+00
         21   -1    0    0  501  502  0.00000000000E+00  0.00000000000E+00  0.17657053472E+04  0.17657053472E+04  0.00000000000E+00 0.  1.
         21   -1    0    0  502  503 -0.00000000000E+00 -0.00000000000E+00 -0.20068878733E+02  0.20068878733E+02  0.00000000000E+00 0.  1.
         -6    2    1    2    0  503 -0.33220929076E+02 -0.59520522031E+01  0.50765463605E+03  0.53559704214E+03  0.16736757450E+03 0.  0.
        -24    2    3    3    0    0 -0.62022652995E+02  0.26041717175E+02  0.45783295592E+03  0.46958620674E+03  0.79844909128E+02 0.  0.
          6    2    1    2  501    0  0.33220929076E+02  0.59520522031E+01  0.12379818325E+04  0.12501771838E+04  0.17089445990E+03 0.  0.
         24    2    5    5    0    0  0.41251528602E+02 -0.57101002178E+02  0.73077392485E+03  0.73898042158E+03  0.84257469572E+02 0.  0.
          5    1    5    5  501    0 -0.80305995257E+01  0.63053054381E+02  0.50720790761E+03  0.51119676225E+03  0.47000000000E+01 0. -1.
        -11    1    6    6    0    0  0.27750572363E+02 -0.22707267372E+02  0.63959795200E+03  0.64060225918E+03  0.00000000000E+00 0.  1.
         12    1    6    6    0    0  0.13500956240E+02 -0.34393734806E+02  0.91175972848E+02  0.98378162405E+02  0.00000000000E+00 0. -1.
         -5    1    3    3    0  503  0.28801723919E+02 -0.31993769378E+02  0.49821680128E+02  0.66010835402E+02  0.47000000000E+01 0.  1.
         11    1    4    4    0    0 -0.21504757012E+02 -0.81578299873E+01  0.33511958144E+03  0.33590793177E+03  0.00000000000E+00 0. -1.
        -12    1    4    4    0    0 -0.40517895983E+02  0.34199547163E+02  0.12271337448E+03  0.13367827497E+03  0.00000000000E+00 0.  1.
</event>
<event>
12    1  0.8344842E-002  0.2357600E+03  0.7818608E-02  0.1123518E+00
         21   -1    0    0  501  502  0.00000000000E+00  0.00000000000E+00  0.11819120464E+03  0.11819120464E+03  0.00000000000E+00 0.  1.
         21   -1    0    0  502  503 -0.00000000000E+00 -0.00000000000E+00 -0.50194845824E+03  0.50194845824E+03  0.00000000000E+00 0. -1.
         -6    2    1    2    0  503  0.26223851302E+02  0.15144860767E+03 -0.10066220157E+03  0.25173010484E+03  0.17207787689E+03 0.  0.
        -24    2    3    3    0    0 -0.88914279970E+01  0.15287554837E+03 -0.12237357724E+03  0.21015375539E+03  0.75758284787E+02 0.  0.
          6    2    1    2  501    0 -0.26223851302E+02 -0.15144860767E+03 -0.28309505203E+03  0.36840955804E+03  0.17876918869E+03 0.  0.
         24    2    5    5    0    0  0.27371319989E+01 -0.14375136915E+03 -0.29331240197E+03  0.33640221084E+03  0.80388645257E+02 0.  0.
          5    1    5    5  501    0 -0.28960983301E+02 -0.76972385203E+01  0.10217349939E+02  0.32007347193E+02  0.47000000000E+01 0. -1.
        -13    1    6    6    0    0  0.12787100243E+02 -0.70292807024E+01 -0.23752384535E+01  0.14783858682E+02  0.00000000000E+00 0.  1.
         14    1    6    6    0    0 -0.10049968245E+02 -0.13672208845E+03 -0.29093716352E+03  0.32161835216E+03  0.00000000000E+00 0. -1.
         -5    1    3    3    0  503  0.35115279299E+02 -0.14269407041E+01  0.21711375674E+02  0.41576349451E+02  0.47000000000E+01 0.  1.
         13    1    4    4    0    0  0.48124706383E+01  0.10198398841E+02 -0.46755459542E+02  0.48096155870E+02  0.00000000000E+00 0. -1.
        -14    1    4    4    0    0 -0.13703898635E+02  0.14267714953E+03 -0.75618117703E+02  0.16205759952E+03  0.00000000000E+00 0.  1.
</event>
<event>
12    1  0.8344842E-002  0.1862730E+03  0.7818608E-02  0.1162486E+00
         21   -1    0    0  503  502  0.00000000000E+00  0.00000000000E+00  0.74911635452E+03  0.74911635452E+03  0.00000000000E+00 0. -1.
         21   -1    0    0  501  503 -0.00000000000E+00 -0.00000000000E+00 -0.47791451700E+02  0.47791451700E+02  0.00000000000E+00 0. -1.
          6    2    1    2  501    0 -0.66846355962E+01  0.72334973997E+02  0.26892576035E+03  0.32713711271E+03  0.17152432223E+03 0.  0.
         24    2    3    3    0    0 -0.53039657683E+02  0.15414248908E+02  0.21537675970E+03  0.23615171560E+03  0.79559284847E+02 0.  0.
         -6    2    1    2    0  502  0.66846355962E+01 -0.72334973997E+02  0.43239914246E+03  0.46977069350E+03  0.16863704591E+03 0.  0.
        -24    2    5    5    0    0 -0.59605761269E+02 -0.44467548144E+02  0.21376163801E+03  0.23956326857E+03  0.78525869298E+02 0.  0.
          5    1    3    3  501    0  0.46355022087E+02  0.56920725088E+02  0.53549000653E+02  0.90985397115E+02  0.47000000000E+01 0. -1.
        -13    1    4    4    0    0 -0.38372338619E+02  0.39596011864E+02  0.19104631245E+03  0.19884409477E+03  0.00000000000E+00 0.  1.
         14    1    4    4    0    0 -0.14667319064E+02 -0.24181762956E+02  0.24330447252E+02  0.37307620826E+02  0.00000000000E+00 0. -1.
         -5    1    5    5    0  502  0.66290396865E+02 -0.27867425853E+02  0.21863750445E+03  0.23020742493E+03  0.47000000000E+01 0.  1.
         13    1    6    6    0    0 -0.43638306442E+02 -0.54019382318E+02  0.86393569901E+02  0.11084333257E+03  0.00000000000E+00 0. -1.
        -14    1    6    6    0    0 -0.15967454827E+02  0.95518341743E+01  0.12736806811E+03  0.12871993600E+03  0.00000000000E+00 0.  1.
</event>
<event>
12    1  0.8344842E-002  0.1990364E+03  0.7818608E-02  0.1150586E+00
         21   -1    0    0  501  502  0.00000000000E+00  0.00000000000E+00  0.43655016215E+02  0.43655016215E+02  0.00000000000E+00 0. -1.
         21   -1    0    0  502  503 -0.00000000000E+00 -0.00000000000E+00 -0.10427967197E+04  0.10427967197E+04  0.00000000000E+00 0.  1.
         -6    2    1    2    0  503 -0.97875352491E+02  0.91123066725E+01 -0.69559395800E+03  0.72346864009E+03  0.17289679010E+03 0.  0.
        -24    2    3    3    0    0 -0.94352324603E+02 -0.34581473865E+02 -0.30551441683E+03  0.33090565582E+03  0.77854060050E+02 0.  0.
          6    2    1    2  501    0  0.97875352491E+02 -0.91123066725E+01 -0.30354774549E+03  0.36298309583E+03  0.17306899003E+03 0.  0.
         24    2    5    5    0    0 -0.22788978938E+01 -0.46222173704E+02 -0.15108395459E+03  0.17677000919E+03  0.79243877343E+02 0.  0.
          5    1    5    5  501    0  0.10015425039E+03  0.37109867031E+02 -0.15246379090E+03  0.18621308665E+03  0.47000000000E+01 0. -1.
        -13    1    6    6    0    0 -0.29661923020E+02  0.60922067523E+01 -0.71711674026E+02  0.77842847147E+02  0.00000000000E+00 0.  1.
         14    1    6    6    0    0  0.27383025126E+02 -0.52314380456E+02 -0.79372280561E+02  0.98927162039E+02  0.00000000000E+00 0. -1.
         -5    1    3    3    0  503 -0.35230278883E+01  0.43693780538E+02 -0.39007954116E+03  0.39256298427E+03  0.47000000000E+01 0.  1.
         11    1    4    4    0    0 -0.10669311658E+03 -0.33443371576E+02 -0.29144043507E+03  0.31215285907E+03  0.00000000000E+00 0. -1.
        -12    1    4    4    0    0  0.12340791976E+02 -0.11381022893E+01 -0.14073981760E+02  0.18752796751E+02  0.00000000000E+00 0.  1.
</event>
<event>
12    1  0.8344842E-002  0.1793098E+03  0.7818608E-02  0.1168909E+00
         21   -1    0    0  503  502  0.00000000000E+00  0.00000000000E+00  0.29010383374E+04  0.29010383374E+04  0.00000000000E+00 0.  1.
         21   -1    0    0  501  503 -0.00000000000E+00 -0.00000000000E+00 -0.10973313385E+02  0.10973313385E+02  0.00000000000E+00 0.  1.
          6    2    1    2  501    0 -0.37729225491E+02 -0.24492566253E+02  0.14302146608E+04  0.14411904233E+04  0.17173374728E+03 0.  0.
         24    2    3    3    0    0  0.29898166225E+02  0.29887762788E+02  0.69211512761E+03  0.69799213535E+03  0.79890502805E+02 0.  0.
         -6    2    1    2    0  502  0.37729225491E+02  0.24492566253E+02  0.14598503632E+04  0.14708212274E+04  0.17357597764E+03 0.  0.
        -24    2    5    5    0    0  0.31559302721E+02 -0.48818455032E+02  0.62882984366E+03  0.63653724244E+03  0.79833937669E+02 0.  0.
          5    1    3    3  501    0 -0.67627391716E+02 -0.54380329041E+02  0.73809953321E+03  0.74319828795E+03  0.47000000000E+01 0. -1.
        -13    1    4    4    0    0 -0.25103165392E+02  0.15394770949E+02  0.34429256366E+03  0.34554961623E+03  0.00000000000E+00 0.  1.
         14    1    4    4    0    0  0.55001331617E+02  0.14492991839E+02  0.34782256395E+03  0.35244251912E+03  0.00000000000E+00 0. -1.
         -5    1    5    5    0  502  0.61699227692E+01  0.73311021285E+02  0.83102051950E+03  0.83428398500E+03  0.47000000000E+01 0.  1.
         11    1    6    6    0    0  0.10114403814E+02 -0.72912884754E+01  0.48790608118E+03  0.48806537278E+03  0.00000000000E+00 0. -1.
        -12    1    6    6    0    0  0.21444898907E+02 -0.41527166557E+02  0.14092376248E+03  0.14847186967E+03  0.00000000000E+00 0.  1.
</event>
<event>
12    1  0.8344842E-002  0.2042028E+03  0.7818608E-02  0.1146318E+00
         21   -1    0    0  503  502  0.00000000000E+00  0.00000000000E+00  0.35116371032E+03  0.35116371032E+03  0.00000000000E+00 0.  1.
         21   -1    0    0  501  503 -0.00000000000E+00 -0.00000000000E+00 -0.20420496258E+03  0.20420496258E+03  0.00000000000E+00 0.  1.
          6    2    1    2  501    0 -0.94865252515E+02 -0.57133739731E+02 -0.10642808984E+03  0.22994019983E+03  0.17111948119E+03 0.  0.
         24    2    3    3    0    0 -0.49635715994E+02  0.85271562886E+01 -0.72814638608E+01  0.10262481316E+03  0.89120232632E+02 0.  0.
         -6    2    1    2    0  502  0.94865252515E+02  0.57133739731E+02  0.25338683757E+03  0.32542847307E+03  0.17156666716E+03 0.  0.
        -24    2    5    5    0    0  0.26260684637E+02  0.86346808622E+02  0.19235011479E+03  0.22895276807E+03  0.85296004777E+02 0.  0.
          5    1    3    3  501    0 -0.45229536521E+02 -0.65660896019E+02 -0.99146625975E+02  0.12731538667E+03  0.47000000000E+01 0. -1.
        -13    1    4    4    0    0 -0.21876646256E+02  0.40364350401E+02 -0.29822498648E+02  0.54747144769E+02  0.00000000000E+00 0.  1.
         14    1    4    4    0    0 -0.27759069737E+02 -0.31837194113E+02  0.22541034787E+02  0.47877668395E+02  0.00000000000E+00 0. -1.
         -5    1    5    5    0  502  0.68604567877E+02 -0.29213068891E+02  0.61036722785E+02  0.96475705004E+02  0.47000000000E+01 0.  1.
         13    1    6    6    0    0 -0.25212013931E+02  0.19604933351E+01  0.41754740631E+02  0.48815443722E+02  0.00000000000E+00 0. -1.
        -14    1    6    6    0    0  0.51472698569E+02  0.84386315287E+02  0.15059537416E+03  0.18013732435E+03  0.00000000000E+00 0.  1.
</event>
<event>
12    1  0.8344842E-002  0.1957984E+03  0.7818608E-02  0.1154936E+00
         21   -1    0    0  501  502  0.00000000000E+00  0.00000000000E+00  0.23493016462E+02  0.23493016462E+02  0.00000000000E+00 0.  1.
         21   -1    0    0  502  503 -0.00000000000E+00 -0.00000000000E+00 -0.19837800686E+04  0.19837800686E+04  0.00000000000E+00 0. -1.
         -6    2    1    2    0  503 -0.73469524945E+02  0.21748375974E+02 -0.14226851937E+04  0.14351255660E+04  0.17228310047E+03 0.  0.
        -24    2    3    3    0    0  0.13620286474E+02  0.48503433150E+02 -0.62596902613E+03  0.63320336897E+03  0.81062874176E+02 0.  0.
          6    2    1    2  501    0  0.73469524945E+02 -0.21748375974E+02 -0.53760185843E+03  0.57214751911E+03  0.18018396843E+03 0.  0.
         24    2    5    5    0    0  0.63524068729E+02 -0.63003783973E+02 -0.50279852045E+03  0.51706319172E+03  0.80890098082E+02 0.  0.
          5    1    5    5  501    0  0.99454562160E+01  0.41255407999E+02 -0.34803337983E+02  0.55084327383E+02  0.47000000000E+01 0. -1.
        -13    1    6    6    0    0  0.11221654159E+02  0.56501732066E+01 -0.82276715696E+01  0.15018140989E+02  0.00000000000E+00 0.  1.
         14    1    6    6    0    0  0.52302414571E+02 -0.68653957180E+02 -0.49457084888E+03  0.50204505073E+03  0.00000000000E+00 0. -1.
         -5    1    3    3    0  503 -0.87089811419E+02 -0.26755057176E+02 -0.79671616759E+03  0.80192219700E+03  0.47000000000E+01 0.  1.
         11    1    4    4    0    0  0.60362051980E+01 -0.16533918686E+02 -0.31113544876E+03  0.31163291501E+03  0.00000000000E+00 0. -1.
        -12    1    4    4    0    0  0.75840812759E+01  0.65037351836E+02 -0.31483357736E+03  0.32157045396E+03  0.00000000000E+00 0.  1.
</event>
<event>
12    1  0.8344842E-002  0.2010387E+03  0.7818608E-02  0.1149343E+00
         21   -1    0    0  501  502  0.00000000000E+00  0.00000000000E+00  0.85416472861E+02  0.85416472861E+02  0.00000000000E+00 0. -1.
         21   -1    0    0  502  503 -0.00000000000E+00 -0.00000000000E+00 -0.52211615167E+03  0.52211615167E+03  0.00000000000E+00 0. -1.
         -6    2    1    2    0  503  0.98814577418E+02  0.19894644894E+02 -0.31516630713E+03  0.37261363894E+03  0.17132135060E+03 0.  0.
        -24    2    3    3    0    0  0.24358663991E+02  0.48192072669E+02 -0.25472749655E+03  0.27251684935E+03  0.80395990576E+02 0.  0.
          6    2    1    2  501    0 -0.98814577418E+02 -0.19894644894E+02 -0.12153337168E+03  0.23491898559E+03  0.17394381780E+03 0.  0.
         24    2    5    5    0    0 -0.88564090767E+02  0.38829653785E+02 -0.12238923905E+03  0.17511565591E+03  0.79592882348E+02 0.  0.
          5    1    5    5  501    0 -0.10250486651E+02 -0.58724298679E+02  0.85586737618E+00  0.59803329680E+02  0.47000000000E+01 0. -1.
        -11    1    6    6    0    0 -0.69716434887E+02  0.92975097981E+01 -0.12111806191E+03  0.14005859453E+03  0.00000000000E+00 0.  1.
         12    1    6    6    0    0 -0.18847655880E+02  0.29532143987E+02 -0.12711771427E+01  0.35057061371E+02  0.00000000000E+00 0. -1.
         -5    1    3    3    0  503  0.74455913427E+02 -0.28297427775E+02 -0.60438810582E+02  0.10009678960E+03  0.47000000000E+01 0.  1.
         11    1    4    4    0    0  0.40907168964E+02  0.42716389967E+02 -0.24602489492E+03  0.25303425730E+03  0.00000000000E+00 0. -1.
        -12    1    4    4    0    0 -0.16548504973E+02  0.54756827012E+01 -0.87026016257E+01  0.19482592049E+02  0.00000000000E+00 0.  1.
</event>
<event>
12    1  0.8344842E-002  0.1972818E+03  0.7818608E-02  0.1152413E+00
         21   -1    0    0  503  502  0.00000000000E+00  0.00000000000E+00  0.67992690632E+03  0.67992690632E+03  0.00000000000E+00 0.  1.
         21   -1    0    0  501  503 -0.00000000000E+00 -0.00000000000E+00 -0.77760271437E+02  0.77760271437E+02  0.00000000000E+00 0. -1.
          6    2    1    2  501    0 -0.81375834900E+02 -0.45240079048E+02  0.10326455238E+03  0.22119541862E+03  0.17203242190E+03 0.  0.
         24    2    3    3    0    0 -0.10184393194E+03  0.11424534788E+02  0.44216681251E+02  0.13670540417E+03  0.78933808726E+02 0.  0.
         -6    2    1    2    0  502  0.81375834900E+02  0.45240079048E+02  0.49890208251E+03  0.53649175914E+03  0.17392937772E+03 0.  0.
        -24    2    5    5    0    0  0.65988814127E+02  0.94824806546E+02  0.38445110604E+03  0.41072800592E+03  0.86882532099E+02 0.  0.
          5    1    3    3  501    0  0.20468097041E+02 -0.56664613835E+02  0.59047871127E+02  0.84490014453E+02  0.47000000000E+01 0. -1.
        -11    1    4    4    0    0 -0.36306306483E+02  0.43104943292E+02  0.15475619877E+02  0.58443809229E+02  0.00000000000E+00 0.  1.
         12    1    4    4    0    0 -0.65537625458E+02 -0.31680408505E+02  0.28741061374E+02  0.78261594940E+02  0.00000000000E+00 0. -1.
         -5    1    5    5    0  502  0.15387020773E+02 -0.49584727498E+02  0.11445097646E+03  0.12576375322E+03  0.47000000000E+01 0.  1.
         11    1    6    6    0    0  0.15593539214E+01  0.48779301289E+02  0.63146561952E+02  0.79808145607E+02  0.00000000000E+00 0. -1.
        -12    1    6    6    0    0  0.64429460205E+02  0.46045505256E+02  0.32130454409E+03  0.33091986031E+03  0.00000000000E+00 0.  1.
</event>
<event>
12    1  0.8344842E-002  0.1970213E+03  0.7818608E-02  0.1152700E+00
         21   -1    0    0  501  502  0.00000000000E+00  0.00000000000E+00  0.26417896184E+03  0.26417896184E+03  0.00000000000E+00 0.  1.
         21   -1    0    0  502  503 -0.00000000000E+00 -0.00000000000E+00 -0.22316318526E+03  0.22316318526E+03  0.00000000000E+00 0.  1.
         -6    2    1    2    0  503 -0.91657759050E+02 -0.28290921989E+02 -0.12318886037E+03  0.23236367592E+03  0.17209259574E+03 0.  0.
        -24    2    3    3    0    0 -0.78608966952E+01 -0.38055422251E+02 -0.56476646452E+01  0.87604281414E+02  0.78310951639E+02 0.  0.
          6    2    1    2  501    0  0.91657759050E+02  0.28290921989E+02  0.16420463695E+03  0.25497847118E+03  0.16985092554E+03 0.  0.
         24    2    5    5    0    0  0.80106923124E+02 -0.34373679472E+02  0.14894593197E+03  0.18928834891E+03  0.77759368615E+02 0.  0.
          5    1    5    5  501    0  0.11550835926E+02  0.62664601461E+02  0.15258704979E+02  0.65690122275E+02  0.47000000000E+01 0. -1.
        -13    1    6    6    0    0  0.63279831155E+02 -0.31849276969E+02  0.44928769094E+02  0.83888662921E+02  0.00000000000E+00 0.  1.
         14    1    6    6    0    0  0.16827091969E+02 -0.25244025029E+01  0.10401716288E+03  0.10539968599E+03  0.00000000000E+00 0. -1.
         -5    1    3    3    0  503 -0.83796862355E+02  0.97645002619E+01 -0.11754119572E+03  0.14475939450E+03  0.47000000000E+01 0.  1.
         13    1    4    4    0    0  0.18746808428E+02  0.31512764382E+01  0.23748281856E+02  0.30419636102E+02  0.00000000000E+00 0. -1.
        -14    1    4    4    0    0 -0.26607705124E+02 -0.41206698689E+02 -0.29395946501E+02  0.57184645312E+02  0.00000000000E+00 0.  1.
</event>
<event>
12    1  0.8344842E-002  0.1918433E+03  0.7818608E-02  0.1157000E+00
         21   -1    0    0  501  502  0.00000000000E+00  0.00000000000E+00  0.23135684330E+03  0.23135684330E+03  0.00000000000E+00 0.  1.
         21   -1    0    0  502  503 -0.00000000000E+00 -0.00000000000E+00 -0.17727060815E+03  0.17727060815E+03  0.00000000000E+00 0.  1.
         -6    2    1    2    0  503 -0.39764542449E+02 -0.73462119019E+02 -0.39615944660E+02  0.19589101966E+03  0.17270195929E+03 0.  0.
        -24    2    3    3    0    0  0.50787732828E+01  0.12742039462E+02  0.17691761794E+02  0.82982458759E+02  0.79905797779E+02 0.  0.
          6    2    1    2  501    0  0.39764542449E+02  0.73462119019E+02  0.93702179811E+02  0.21273643180E+03  0.17175211541E+03 0.  0.
         24    2    5    5    0    0  0.46351965804E+02  0.48608392733E+02  0.13407924527E+03  0.16463758283E+03  0.67948576816E+02 0.  0.
          5    1    5    5  501    0 -0.65874233552E+01  0.24853726286E+02 -0.40377065460E+02  0.48098848966E+02  0.47000000000E+01 0. -1.
        -11    1    6    6    0    0  0.52406882763E+02  0.54520776108E+02  0.80717033745E+02  0.11060848035E+03  0.00000000000E+00 0.  1.
         12    1    6    6    0    0 -0.60549169591E+01 -0.59123833751E+01  0.53362211526E+02  0.54029102487E+02  0.00000000000E+00 0. -1.
         -5    1    3    3    0  503 -0.44843315731E+02 -0.86204158480E+02 -0.57307706454E+02  0.11290856090E+03  0.47000000000E+01 0.  1.
         11    1    4    4    0    0 -0.74619063781E+01  0.45294210852E+02  0.65969295328E+01  0.46376341627E+02  0.00000000000E+00 0. -1.
        -12    1    4    4    0    0  0.12540679661E+02 -0.32552171390E+02  0.11094832261E+02  0.36606117132E+02  0.00000000000E+00 0.  1.
</event>
<event>
12    1  0.8344842E-002  0.1864696E+03  0.7818608E-02  0.1162297E+00
         21   -1    0    0  501  502  0.00000000000E+00  0.00000000000E+00  0.20507287727E+03  0.20507287727E+03  0.00000000000E+00 0. -1.
         21   -1    0    0  502  503 -0.00000000000E+00 -0.00000000000E+00 -0.17315897954E+03  0.17315897954E+03  0.00000000000E+00 0. -1.
         -6    2    1    2    0  503  0.28397254897E+02 -0.60157200890E+02  0.51234531920E+02  0.19338013372E+03  0.17419990228E+03 0.  0.
        -24    2    3    3    0    0  0.28999692687E+02 -0.95660828327E+02  0.76786106751E+02  0.14938191252E+03  0.80167782479E+02 0.  0.
          6    2    1    2  501    0 -0.28397254897E+02  0.60157200890E+02 -0.19320634195E+02  0.18485172308E+03  0.17138138673E+03 0.  0.
         24    2    5    5    0    0 -0.43522531057E+02  0.33404858192E+02 -0.73278122109E+02  0.12257843570E+03  0.81521128915E+02 0.  0.
          5    1    5    5  501    0  0.15125276159E+02  0.26752342698E+02  0.53957487914E+02  0.62273287377E+02  0.47000000000E+01 0. -1.
        -13    1    6    6    0    0 -0.42209341500E+01  0.20267262588E+01 -0.72122141254E+02  0.72273972932E+02  0.00000000000E+00 0.  1.
         14    1    6    6    0    0 -0.39301596907E+02  0.31378131934E+02 -0.11559808554E+01  0.50304462772E+02  0.00000000000E+00 0. -1.
         -5    1    3    3    0  503 -0.60243778961E+00  0.35503627437E+02 -0.25551574830E+02  0.43998221200E+02  0.47000000000E+01 0.  1.
         13    1    4    4    0    0  0.11644138063E+02 -0.59326717505E+02 -0.24426656922E+01  0.60507949699E+02  0.00000000000E+00 0. -1.
        -14    1    4    4    0    0  0.17355554624E+02 -0.36334110822E+02  0.79228772443E+02  0.88873962826E+02  0.00000000000E+00 0.  1.
</event>
<event>
12    1  0.8344842E-002  0.1964864E+03  0.7818608E-02  0.1153087E+00
         21   -1    0    0  501  502  0.00000000000E+00  0.00000000000E+00  0.24364137660E+03  0.24364137660E+03  0.00000000000E+00 0. -1.
         21   -1    0    0  502  503 -0.00000000000E+00 -0.00000000000E+00 -0.16960496014E+03  0.16960496014E+03  0.00000000000E+00 0. -1.
         -6    2    1    2    0  503  0.95324838050E+02 -0.93591856957E+01 -0.18806765822E+02  0.19738438183E+03  0.17155897133E+03 0.  0.
        -24    2    3    3    0    0  0.21260877814E+02 -0.56947729967E+02  0.72618939451E+01  0.10545068412E+03  0.85860601001E+02 0.  0.
          6    2    1    2  501    0 -0.95324838050E+02  0.93591856957E+01  0.92843182285E+02  0.21586195491E+03  0.16971183805E+03 0.  0.
         24    2    5    5    0    0 -0.36783711389E+02  0.35190785815E+02 -0.87659382017E+01  0.95691915213E+02  0.80552269581E+02 0.  0.
          5    1    5    5  501    0 -0.58541126660E+02 -0.25831600120E+02  0.10160912049E+03  0.12017003970E+03  0.47000000000E+01 0. -1.
        -11    1    6    6    0    0 -0.32445879492E+02  0.42112179387E+02 -0.37994546875E+02  0.65343372587E+02  0.00000000000E+00 0.  1.
         12    1    6    6    0    0 -0.43378318974E+01 -0.69213935720E+01  0.29228608673E+02  0.30348542626E+02  0.00000000000E+00 0. -1.
         -5    1    3    3    0  503  0.74063960235E+02  0.47588544271E+02 -0.26068659767E+02  0.91933697705E+02  0.47000000000E+01 0.  1.
         13    1    4    4    0    0  0.46379544217E+02 -0.62243854329E+02 -0.32966861224E+01  0.77693163553E+02  0.00000000000E+00 0. -1.
        -14    1    4    4    0    0 -0.25118666402E+02  0.52961243623E+01  0.10558580068E+02  0.27757520569E+02  0.00000000000E+00 0.  1.
</event>
<event>
12    1  0.8344842E-002  0.2353761E+03  0.7818608E-02  0.1124299E+00
         21   -1    0    0  501  502  0.00000000000E+00  0.00000000000E+00  0.24405155149E+03  0.24405155149E+03  0.00000000000E+00 0. -1.
         21   -1    0    0  502  503 -0.00000000000E+00 -0.00000000000E+00 -0.22163897173E+03  0.22163897173E+03  0.00000000000E+00 0.  1.
         -6    2    1    2    0  503  0.14108458840E+03  0.48381135712E+02  0.34886024696E+02  0.23794730623E+03  0.18208868841E+03 0.  0.
        -24    2    3    3    0    0  0.71354534872E+02  0.21753321195E+02  0.92589983313E+02  0.14348483902E+03  0.80313867974E+02 0.  0.
          6    2    1    2  501    0 -0.14108458840E+03 -0.48381135712E+02 -0.12473444937E+02  0.22774321699E+03  0.17165602431E+03 0.  0.
         24    2    5    5    0    0 -0.16053635905E+03 -0.71978799423E+02  0.33399418731E+01  0.19299592477E+03  0.79267910425E+02 0.  0.
          5    1    5    5  501    0  0.19451770654E+02  0.23597663711E+02 -0.15813386810E+02  0.34747292220E+02  0.47000000000E+01 0. -1.
        -13    1    6    6    0    0 -0.65419376984E+02 -0.27937833672E+02 -0.37606289882E+02  0.80463970035E+02  0.00000000000E+00 0.  1.
         14    1    6    6    0    0 -0.95116982068E+02 -0.44040965752E+02  0.40946231755E+02  0.11253195474E+03  0.00000000000E+00 0. -1.
         -5    1    3    3    0  503  0.69730053526E+02  0.26627814517E+02 -0.57703958618E+02  0.94462467207E+02  0.47000000000E+01 0.  1.
         11    1    4    4    0    0  0.18168086854E+02  0.43269358751E+02  0.20138033679E+02  0.51067183074E+02  0.00000000000E+00 0. -1.
        -12    1    4    4    0    0  0.53186448018E+02 -0.21516037556E+02  0.72451949634E+02  0.92417655946E+02  0.00000000000E+00 0.  1.
</event>
<event>
12    1  0.8344842E-002  0.2582405E+03  0.7818608E-02  0.1108248E+00
         21   -1    0    0  503  502  0.00000000000E+00  0.00000000000E+00  0.41734003909E+02  0.41734003909E+02  0.00000000000E+00 0. -1.
         21   -1    0    0  501  503 -0.00000000000E+00 -0.00000000000E+00 -0.16223084316E+04  0.16223084316E+04  0.00000000000E+00 0. -1.
          6    2    1    2  501    0 -0.18698017362E+03  0.41386502846E+02 -0.68430675122E+03  0.73131316823E+03  0.17282590176E+03 0.  0.
         24    2    3    3    0    0 -0.47254474246E+02  0.95027945759E+01 -0.42277243873E+03  0.43304796991E+03  0.80440790982E+02 0.  0.
         -6    2    1    2    0  502  0.18698017362E+03 -0.41386502846E+02 -0.89626767645E+03  0.93272926726E+03  0.17324465418E+03 0.  0.
        -24    2    5    5    0    0  0.19545095960E+03 -0.24716223767E+02 -0.88625882258E+03  0.91100555728E+03  0.75262576726E+02 0.  0.
          5    1    3    3  501    0 -0.13972569937E+03  0.31883708270E+02 -0.26153431249E+03  0.29826519831E+03  0.47000000000E+01 0. -1.
        -11    1    4    4    0    0 -0.16803284307E+01 -0.28789122372E+02 -0.77698436668E+02  0.82877524886E+02  0.00000000000E+00 0.  1.
         12    1    4    4    0    0 -0.45574145815E+02  0.38291916948E+02 -0.34507400207E+03  0.35017044503E+03  0.00000000000E+00 0. -1.
         -5    1    5    5    0  502 -0.84707859783E+01 -0.16670279079E+02 -0.10008853870E+02  0.21723709983E+02  0.47000000000E+01 0.  1.
         13    1    6    6    0    0  0.13407886778E+03 -0.24059574551E+02 -0.73930388662E+03  0.75174878961E+03  0.00000000000E+00 0. -1.
        -14    1    6    6    0    0  0.61372091820E+02 -0.65664921624E+00 -0.14695493596E+03  0.15925676766E+03  0.00000000000E+00 0.  1.
</event>
<event>
12    1  0.8344842E-002  0.3557252E+03  0.7818608E-02  0.1060519E+00
         21   -1    0    0  503  502  0.00000000000E+00  0.00000000000E+00  0.26033129602E+03  0.26033129602E+03  0.00000000000E+00 0.  1.
         21   -1    0    0  501  503 -0.00000000000E+00 -0.00000000000E+00 -0.15029649539E+04  0.15029649539E+04  0.00000000000E+00 0. -1.
          6    2    1    2  501    0 -0.30921777400E+03 -0.21493525348E+02 -0.13469822432E+04  0.13925820058E+04  0.16984073741E+03 0.  0.
         24    2    3    3    0    0 -0.28970493749E+03 -0.32283609334E+02 -0.99561069234E+03  0.10404723163E+04  0.79817341923E+02 0.  0.
         -6    2    1    2    0  502  0.30921777400E+03  0.21493525348E+02  0.10434858533E+03  0.37071424408E+03  0.17453601380E+03 0.  0.
        -24    2    5    5    0    0  0.16584130340E+03 -0.36375858983E+02  0.88600982711E+01  0.18892915358E+03  0.82396496911E+02 0.  0.
          5    1    3    3  501    0 -0.19512836511E+02  0.10790083986E+02 -0.35137155086E+03  0.35210968952E+03  0.47000000000E+01 0. -1.
        -11    1    4    4    0    0 -0.11981286228E+03 -0.50965880033E+02 -0.38685362504E+03  0.40817688581E+03  0.00000000000E+00 0.  1.
         12    1    4    4    0    0 -0.16989207520E+03  0.18682270699E+02 -0.60875706729E+03  0.63229543050E+03  0.00000000000E+00 0. -1.
         -5    1    5    5    0  502  0.14337647060E+03  0.57869384331E+02  0.95488487062E+02  0.18178509050E+03  0.47000000000E+01 0.  1.
         11    1    6    6    0    0  0.10922099828E+02  0.14850624530E+02  0.17652585978E+02  0.25523461860E+02  0.00000000000E+00 0. -1.
        -12    1    6    6    0    0  0.15491920357E+03 -0.51226483514E+02 -0.87924877073E+01  0.16340569172E+03  0.00000000000E+00 0.  1.
</event>
<event>
12    1  0.8344842E-002  0.1885785E+03  0.7818608E-02  0.1161017E+00
         21   -1    0    0  503  502  0.00000000000E+00  0.00000000000E+00  0.12942300212E+03  0.12942300212E+03  0.00000000000E+00 0. -1.
         21   -1    0    0  501  503 -0.00000000000E+00 -0.00000000000E+00 -0.65212331826E+03  0.65212331826E+03  0.00000000000E+00 0. -1.
          6    2    1    2  501    0 -0.10896012495E+02  0.60453317416E+02 -0.56012336669E+03  0.58929044768E+03  0.17248686657E+03 0.  0.
         24    2    3    3    0    0 -0.84754824826E+01  0.10693362393E+03 -0.43750348989E+03  0.45805020215E+03  0.83030417887E+02 0.  0.
         -6    2    1    2    0  502  0.10896012495E+02 -0.60453317416E+02  0.37423050539E+02  0.19225587270E+03  0.17829332349E+03 0.  0.
        -24    2    5    5    0    0  0.72884699367E+02 -0.62532779099E+02  0.12237209990E+02  0.12514895782E+03  0.79309422338E+02 0.  0.
          5    1    3    3  501    0 -0.24205300122E+01 -0.46480306516E+02 -0.12261987680E+03  0.13124024553E+03  0.47000000000E+01 0. -1.
        -13    1    4    4    0    0 -0.33205388052E+02  0.21378514981E+02 -0.74939962728E+02  0.84709130040E+02  0.00000000000E+00 0.  1.
         14    1    4    4    0    0  0.24729905569E+02  0.85555108952E+02 -0.36256352716E+03  0.37334107211E+03  0.00000000000E+00 0. -1.
         -5    1    5    5    0  502 -0.61988686872E+02  0.20794616830E+01  0.25185840549E+02  0.67106914884E+02  0.47000000000E+01 0.  1.
         11    1    6    6    0    0 -0.69658867625E+01 -0.41097921028E+02  0.73501342742E+01  0.42327144542E+02  0.00000000000E+00 0. -1.
        -12    1    6    6    0    0  0.79850586129E+02 -0.21434858071E+02  0.48870757158E+01  0.82821813279E+02  0.00000000000E+00 0.  1.
</event>
<event>
12    1  0.8344842E-002  0.2054639E+03  0.7818608E-02  0.1145283E+00
         21   -1    0    0  501  502  0.00000000000E+00  0.00000000000E+00  0.50260535308E+02  0.50260535308E+02  0.00000000000E+00 0. -1.
         21   -1    0    0  502  503 -0.00000000000E+00 -0.00000000000E+00 -0.92246093132E+03  0.92246093132E+03  0.00000000000E+00 0.  1.
         -6    2    1    2    0  503  0.15612298715E+02  0.11116487620E+03 -0.28897438717E+03  0.35436235830E+03  0.17165404443E+03 0.  0.
        -24    2    3    3    0    0  0.17829615914E+02  0.28125275363E+02 -0.48482826248E+02  0.99884908067E+02  0.80730936455E+02 0.  0.
          6    2    1    2  501    0 -0.15612298715E+02 -0.11116487620E+03 -0.58322600885E+03  0.61835910833E+03  0.17208729148E+03 0.  0.
         24    2    5    5    0    0 -0.34402109858E+02 -0.20248650279E+02 -0.41550241453E+03  0.42659855131E+03  0.88037233600E+02 0.  0.
          5    1    5    5  501    0  0.18789811143E+02 -0.90916225920E+02 -0.16772359432E+03  0.19176055702E+03  0.47000000000E+01 0. -1.
        -11    1    6    6    0    0 -0.80358640015E+01 -0.25785090804E+02 -0.30842877301E+02  0.40996696186E+02  0.00000000000E+00 0.  1.
         12    1    6    6    0    0 -0.26366245857E+02  0.55364405248E+01 -0.38465953723E+03  0.38560185512E+03  0.00000000000E+00 0. -1.
         -5    1    3    3    0  503 -0.22173171991E+01  0.83039600837E+02 -0.24049156092E+03  0.25447745023E+03  0.47000000000E+01 0.  1.
         11    1    4    4    0    0 -0.17075948526E+02  0.43153067119E+02 -0.13755019521E+02  0.48404295076E+02  0.00000000000E+00 0. -1.
        -12    1    4    4    0    0  0.34905564440E+02 -0.15027791756E+02 -0.34727806726E+02  0.51480612991E+02  0.00000000000E+00 0.  1.
</event>
<event>
12    1  0.8344842E-002  0.2148242E+03  0.7818608E-02  0.1137820E+00
         21   -1    0    0  501  502  0.00000000000E+00  0.00000000000E+00  0.26387187099E+04  0.26387187099E+04  0.00000000000E+00 0. -1.
         21   -1    0    0  502  503 -0.00000000000E+00 -0.00000000000E+00 -0.46744367282E+02  0.46744367282E+02  0.00000000000E+00 0.  1.
         -6    2    1    2    0  503 -0.12601291900E+03  0.24809995039E+02  0.23349408772E+03  0.31721930764E+03  0.17208663089E+03 0.  0.
        -24    2    3    3    0    0 -0.90633496244E+02 -0.41153121415E+02  0.10655359276E+03  0.16977841932E+03  0.86965702973E+02 0.  0.
          6    2    1    2  501    0  0.12601291900E+03 -0.24809995039E+02  0.23584802549E+04  0.23682437695E+04  0.17220524856E+03 0.  0.
         24    2    5    5    0    0  0.79434039193E+02  0.18994676229E+02  0.20543238037E+04  0.20574034921E+04  0.77409783619E+02 0.  0.
          5    1    5    5  501    0  0.46578879807E+02 -0.43804671268E+02  0.30415645122E+03  0.31084027745E+03  0.47000000000E+01 0. -1.
        -13    1    6    6    0    0  0.19198361184E+02  0.31648893728E+02  0.34664692283E+03  0.34861772567E+03  0.00000000000E+00 0.  1.
         14    1    6    6    0    0  0.60235678009E+02 -0.12654217499E+02  0.17076768808E+04  0.17087857664E+04  0.00000000000E+00 0. -1.
         -5    1    3    3    0  503 -0.35379422757E+02  0.65963116454E+02  0.12694049496E+03  0.14744088832E+03  0.47000000000E+01 0.  1.
         13    1    4    4    0    0 -0.30404984886E+02 -0.43184387821E+02  0.94595773642E+02  0.10834073494E+03  0.00000000000E+00 0. -1.
        -14    1    4    4    0    0 -0.60228511358E+02  0.20312664061E+01  0.11957819120E+02  0.61437684378E+02  0.00000000000E+00 0.  1.
</event>
<event>
12    1  0.8344842E-002  0.2847510E+03  0.7818608E-02  0.1093362E+00
         21   -1    0    0  503  502  0.00000000000E+00  0.00000000000E+00  0.20929501932E+03  0.20929501932E+03  0.00000000000E+00 0.  1.
         21   -1    0    0  501  503 -0.00000000000E+00 -0.00000000000E+00 -0.55171726186E+03  0.55171726186E+03  0.00000000000E+00 0.  1.
          6    2    1    2  501    0 -0.66037581317E+02  0.21502987041E+03 -0.38076390786E+03  0.47546218969E+03  0.17459763165E+03 0.  0.
         24    2    3    3    0    0 -0.35521168081E+02  0.22330265939E+03 -0.27366678062E+03  0.36369647412E+03  0.79093535745E+02 0.  0.
         -6    2    1    2    0  502  0.66037581317E+02 -0.21502987041E+03  0.38341665317E+02  0.28555009149E+03  0.17166818033E+03 0.  0.
        -24    2    5    5    0    0  0.21669991232E+02 -0.11242734366E+02 -0.10072216367E+02  0.71392033489E+02  0.66327862224E+02 0.  0.
          5    1    3    3  501    0 -0.30516413237E+02 -0.82727889807E+01 -0.10709712723E+03  0.11176571557E+03  0.47000000000E+01 0. -1.
        -13    1    4    4    0    0 -0.19675461770E+02  0.17499980132E+03 -0.25424433385E+03  0.30927695606E+03  0.00000000000E+00 0.  1.
         14    1    4    4    0    0 -0.15845706311E+02  0.48302858076E+02 -0.19422446772E+02  0.54419518055E+02  0.00000000000E+00 0. -1.
         -5    1    5    5    0  502  0.44367590086E+02 -0.20378713605E+03  0.48413881684E+02  0.21415805800E+03  0.47000000000E+01 0.  1.
         11    1    6    6    0    0  0.19445642422E+02  0.14402973476E+02  0.20294702700E+02  0.31582489006E+02  0.00000000000E+00 0. -1.
        -12    1    6    6    0    0  0.22243488098E+01 -0.25645707841E+02 -0.30366919067E+02  0.39809544483E+02  0.00000000000E+00 0.  1.
</event>
<event>
12    1  0.8344842E-002  0.5276501E+03  0.7818608E-02  0.1006817E+00
         21   -1    0    0  501  502  0.00000000000E+00  0.00000000000E+00  0.13319720221E+04  0.13319720221E+04  0.00000000000E+00 0.  1.
         21   -1    0    0  502  503 -0.00000000000E+00 -0.00000000000E+00 -0.14148827748E+04  0.14148827748E+04  0.00000000000E+00 0. -1.
         -6    2    1    2    0  503 -0.38230647511E+03 -0.32090094387E+03 -0.13094264953E+04  0.14116561368E+04  0.17041022685E+03 0.  0.
        -24    2    3    3    0    0 -0.23973417048E+03 -0.11541192250E+03 -0.65460523938E+03  0.71068141038E+03  0.75945133312E+02 0.  0.
          6    2    1    2  501    0  0.38230647511E+03  0.32090094387E+03  0.12265157425E+04  0.13351986601E+04  0.17111089554E+03 0.  0.
         24    2    5    5    0    0  0.35423521383E+03  0.33647491038E+03  0.11570526656E+04  0.12585321537E+04  0.80214456079E+02 0.  0.
          5    1    5    5  501    0  0.28071261281E+02 -0.15573966509E+02  0.69463076887E+02  0.76666506333E+02  0.47000000000E+01 0. -1.
        -11    1    6    6    0    0  0.70319801281E+02  0.63919322185E+02  0.15312282986E+03  0.18021419263E+03  0.00000000000E+00 0.  1.
         12    1    6    6    0    0  0.28391541255E+03  0.27255558819E+03  0.10039298358E+04  0.10783179611E+04  0.00000000000E+00 0. -1.
         -5    1    3    3    0  503 -0.14257230463E+03 -0.20548902137E+03 -0.65482125589E+03  0.70097472645E+03  0.47000000000E+01 0.  1.
         13    1    4    4    0    0 -0.80972263148E+02 -0.58394074607E+02 -0.16522583227E+03  0.19304390951E+03  0.00000000000E+00 0. -1.
        -14    1    4    4    0    0 -0.15876190733E+03 -0.57017847890E+02 -0.48937940711E+03  0.51763750087E+03  0.00000000000E+00 0.  1.
</event>
<event>
12    1  0.8344842E-002  0.2027144E+03  0.7818608E-02  0.1147692E+00
         21   -1    0    0  503  502  0.00000000000E+00  0.00000000000E+00  0.30234163332E+02  0.30234163332E+02  0.00000000000E+00 0.  1.
         21   -1    0    0  501  503 -0.00000000000E+00 -0.00000000000E+00 -0.29851693310E+04  0.29851693310E+04  0.00000000000E+00 0. -1.
          6    2    1    2  501    0  0.95516900713E+02  0.48613261688E+02 -0.25944411270E+04  0.26023485359E+04  0.17206514211E+03 0.  0.
         24    2    3    3    0    0  0.46567804314E+02  0.37569301887E+02 -0.67880848968E+03  0.68605302779E+03  0.79421523812E+02 0.  0.
         -6    2    1    2    0  502 -0.95516900713E+02 -0.48613261688E+02 -0.36049404061E+03  0.41305495840E+03  0.17079730037E+03 0.  0.
        -24    2    5    5    0    0 -0.77026023376E+02  0.22710583335E+02 -0.12336656045E+03  0.16469929558E+03  0.73876727412E+02 0.  0.
          5    1    3    3  501    0  0.48949096399E+02  0.11043959801E+02 -0.19156326373E+04  0.19162955081E+04  0.47000000000E+01 0. -1.
        -11    1    4    4    0    0  0.42426807402E+02  0.58176760914E+02 -0.60626107185E+03  0.61052195434E+03  0.00000000000E+00 0.  1.
         12    1    4    4    0    0  0.41409969120E+01 -0.20607459027E+02 -0.72547417830E+02  0.75531073452E+02  0.00000000000E+00 0. -1.
         -5    1    5    5    0  502 -0.18490877337E+02 -0.71323845023E+02 -0.23712748015E+03  0.24835566282E+03  0.47000000000E+01 0.  1.
         11    1    6    6    0    0 -0.70995611340E+01 -0.15334229573E+02 -0.61785669580E+02  0.64054752598E+02  0.00000000000E+00 0. -1.
        -12    1    6    6    0    0 -0.69926462242E+02  0.38044812908E+02 -0.61580890874E+02  0.10064454298E+03  0.00000000000E+00 0.  1.
</event>
<event>
12    1  0.8344842E-002  0.1732965E+03  0.7818608E-02  0.1174527E+00
         21   -1    0    0  503  502  0.00000000000E+00  0.00000000000E+00  0.16918714385E+03  0.16918714385E+03  0.00000000000E+00 0. -1.
         21   -1    0    0  501  503 -0.00000000000E+00 -0.00000000000E+00 -0.20112210900E+03  0.20112210900E+03  0.00000000000E+00 0. -1.
          6    2    1    2  501    0 -0.14961219109E+02 -0.98286330708E+01 -0.79799803232E+02  0.19052402584E+03  0.17207834182E+03 0.  0.
         24    2    3    3    0    0 -0.53816214294E+02  0.34663409092E+02 -0.16296573177E+02  0.10366780733E+03  0.79898054603E+02 0.  0.
         -6    2    1    2    0  502  0.14961219109E+02  0.98286330708E+01  0.47864838077E+02  0.17978522701E+03  0.17236950142E+03 0.  0.
        -24    2    5    5    0    0  0.25528597884E+01  0.55252397962E+02  0.77386148985E+02  0.12400993144E+03  0.79564454795E+02 0.  0.
          5    1    3    3  501    0  0.38854995185E+02 -0.44492042162E+02 -0.63503230055E+02  0.86856218511E+02  0.47000000000E+01 0. -1.
        -11    1    4    4    0    0 -0.31974013808E+02 -0.17699732200E+02  0.14256213788E+02  0.39228276925E+02  0.00000000000E+00 0.  1.
         12    1    4    4    0    0 -0.21842200486E+02  0.52363141291E+02 -0.30552786965E+02  0.64439530409E+02  0.00000000000E+00 0. -1.
         -5    1    5    5    0  502  0.12408359321E+02 -0.45423764891E+02 -0.29521310907E+02  0.55775295567E+02  0.47000000000E+01 0.  1.
         11    1    6    6    0    0 -0.16520175217E+02  0.21238758244E+02  0.80511367982E+02  0.84888641262E+02  0.00000000000E+00 0. -1.
        -12    1    6    6    0    0  0.19073035006E+02  0.34013639718E+02 -0.31252189978E+01  0.39121290175E+02  0.00000000000E+00 0.  1.
</event>
<event>
12    1  0.8344842E-002  0.2481735E+03  0.7818608E-02  0.1114974E+00
         21   -1    0    0  501  502  0.00000000000E+00  0.00000000000E+00  0.13290663983E+03  0.13290663983E+03  0.00000000000E+00 0.  1.
         21   -1    0    0  502  503 -0.00000000000E+00 -0.00000000000E+00 -0.71620531043E+03  0.71620531043E+03  0.00000000000E+00 0.  1.
         -6    2    1    2    0  503 -0.15525349059E+03  0.12659454796E+02 -0.54560969285E+03  0.59809294620E+03  0.18910665571E+03 0.  0.
        -24    2    3    3    0    0 -0.16409524011E+03 -0.36174300072E+02 -0.48625029245E+03  0.52057816978E+03  0.79539022646E+02 0.  0.
          6    2    1    2  501    0  0.15525349059E+03 -0.12659454796E+02 -0.37688977745E+02  0.25101900405E+03  0.19319982717E+03 0.  0.
         24    2    5    5    0    0  0.16312403794E+03  0.32257784663E+02 -0.67979590242E+02  0.19607252899E+03  0.78569685700E+02 0.  0.
          5    1    5    5  501    0 -0.78705473542E+01 -0.44917239460E+02  0.30290612497E+02  0.54946475062E+02  0.47000000000E+01 0. -1.
        -11    1    6    6    0    0  0.25731432442E+02 -0.24242846828E+02 -0.13380344556E+02  0.37800209765E+02  0.00000000000E+00 0.  1.
         12    1    6    6    0    0  0.13739260550E+03  0.56500631491E+02 -0.54599245686E+02  0.15827231923E+03  0.00000000000E+00 0. -1.
         -5    1    3    3    0  503  0.88417495247E+01  0.48833754869E+02 -0.59359400396E+02  0.77514776428E+02  0.47000000000E+01 0.  1.
         11    1    4    4    0    0 -0.23268675318E+02 -0.35203389057E+02 -0.77445294100E+02  0.88195710952E+02  0.00000000000E+00 0. -1.
        -12    1    4    4    0    0 -0.14082656479E+03 -0.97091101548E+00 -0.40880499835E+03  0.43238245882E+03  0.00000000000E+00 0.  1.
</event>
<event>
12    1  0.8344842E-002  0.1901481E+03  0.7818608E-02  0.1158753E+00
         21   -1    0    0  503  502  0.00000000000E+00  0.00000000000E+00  0.13179476905E+03  0.13179476905E+03  0.00000000000E+00 0. -1.
         21   -1    0    0  501  503 -0.00000000000E+00 -0.00000000000E+00 -0.38354529448E+03  0.38354529448E+03  0.00000000000E+00 0. -1.
          6    2    1    2  501    0  0.41266524300E+02 -0.69665761424E+02 -0.26549929018E+03  0.32656725813E+03  0.17204666999E+03 0.  0.
         24    2    3    3    0    0  0.39157987623E+02  0.23973600944E+02 -0.15042065816E+03  0.17811538829E+03  0.83610020978E+02 0.  0.
         -6    2    1    2    0  502 -0.41266524300E+02  0.69665761424E+02  0.13748764752E+02  0.18877280539E+03  0.16997028911E+03 0.  0.
        -24    2    5    5    0    0 -0.18144313710E+02 -0.22234951263E+02 -0.20724584796E+02  0.87822919588E+02  0.80372555093E+02 0.  0.
          5    1    3    3  501    0  0.21085366776E+01 -0.93639362368E+02 -0.11507863202E+03  0.14845186984E+03  0.47000000000E+01 0. -1.
        -11    1    4    4    0    0 -0.24094562679E+01  0.12105677936E+02  0.74608343188E+01  0.14422793298E+02  0.00000000000E+00 0.  1.
         12    1    4    4    0    0  0.41567443890E+02  0.11867923008E+02 -0.15788149248E+03  0.16369259500E+03  0.00000000000E+00 0. -1.
         -5    1    5    5    0  502 -0.23122210590E+02  0.91900712687E+02  0.34473349549E+02  0.10094988581E+03  0.47000000000E+01 0.  1.
         11    1    6    6    0    0 -0.22884443064E+02 -0.30981651255E+01  0.27389840607E+02  0.35825964467E+02  0.00000000000E+00 0. -1.
        -12    1    6    6    0    0  0.47401293539E+01 -0.19136786138E+02 -0.48114425403E+02  0.51996955121E+02  0.00000000000E+00 0.  1.
</event>
<event>
12    1  0.8344842E-002  0.2343873E+03  0.7818608E-02  0.1124809E+00
         21   -1    0    0  501  502  0.00000000000E+00  0.00000000000E+00  0.11001093070E+03  0.11001093070E+03  0.00000000000E+00 0. -1.
         21   -1    0    0  502  503 -0.00000000000E+00 -0.00000000000E+00 -0.62032100053E+03  0.62032100053E+03  0.00000000000E+00 0. -1.
         -6    2    1    2    0  503  0.13243587749E+03  0.58647902658E+02 -0.42895997005E+03  0.48881905680E+03  0.18427852900E+03 0.  0.
        -24    2    3    3    0    0  0.10818795024E+03  0.64205670180E+02 -0.43736066955E+03  0.46214486500E+03  0.80414677261E+02 0.  0.
          6    2    1    2  501    0 -0.13243587749E+03 -0.58647902658E+02 -0.81350099778E+02  0.24151287443E+03  0.17530485347E+03 0.  0.
         24    2    5    5    0    0 -0.46965284564E+02 -0.66253621384E+02 -0.99816597525E+02  0.15361423536E+03  0.83896959790E+02 0.  0.
          5    1    5    5  501    0 -0.85470592925E+02  0.76057187265E+01  0.18466497747E+02  0.87898639076E+02  0.47000000000E+01 0. -1.
        -11    1    6    6    0    0  0.12791125818E+02  0.81456342630E+01 -0.35316562219E+02  0.38434669560E+02  0.00000000000E+00 0.  1.
         12    1    6    6    0    0 -0.59756410381E+02 -0.74399255647E+02 -0.64500035306E+02  0.11517956580E+03  0.00000000000E+00 0. -1.
         -5    1    3    3    0  503  0.24247927253E+02 -0.55577675217E+01  0.84006995005E+01  0.26674191796E+02  0.47000000000E+01 0.  1.
         11    1    4    4    0    0  0.28137108618E+02  0.54392020598E+02 -0.12033050953E+03  0.13501711117E+03  0.00000000000E+00 0. -1.
        -12    1    4    4    0    0  0.80050841618E+02  0.98136495813E+01 -0.31703016002E+03  0.32712775383E+03  0.00000000000E+00 0.  1.
</event>
<event>
12    1  0.8344842E-002  0.1966924E+03  0.7818608E-02  0.1153168E+00
         21   -1    0    0  503  502  0.00000000000E+00  0.00000000000E+00  0.11386713602E+03  0.11386713602E+03  0.00000000000E+00 0. -1.
         21   -1    0    0  501  503 -0.00000000000E+00 -0.00000000000E+00 -0.46558799783E+03  0.46558799783E+03  0.00000000000E+00 0. -1.
          6    2    1    2  501    0  0.52811163976E+02 -0.78458565784E+02 -0.33023461182E+03  0.38437323989E+03  0.17246194685E+03 0.  0.
         24    2    3    3    0    0  0.52680620007E+02 -0.10030799913E+03 -0.33400276211E+03  0.36170820656E+03  0.80237392661E+02 0.  0.
         -6    2    1    2    0  502 -0.52811163976E+02  0.78458565784E+02 -0.21486249987E+02  0.19508189396E+03  0.16926464731E+03 0.  0.
        -24    2    5    5    0    0 -0.93674306736E+02  0.86576039015E+02 -0.83291966434E+01  0.15114002485E+03  0.80645181642E+02 0.  0.
          5    1    3    3  501    0  0.13054396890E+00  0.21849433344E+02  0.37681502882E+01  0.22665033328E+02  0.47000000000E+01 0. -1.
        -13    1    4    4    0    0 -0.94740985262E+01 -0.52456108271E+02 -0.82202088383E+02  0.97972369433E+02  0.00000000000E+00 0.  1.
         14    1    4    4    0    0  0.62154718534E+02 -0.47851890856E+02 -0.25180067373E+03  0.26373583713E+03  0.00000000000E+00 0. -1.
         -5    1    5    5    0  502  0.40863142760E+02 -0.81174732319E+01 -0.13157053344E+02  0.43941869106E+02  0.47000000000E+01 0.  1.
         13    1    6    6    0    0 -0.10000776891E+03  0.95118003771E+02 -0.14611095306E+02  0.13878931007E+03  0.00000000000E+00 0. -1.
        -14    1    6    6    0    0  0.63334621698E+01 -0.85419647556E+01  0.62818986626E+01  0.12350714787E+02  0.00000000000E+00 0.  1.
</event>
<event>
12    1  0.8344842E-002  0.2005769E+03  0.7818608E-02  0.1149350E+00
         21   -1    0    0  503  502  0.00000000000E+00  0.00000000000E+00  0.88152321470E+02  0.88152321470E+02  0.00000000000E+00 0.  1.
         21   -1    0    0  501  503 -0.00000000000E+00 -0.00000000000E+00 -0.73477887910E+03  0.73477887910E+03  0.00000000000E+00 0. -1.
          6    2    1    2  501    0 -0.64179175149E+02 -0.81505766759E+02 -0.57683084239E+03  0.61055761574E+03  0.17112751053E+03 0.  0.
         24    2    3    3    0    0 -0.17939471963E+02 -0.10939886472E+03 -0.32341456262E+03  0.35140894041E+03  0.81248555903E+02 0.  0.
         -6    2    1    2    0  502  0.64179175149E+02  0.81505766759E+02 -0.69795715236E+02  0.21237358483E+03  0.17166520070E+03 0.  0.
        -24    2    5    5    0    0  0.49861318414E+02 -0.80526423347E+00  0.11834163091E+02  0.95473482693E+02  0.80550226301E+02 0.  0.
          5    1    3    3  501    0 -0.46239703186E+02  0.27893097957E+02 -0.25341627978E+03  0.25914867532E+03  0.47000000000E+01 0. -1.
        -11    1    4    4    0    0 -0.40224146780E+02 -0.85500753683E+02 -0.28854206320E+03  0.30361963557E+03  0.00000000000E+00 0.  1.
         12    1    4    4    0    0  0.22284674816E+02 -0.23898111033E+02 -0.34872499415E+02  0.47789304850E+02  0.00000000000E+00 0. -1.
         -5    1    5    5    0  502  0.14317856736E+02  0.82311030993E+02 -0.81629878327E+02  0.11690010214E+03  0.47000000000E+01 0.  1.
         11    1    6    6    0    0  0.20786608049E+02 -0.13472439869E+02 -0.32562175774E+02  0.40913139714E+02  0.00000000000E+00 0. -1.
        -12    1    6    6    0    0  0.29074710365E+02  0.12667175635E+02  0.44396338865E+02  0.54560342979E+02  0.00000000000E+00 0.  1.
</event>
<event>
12    1  0.8344842E-002  0.1942381E+03  0.7818608E-02  0.1154908E+00
         21   -1    0    0  501  502  0.00000000000E+00  0.00000000000E+00  0.15201023129E+04  0.15201023129E+04  0.00000000000E+00 0. -1.
         21   -1    0    0  502  503 -0.00000000000E+00 -0.00000000000E+00 -0.81195095158E+02  0.81195095158E+02  0.00000000000E+00 0. -1.
         -6    2    1    2    0  503  0.37930869107E+02 -0.79088633785E+02  0.52121071135E+02  0.20110952683E+03  0.17330514390E+03 0.  0.
        -24    2    3    3    0    0 -0.37410704827E+02 -0.25586216952E+02 -0.63669182018E+01  0.91648135162E+02  0.79401685736E+02 0.  0.
          6    2    1    2  501    0 -0.37930869107E+02  0.79088633785E+02  0.13867861466E+04  0.14001878812E+04  0.17221069504E+03 0.  0.
         24    2    5    5    0    0  0.42070477480E+02  0.14464754820E+02  0.55942310596E+03  0.56644442415E+03  0.76979997150E+02 0.  0.
          5    1    5    5  501    0 -0.80001346587E+02  0.64623878965E+02  0.82736304063E+03  0.83374345706E+03  0.47000000000E+01 0. -1.
        -13    1    6    6    0    0  0.32819845821E+02  0.44532899097E+02  0.41235929621E+03  0.41605349482E+03  0.00000000000E+00 0.  1.
         14    1    6    6    0    0  0.92506316597E+01 -0.30068144277E+02  0.14706380975E+03  0.15039092933E+03  0.00000000000E+00 0. -1.
         -5    1    3    3    0  503  0.75341573934E+02 -0.53502416834E+02  0.58487989336E+02  0.10946139167E+03  0.47000000000E+01 0.  1.
         13    1    4    4    0    0 -0.60448423159E+02 -0.14953164691E+02  0.75207418807E+01  0.62722966728E+02  0.00000000000E+00 0. -1.
        -14    1    4    4    0    0  0.23037718333E+02 -0.10633052261E+02 -0.13887660083E+02  0.28925168434E+02  0.00000000000E+00 0.  1.
</event>
<event>
12    1  0.8344842E-002  0.2056838E+03  0.7818608E-02  0.1145252E+00
         21   -1    0    0  503  502  0.00000000000E+00  0.00000000000E+00  0.10163381979E+03  0.10163381979E+03  0.00000000000E+00 0.  1.
         21   -1    0    0  501  503 -0.00000000000E+00 -0.00000000000E+00 -0.69337375150E+03  0.69337375150E+03  0.00000000000E+00 0.  1.
          6    2    1    2  501    0 -0.65951765887E+02  0.90261992187E+02 -0.54769349727E+03  0.58466044125E+03  0.17135577596E+03 0.  0.
         24    2    3    3    0    0  0.19256012053E+02  0.13114186514E+01 -0.23569486702E+03  0.24919389264E+03  0.78568517702E+02 0.  0.
         -6    2    1    2    0  502  0.65951765887E+02 -0.90261992187E+02 -0.44046434443E+02  0.21034713004E+03  0.17265272680E+03 0.  0.
        -24    2    5    5    0    0  0.13952761538E+02 -0.10166543345E+03  0.13863871187E+02  0.13154593446E+03  0.81126974778E+02 0.  0.
          5    1    3    3  501    0 -0.85207777941E+02  0.88950573536E+02 -0.31199863026E+03  0.33546654861E+03  0.47000000000E+01 0. -1.
        -13    1    4    4    0    0  0.20438467116E+02  0.14773588202E+02 -0.23424918932E+03  0.23560278551E+03  0.00000000000E+00 0.  1.
         14    1    4    4    0    0 -0.11824550624E+01 -0.13462169551E+02 -0.14456776995E+01  0.13591107129E+02  0.00000000000E+00 0. -1.
         -5    1    5    5    0  502  0.51999004349E+02  0.11403441260E+02 -0.57910305630E+02  0.78801195575E+02  0.47000000000E+01 0.  1.
         13    1    6    6    0    0  0.90384119663E+01 -0.32611519334E+02  0.44446431078E+02  0.55863130235E+02  0.00000000000E+00 0. -1.
        -14    1    6    6    0    0  0.49143495720E+01 -0.69053914114E+02 -0.30582559890E+02  0.75682804227E+02  0.00000000000E+00 0.  1.
</event>
<event>
12    1  0.8344842E-002  0.2098441E+03  0.7818608E-02  0.1141803E+00
         21   -1    0    0  503  502  0.00000000000E+00  0.00000000000E+00  0.22106428151E+03  0.22106428151E+03  0.00000000000E+00 0. -1.
         21   -1    0    0  501  503 -0.00000000000E+00 -0.00000000000E+00 -0.29160315429E+03  0.29160315429E+03  0.00000000000E+00 0.  1.
          6    2    1    2  501    0 -0.11003872612E+03  0.47250102380E+02 -0.17996104586E+03  0.27600783255E+03  0.17161949825E+03 0.  0.
         24    2    3    3    0    0 -0.38810693949E+02  0.65059546968E+02 -0.16921850326E+03  0.20165663145E+03  0.79318853668E+02 0.  0.
         -6    2    1    2    0  502  0.11003872612E+03 -0.47250102380E+02  0.10942217308E+03  0.23665960325E+03  0.17231791093E+03 0.  0.
        -24    2    5    5    0    0  0.86006235693E+02 -0.95869610098E+02  0.59697678014E+02  0.16293014823E+03  0.79964778026E+02 0.  0.
          5    1    3    3  501    0 -0.71228032171E+02 -0.17809444588E+02 -0.10742542609E+02  0.74351201101E+02  0.47000000000E+01 0. -1.
        -13    1    4    4    0    0 -0.10743616412E+02  0.24051547401E+02 -0.14312554473E+03  0.14552946018E+03  0.00000000000E+00 0.  1.
         14    1    4    4    0    0 -0.28067077537E+02  0.41007999566E+02 -0.26092958522E+02  0.56127171266E+02  0.00000000000E+00 0. -1.
         -5    1    5    5    0  502  0.24032490426E+02  0.48619507718E+02  0.49724495067E+02  0.73729455013E+02  0.47000000000E+01 0.  1.
         13    1    6    6    0    0  0.76262418293E+02 -0.81113713144E+02  0.79180224320E+02  0.13661954043E+03  0.00000000000E+00 0. -1.
        -14    1    6    6    0    0  0.97438174001E+01 -0.14755896954E+02 -0.19482546306E+02  0.26310607804E+02  0.00000000000E+00 0.  1.
</event>
<event>
12    1  0.8344842E-002  0.2234473E+03  0.7818608E-02  0.1132349E+00
         21   -1    0    0  503  502  0.00000000000E+00  0.00000000000E+00  0.13258669095E+03  0.13258669095E+03  0.00000000000E+00 0. -1.
         21   -1    0    0  501  503 -0.00000000000E+00 -0.00000000000E+00 -0.10347219215E+04  0.10347219215E+04  0.00000000000E+00 0. -1.
          6    2    1    2  501    0 -0.63500084044E+02  0.11835267314E+03 -0.92174010084E+03  0.94843739958E+03  0.17857511449E+03 0.  0.
         24    2    3    3    0    0 -0.83338229783E+02  0.97879604475E+02 -0.43221006994E+03  0.45805546708E+03  0.80520735550E+02 0.  0.
         -6    2    1    2    0  502  0.63500084044E+02 -0.11835267314E+03  0.19604870297E+02  0.21887121285E+03  0.17169927478E+03 0.  0.
        -24    2    5    5    0    0  0.51077973794E+02  0.33040366995E+00  0.28764574861E+02  0.99096542186E+02  0.79897780526E+02 0.  0.
          5    1    3    3  501    0  0.19838145738E+02  0.20473068669E+02 -0.48953003090E+03  0.49038193250E+03  0.47000000000E+01 0. -1.
        -13    1    4    4    0    0 -0.57057523902E+02  0.73005081851E+02 -0.17225734227E+03  0.19559625501E+03  0.00000000000E+00 0.  1.
         14    1    4    4    0    0 -0.26280705880E+02  0.24874522625E+02 -0.25995272767E+03  0.26245921207E+03  0.00000000000E+00 0. -1.
         -5    1    5    5    0  502  0.12422110251E+02 -0.11868307681E+03 -0.91597045641E+01  0.11977467067E+03  0.47000000000E+01 0.  1.
         13    1    6    6    0    0  0.52716041824E+01  0.46778285897E+01  0.48515227428E+02  0.49024475351E+02  0.00000000000E+00 0. -1.
        -14    1    6    6    0    0  0.45806369611E+02 -0.43474249197E+01 -0.19750652567E+02  0.50072066836E+02  0.00000000000E+00 0.  1.
</event>
<event>
12    1  0.8344842E-002  0.2570612E+03  0.7818608E-02  0.1108935E+00
         21   -1    0    0  501  502  0.00000000000E+00  0.00000000000E+00  0.18114836886E+03  0.18114836886E+03  0.00000000000E+00 0.  1.
         21   -1    0    0  502  503 -0.00000000000E+00 -0.00000000000E+00 -0.36699616692E+03  0.36699616692E+03  0.00000000000E+00 0.  1.
         -6    2    1    2    0  503 -0.11235161923E+03 -0.15489558846E+03 -0.11477536838E+03  0.28143913488E+03  0.17151988744E+03 0.  0.
        -24    2    3    3    0    0 -0.12524965426E+03 -0.17684790628E+03 -0.10138306784E+03  0.25228939597E+03  0.80054700193E+02 0.  0.
          6    2    1    2  501    0  0.11235161923E+03  0.15489558846E+03 -0.71072429672E+02  0.26670540090E+03  0.17165357830E+03 0.  0.
         24    2    5    5    0    0  0.13122796412E+03  0.16845307644E+03 -0.86923908186E+02  0.23818380824E+03  0.59820925803E+02 0.  0.
          5    1    5    5  501    0 -0.18876344898E+02 -0.13557487972E+02  0.15851478514E+02  0.28521592661E+02  0.47000000000E+01 0. -1.
        -13    1    6    6    0    0  0.29355069750E+02  0.36970531894E+02 -0.48073580653E+02  0.67376624324E+02  0.00000000000E+00 0.  1.
         14    1    6    6    0    0  0.10187289437E+03  0.13148254454E+03 -0.38850327533E+02  0.17080718391E+03  0.00000000000E+00 0. -1.
         -5    1    3    3    0  503  0.12898035030E+02  0.21952317819E+02 -0.13392300539E+02  0.29149738918E+02  0.47000000000E+01 0.  1.
         13    1    4    4    0    0  0.87258112801E+01 -0.20994270289E+02  0.83354354443E+00  0.22750691469E+02  0.00000000000E+00 0. -1.
        -14    1    4    4    0    0 -0.13397546554E+03 -0.15585363599E+03 -0.10221661139E+03  0.22953870450E+03  0.00000000000E+00 0.  1.
</event>
<event>
12    1  0.8344842E-002  0.1856481E+03  0.7818608E-02  0.1163344E+00
         21   -1    0    0  501  502  0.00000000000E+00  0.00000000000E+00  0.12873454293E+04  0.12873454293E+04  0.00000000000E+00 0. -1.
         21   -1    0    0  502  503 -0.00000000000E+00 -0.00000000000E+00 -0.41772260620E+03  0.41772260620E+03  0.00000000000E+00 0. -1.
         -6    2    1    2    0  503  0.49039459822E+02  0.37256604212E+02 -0.39024173284E+03  0.43215024387E+03  0.17513509086E+03 0.  0.
        -24    2    3    3    0    0  0.99911800283E+02  0.38939666654E+02 -0.30376467159E+03  0.33169527960E+03  0.79057683570E+02 0.  0.
          6    2    1    2  501    0 -0.49039459822E+02 -0.37256604212E+02  0.12598645559E+04  0.12729177916E+04  0.17107916808E+03 0.  0.
         24    2    5    5    0    0 -0.88506725061E+01 -0.24606153242E+02  0.11844346094E+04  0.11863906897E+04  0.62878672325E+02 0.  0.
          5    1    5    5  501    0 -0.40188787316E+02 -0.12650450970E+02  0.75429946502E+02  0.86527101910E+02  0.47000000000E+01 0. -1.
        -13    1    6    6    0    0 -0.87663124888E+01 -0.81425500567E+01  0.38025511096E+02  0.39863377306E+02  0.00000000000E+00 0.  1.
         14    1    6    6    0    0 -0.84360017260E-01 -0.16463603186E+02  0.11464090983E+04  0.11465273124E+04  0.00000000000E+00 0. -1.
         -5    1    3    3    0  503 -0.50872340461E+02 -0.16830624423E+01 -0.86477061252E+02  0.10045496427E+03  0.47000000000E+01 0.  1.
         13    1    4    4    0    0  0.31294045388E+02  0.51744459363E+02 -0.10685370030E+03  0.12277833530E+03  0.00000000000E+00 0. -1.
        -14    1    4    4    0    0  0.68617754895E+02 -0.12804792708E+02 -0.19691097129E+03  0.20891694430E+03  0.00000000000E+00 0.  1.
</event>
<event>
12    1  0.8344842E-002  0.1728417E+03  0.7818608E-02  0.1175257E+00
         21   -1    0    0  503  502  0.00000000000E+00  0.00000000000E+00  0.67774019476E+02  0.67774019476E+02  0.00000000000E+00 0.  1.
         21   -1    0    0  501  503 -0.00000000000E+00 -0.00000000000E+00 -0.49605491664E+03  0.49605491664E+03  0.00000000000E+00 0.  1.
          6    2    1    2  501    0 -0.16195702567E+01  0.16115761955E+02 -0.31034156761E+03  0.35458283473E+03  0.17074764218E+03 0.  0.
         24    2    3    3    0    0  0.29091269045E+02 -0.25268516020E+02 -0.84650503579E+02  0.12303508481E+03  0.80542687442E+02 0.  0.
         -6    2    1    2    0  502  0.16195702567E+01 -0.16115761955E+02 -0.11793932956E+03  0.20924610138E+03  0.17208109918E+03 0.  0.
        -24    2    5    5    0    0 -0.32298711375E+02 -0.61161413449E+02 -0.99883935577E+02  0.14985209664E+03  0.87720721786E+02 0.  0.
          5    1    3    3  501    0 -0.30710839302E+02  0.41384277975E+02 -0.22569106403E+03  0.23154774993E+03  0.47000000000E+01 0. -1.
        -13    1    4    4    0    0  0.36875937377E+02 -0.17539971849E+02 -0.97757486792E+02  0.10594343582E+03  0.00000000000E+00 0.  1.
         14    1    4    4    0    0 -0.77846683314E+01 -0.77285441708E+01  0.13106983213E+02  0.17091648984E+02  0.00000000000E+00 0. -1.
         -5    1    5    5    0  502  0.33918281631E+02  0.45045651494E+02 -0.18055393981E+02  0.59394004740E+02  0.47000000000E+01 0.  1.
         13    1    6    6    0    0  0.30163950562E+02 -0.23071981724E+02 -0.41484409854E+02  0.56241768421E+02  0.00000000000E+00 0. -1.
        -14    1    6    6    0    0 -0.62462661936E+02 -0.38089431724E+02 -0.58399525723E+02  0.93610328223E+02  0.00000000000E+00 0.  1.
</event>
<event>
12    1  0.8344842E-002  0.1887431E+03  0.7818608E-02  0.1160051E+00
         21   -1    0    0  501  502  0.00000000000E+00  0.00000000000E+00  0.77740092908E+02  0.77740092908E+02  0.00000000000E+00 0.  1.
         21   -1    0    0  502  503 -0.00000000000E+00 -0.00000000000E+00 -0.45719070627E+03  0.45719070627E+03  0.00000000000E+00 0.  1.
         -6    2    1    2    0  503 -0.12758167748E+01  0.77533245386E+02 -0.16461011256E+03  0.24895810422E+03  0.16991355641E+03 0.  0.
        -24    2    3    3    0    0  0.15304604441E+02  0.28766283314E+02 -0.17585605646E+03  0.19602712830E+03  0.80246822155E+02 0.  0.
          6    2    1    2  501    0  0.12758167748E+01 -0.77533245386E+02 -0.21484050080E+03  0.28597269495E+03  0.17207820788E+03 0.  0.
         24    2    5    5    0    0 -0.46890499370E+02 -0.54614293039E+02 -0.62527383681E+02  0.12452100548E+03  0.80089744412E+02 0.  0.
          5    1    5    5  501    0  0.48166316145E+02 -0.22918952347E+02 -0.15231311712E+03  0.16145168947E+03  0.47000000000E+01 0. -1.
        -13    1    6    6    0    0 -0.76498028090E+01 -0.60424718593E+02 -0.58831531762E+02  0.84680666208E+02  0.00000000000E+00 0.  1.
         14    1    6    6    0    0 -0.39240696561E+02  0.58104255535E+01 -0.36958519188E+01  0.39840339270E+02  0.00000000000E+00 0. -1.
         -5    1    3    3    0  503 -0.16580421216E+02  0.48766962072E+02  0.11245943898E+02  0.52930975917E+02  0.47000000000E+01 0.  1.
         13    1    4    4    0    0 -0.28884150395E+02 -0.46399969076E+00 -0.95525550250E+02  0.99797996925E+02  0.00000000000E+00 0. -1.
        -14    1    4    4    0    0  0.44188754836E+02  0.29230283005E+02 -0.80330506205E+02  0.96229131378E+02  0.00000000000E+00 0.  1.
</event>
<event>
12    1  0.8344842E-002  0.2131547E+03  0.7818608E-02  0.1139092E+00
         21   -1    0    0  503  502  0.00000000000E+00  0.00000000000E+00  0.81177934692E+03  0.81177934692E+03  0.00000000000E+00 0.  1.
         21   -1    0    0  501  503 -0.00000000000E+00 -0.00000000000E+00 -0.60947294190E+02  0.60947294190E+02  0.00000000000E+00 0.  1.
          6    2    1    2  501    0  0.88896014114E+01 -0.12460865647E+03  0.25070621213E+03  0.32907221874E+03  0.17270951933E+03 0.  0.
         24    2    3    3    0    0 -0.13087027281E+02 -0.15084388324E+03  0.23433120396E+03  0.29084277688E+03  0.82178222914E+02 0.  0.
         -6    2    1    2    0  502 -0.88896014114E+01  0.12460865647E+03  0.50012584060E+03  0.54365442237E+03  0.17270764965E+03 0.  0.
        -24    2    5    5    0    0  0.49255326596E+02  0.62685828166E+02  0.17134289333E+03  0.20404348949E+03  0.76939965275E+02 0.  0.
          5    1    3    3  501    0  0.21976628693E+02  0.26235226770E+02  0.16375008176E+02  0.38229441863E+02  0.47000000000E+01 0. -1.
        -11    1    4    4    0    0 -0.25156214467E+02 -0.75549737572E+02  0.18113799293E+03  0.19786755787E+03  0.00000000000E+00 0.  1.
         12    1    4    4    0    0  0.12069187186E+02 -0.75294145668E+02  0.53193211028E+02  0.92975219014E+02  0.00000000000E+00 0. -1.
         -5    1    5    5    0  502 -0.58144928008E+02  0.61922828304E+02  0.32878294727E+03  0.33961093288E+03  0.47000000000E+01 0.  1.
         13    1    6    6    0    0  0.15995405557E+02  0.34886978855E+02  0.14022666784E+02  0.40860610328E+02  0.00000000000E+00 0. -1.
        -14    1    6    6    0    0  0.33259921039E+02  0.27798849311E+02  0.15732022655E+03  0.16318287916E+03  0.00000000000E+00 0.  1.
</event>
<event>
12    1  0.8344842E-002  0.1743786E+03  0.7818608E-02  0.1174869E+00
         21   -1    0    0  501  502  0.00000000000E+00  0.00000000000E+00  0.66105802902E+03  0.66105802902E+03  0.00000000000E+00 0. -1.
         21   -1    0    0  502  503 -0.00000000000E+00 -0.00000000000E+00 -0.13127596895E+03  0.13127596895E+03  0.00000000000E+00 0. -1.
         -6    2    1    2    0  503  0.13743196975E+02 -0.31380856733E+02 -0.58804568372E+02  0.17845932495E+03  0.16497308801E+03 0.  0.
        -24    2    3    3    0    0  0.11530110115E+02  0.30238830869E+02  0.75088809444E+01  0.87787128477E+02  0.81258022998E+02 0.  0.
          6    2    1    2  501    0 -0.13743196975E+02  0.31380856733E+02  0.58858662845E+03  0.61387467302E+03  0.17098029522E+03 0.  0.
         24    2    5    5    0    0 -0.47967381552E+02  0.67798585343E+02  0.27819545573E+03  0.29945088914E+03  0.73352611069E+02 0.  0.
          5    1    5    5  501    0  0.34224184576E+02 -0.36417728611E+02  0.31039117272E+03  0.31442378388E+03  0.47000000000E+01 0. -1.
        -11    1    6    6    0    0 -0.45648202561E+01  0.13806778192E+02  0.19739892660E+01  0.14675194774E+02  0.00000000000E+00 0.  1.
         12    1    6    6    0    0 -0.43402561295E+02  0.53991807151E+02  0.27622146647E+03  0.28477569437E+03  0.00000000000E+00 0. -1.
         -5    1    3    3    0  503  0.22130868602E+01 -0.61619687602E+02 -0.66313449316E+02  0.90672196476E+02  0.47000000000E+01 0.  1.
         13    1    4    4    0    0 -0.26979431862E+02 -0.42799928811E+01 -0.15249551529E+02  0.31285090770E+02  0.00000000000E+00 0. -1.
        -14    1    4    4    0    0  0.38509541977E+02  0.34518823750E+02  0.22758432473E+02  0.56502037707E+02  0.00000000000E+00 0.  1.
</event>
<event>
12    1  0.8344842E-002  0.2414496E+03  0.7818608E-02  0.1119098E+00
         21   -1    0    0  503  502  0.00000000000E+00  0.00000000000E+00  0.14137852565E+04  0.14137852565E+04  0.00000000000E+00 0.  1.
         21   -1    0    0  501  503 -0.00000000000E+00 -0.00000000000E+00 -0.51630776371E+02  0.51630776371E+02  0.00000000000E+00 0.  1.
          6    2    1    2  501    0  0.32084059100E+02  0.16429367693E+03  0.34618390515E+03  0.42114876652E+03  0.17175909942E+03 0.  0.
         24    2    3    3    0    0  0.30659559446E+02  0.14771887076E+03  0.15851091235E+03  0.23268127430E+03  0.79082189600E+02 0.  0.
         -6    2    1    2    0  502 -0.32084059100E+02 -0.16429367693E+03  0.10159705750E+04  0.10442672664E+04  0.17400033107E+03 0.  0.
        -24    2    5    5    0    0 -0.11014700539E+02 -0.16514223317E+03  0.59996890751E+03  0.62770500779E+03  0.81594154314E+02 0.  0.
          5    1    3    3  501    0  0.14244996548E+01  0.16574806173E+02  0.18767299280E+03  0.18846749223E+03  0.47000000000E+01 0. -1.
        -11    1    4    4    0    0 -0.11875703968E+02 -0.13790708074E+01  0.26410224874E+02  0.28990242478E+02  0.00000000000E+00 0.  1.
         12    1    4    4    0    0  0.42535263413E+02  0.14909794157E+03  0.13210068747E+03  0.20369103182E+03  0.00000000000E+00 0. -1.
         -5    1    5    5    0  502 -0.21069358562E+02  0.84855624275E+00  0.41600166749E+03  0.41656225858E+03  0.47000000000E+01 0.  1.
         13    1    6    6    0    0  0.16314335145E+02 -0.42525734565E+02  0.73609440440E+02  0.86561800775E+02  0.00000000000E+00 0. -1.
        -14    1    6    6    0    0 -0.27329035684E+02 -0.12261649861E+03  0.52635946707E+03  0.54114320702E+03  0.00000000000E+00 0.  1.
</event>
<event>
12    1  0.8344842E-002  0.2164103E+03  0.7818608E-02  0.1136633E+00
         21   -1    0    0  503  502  0.00000000000E+00  0.00000000000E+00  0.57661727808E+03  0.57661727808E+03  0.00000000000E+00 0.  1.
         21   -1    0    0  501  503 -0.00000000000E+00 -0.00000000000E+00 -0.81283010335E+02  0.81283010335E+02  0.00000000000E+00 0. -1.
          6    2    1    2  501    0 -0.73098025254E+02  0.10821285109E+03  0.26166760598E+03  0.33941395895E+03  0.17227465592E+03 0.  0.
         24    2    3    3    0    0 -0.74974364142E+02  0.54038417673E+01  0.10026232031E+03  0.14797997741E+03  0.78709491526E+02 0.  0.
         -6    2    1    2    0  502  0.73098025254E+02 -0.10821285109E+03  0.23366666176E+03  0.31848632946E+03  0.17256908993E+03 0.  0.
        -24    2    5    5    0    0  0.51503592549E+02 -0.10600699456E+03  0.80040232044E+02  0.16326276413E+03  0.79738249693E+02 0.  0.
          5    1    3    3  501    0  0.18763388878E+01  0.10280900932E+03  0.16140528567E+03  0.19143398154E+03  0.47000000000E+01 0. -1.
        -11    1    4    4    0    0 -0.53488196380E+02  0.18636254969E+02  0.10768826693E+03  0.12167604524E+03  0.00000000000E+00 0.  1.
         12    1    4    4    0    0 -0.21486167762E+02 -0.13232413202E+02 -0.74259466218E+01  0.26303932167E+02  0.00000000000E+00 0. -1.
         -5    1    5    5    0  502  0.21594432705E+02 -0.22058565249E+01  0.15362642972E+03  0.15522356533E+03  0.47000000000E+01 0.  1.
         11    1    6    6    0    0  0.65752525110E+02 -0.57372858915E+02  0.30630146145E+02  0.92483757230E+02  0.00000000000E+00 0. -1.
        -12    1    6    6    0    0 -0.14248932561E+02 -0.48634135648E+02  0.49410085899E+02  0.70779006901E+02  0.00000000000E+00 0.  1.
</event>
<event>
12    1  0.8344842E-002  0.2124388E+03  0.7818608E-02  0.1140651E+00
         21   -1    0    0  503  502  0.00000000000E+00  0.00000000000E+00  0.13439653506E+04  0.13439653506E+04  0.00000000000E+00 0.  1.
         21   -1    0    0  501  503 -0.00000000000E+00 -0.00000000000E+00 -0.34922487197E+02  0.34922487197E+02  0.00000000000E+00 0.  1.
          6    2    1    2  501    0 -0.11495669031E+03  0.48998020495E+02  0.47646058505E+03  0.51963030481E+03  0.16548449450E+03 0.  0.
         24    2    3    3    0    0 -0.51290859357E+02  0.36150910716E+01  0.11502355845E+03  0.14980363933E+03  0.81036351220E+02 0.  0.
         -6    2    1    2    0  502  0.11495669031E+03 -0.48998020495E+02  0.83258227837E+03  0.85925753299E+03  0.17179758757E+03 0.  0.
        -24    2    5    5    0    0  0.14997036716E+02 -0.16447960914E+02  0.17590067547E+03  0.19419794446E+03  0.79223402293E+02 0.  0.
          5    1    3    3  501    0 -0.63665830949E+02  0.45382929423E+02  0.36143702659E+03  0.36982666549E+03  0.47000000000E+01 0. -1.
        -11    1    4    4    0    0 -0.26357853682E+02  0.26598575946E+02  0.10914211100E+03  0.11538726571E+03  0.00000000000E+00 0.  1.
         12    1    4    4    0    0 -0.24933005674E+02 -0.22983484874E+02  0.58814474490E+01  0.34416373618E+02  0.00000000000E+00 0. -1.
         -5    1    5    5    0  502  0.99959653589E+02 -0.32550059581E+02  0.65668160289E+03  0.66505958853E+03  0.47000000000E+01 0.  1.
         13    1    6    6    0    0  0.89308748396E+00  0.14668335122E+02  0.15151035067E+03  0.15222136519E+03  0.00000000000E+00 0. -1.
        -14    1    6    6    0    0  0.14103949232E+02 -0.31116296036E+02  0.24390324807E+02  0.41976579269E+02  0.00000000000E+00 0.  1.
</event>
<event>
12    1  0.8344842E-002  0.1808868E+03  0.7818608E-02  0.1167008E+00
         21   -1    0    0  501  502  0.00000000000E+00  0.00000000000E+00  0.17987804412E+03  0.17987804412E+03  0.00000000000E+00 0.  1.
         21   -1    0    0  502  503 -0.00000000000E+00 -0.00000000000E+00 -0.29736981257E+03  0.29736981257E+03  0.00000000000E+00 0.  1.
         -6    2    1    2    0  503 -0.55134293106E+02  0.10787895476E+02 -0.20757933562E+03  0.27516913989E+03  0.17167616609E+03 0.  0.
        -24    2    3    3    0    0 -0.59144938711E+02  0.24128946152E+02 -0.45540169284E+02  0.11246434481E+03  0.80585308950E+02 0.  0.
          6    2    1    2  501    0  0.55134293106E+02 -0.10787895476E+02  0.90087567170E+02  0.20207871680E+03  0.17194146986E+03 0.  0.
         24    2    5    5    0    0  0.51715232364E+02  0.87015305080E+01  0.12779474466E+03  0.15923657708E+03  0.79212428487E+02 0.  0.
          5    1    5    5  501    0  0.34190607420E+01 -0.19489425984E+02 -0.37707177487E+02  0.42842139717E+02  0.47000000000E+01 0. -1.
        -13    1    6    6    0    0  0.46985869036E+02 -0.18662349944E+02  0.32795794578E+02  0.60262088717E+02  0.00000000000E+00 0.  1.
         14    1    6    6    0    0  0.47293633284E+01  0.27363880452E+02  0.94998950079E+02  0.98974488364E+02  0.00000000000E+00 0. -1.
         -5    1    3    3    0  503  0.40106456046E+01 -0.13341050676E+02 -0.16203916634E+03  0.16270479507E+03  0.47000000000E+01 0.  1.
         11    1    4    4    0    0  0.24383456111E+01  0.99291483730E+00  0.19664025875E+02  0.19839488975E+02  0.00000000000E+00 0. -1.
        -12    1    4    4    0    0 -0.61583284322E+02  0.23136031314E+02 -0.65204195159E+02  0.92624855839E+02  0.00000000000E+00 0.  1.
</event>
<event>
12    1  0.8344842E-002  0.2516518E+03  0.7818608E-02  0.1112357E+00
         21   -1    0    0  501  502  0.00000000000E+00  0.00000000000E+00  0.26610053270E+03  0.26610053270E+03  0.00000000000E+00 0. -1.
         21   -1    0    0  502  503 -0.00000000000E+00 -0.00000000000E+00 -0.41635649860E+03  0.41635649860E+03  0.00000000000E+00 0.  1.
         -6    2    1    2    0  503  0.18319700122E+03  0.19663130624E+02 -0.29886425076E+03  0.39070250344E+03  0.17140835992E+03 0.  0.
        -24    2    3    3    0    0  0.13422447554E+03  0.41772517653E+02 -0.11392280026E+03  0.19805629046E+03  0.80540280006E+02 0.  0.
          6    2    1    2  501    0 -0.18319700122E+03 -0.19663130624E+02  0.14860828487E+03  0.29175452786E+03  0.17055351721E+03 0.  0.
         24    2    5    5    0    0 -0.16459708835E+03  0.93802074852E+01  0.55183825018E+02  0.19205652414E+03  0.81610441335E+02 0.  0.
          5    1    5    5  501    0 -0.18599912864E+02 -0.29043338109E+02  0.93424459848E+02  0.99698003716E+02  0.47000000000E+01 0. -1.
        -11    1    6    6    0    0 -0.20855408251E+02  0.27083500824E+02 -0.62294424797E+01  0.34745791455E+02  0.00000000000E+00 0.  1.
         12    1    6    6    0    0 -0.14374168010E+03 -0.17703293339E+02  0.61413267498E+02  0.15731073269E+03  0.00000000000E+00 0. -1.
         -5    1    3    3    0  503  0.48972525674E+02 -0.22109387029E+02 -0.18494145050E+03  0.19264621299E+03  0.47000000000E+01 0.  1.
         13    1    4    4    0    0  0.40816237657E+02  0.42565792233E+02 -0.12712925884E+02  0.60327691895E+02  0.00000000000E+00 0. -1.
        -14    1    4    4    0    0  0.93408237886E+02 -0.79327457977E+00 -0.10120987438E+03  0.13772859856E+03  0.00000000000E+00 0.  1.
</event>
<event>
12    1  0.8344842E-002  0.1775621E+03  0.7818608E-02  0.1170239E+00
         21   -1    0    0  503  502  0.00000000000E+00  0.00000000000E+00  0.13073020454E+04  0.13073020454E+04  0.00000000000E+00 0. -1.
         21   -1    0    0  501  503 -0.00000000000E+00 -0.00000000000E+00 -0.42193292270E+02  0.42193292270E+02  0.00000000000E+00 0. -1.
          6    2    1    2  501    0  0.34326875557E+02  0.32324700296E+02  0.19030489633E+03  0.26012320742E+03  0.17095294333E+03 0.  0.
         24    2    3    3    0    0 -0.35467797462E+02  0.42503220332E+02  0.15008572848E+03  0.17879319995E+03  0.79854831157E+02 0.  0.
         -6    2    1    2    0  502 -0.34326875557E+02 -0.32324700296E+02  0.10748038568E+04  0.10893721303E+04  0.17118728619E+03 0.  0.
        -24    2    5    5    0    0 -0.78805606621E+02 -0.31773952343E+02  0.93227518216E+03  0.93998948758E+03  0.84990080580E+02 0.  0.
          5    1    3    3  501    0  0.69794673019E+02 -0.10178520037E+02  0.40219167853E+02  0.81330007468E+02  0.47000000000E+01 0. -1.
        -13    1    4    4    0    0 -0.38991518489E+01 -0.23584647912E+02  0.38544464788E+02  0.45355427107E+02  0.00000000000E+00 0.  1.
         14    1    4    4    0    0 -0.31568645613E+02  0.66087868244E+02  0.11154126369E+03  0.13343777284E+03  0.00000000000E+00 0. -1.
         -5    1    5    5    0  502  0.44478731064E+02 -0.55074795286E+00  0.14252867466E+03  0.14938264270E+03  0.47000000000E+01 0.  1.
         11    1    6    6    0    0 -0.35589473394E+02  0.24572170558E+02  0.22199649367E+03  0.22616994801E+03  0.00000000000E+00 0. -1.
        -12    1    6    6    0    0 -0.43216133228E+02 -0.56346122901E+02  0.71027868849E+03  0.71381953956E+03  0.00000000000E+00 0.  1.
</event>
<event>
12    1  0.8344842E-002  0.1985392E+03  0.7818608E-02  0.1151120E+00
         21   -1    0    0  501  502  0.00000000000E+00  0.00000000000E+00  0.38154241646E+03  0.38154241646E+03  0.00000000000E+00 0.  1.
         21   -1    0    0  502  503 -0.00000000000E+00 -0.00000000000E+00 -0.10406482825E+03  0.10406482825E+03  0.00000000000E+00 0.  1.
         -6    2    1    2    0  503  0.95477472543E+02 -0.24408709206E+02  0.16346763784E+03  0.25666169656E+03  0.17158620285E+03 0.  0.
        -24    2    3    3    0    0  0.65943370641E+02  0.41312319856E+02  0.42258109308E+02  0.11557535192E+03  0.74274344599E+02 0.  0.
          6    2    1    2  501    0 -0.95477472543E+02  0.24408709206E+02  0.11400995037E+03  0.22894554814E+03  0.17235446726E+03 0.  0.
         24    2    5    5    0    0 -0.17279365261E+02 -0.29690261036E+02  0.97218230167E+01  0.87737382408E+02  0.80145158088E+02 0.  0.
          5    1    5    5  501    0 -0.78198107282E+02  0.54098970242E+02  0.10428812735E+03  0.14120816573E+03  0.47000000000E+01 0. -1.
        -11    1    6    6    0    0  0.23612008169E+02 -0.19502608165E+02 -0.19634961385E+02  0.36378707558E+02  0.00000000000E+00 0.  1.
         12    1    6    6    0    0 -0.40891373430E+02 -0.10187652871E+02  0.29356784402E+02  0.51358674850E+02  0.00000000000E+00 0. -1.
         -5    1    3    3    0  503  0.29534101902E+02 -0.65721029062E+02  0.12120952853E+03  0.14108634464E+03  0.47000000000E+01 0.  1.
         13    1    4    4    0    0  0.51301393934E+02  0.28977464781E+02  0.63739865753E+02  0.86800328173E+02  0.00000000000E+00 0. -1.
        -14    1    4    4    0    0  0.14641976707E+02  0.12334855075E+02 -0.21481756445E+02  0.28775023746E+02  0.00000000000E+00 0.  1.
</event>
<event>
12    1  0.8344842E-002  0.2494742E+03  0.7818608E-02  0.1114483E+00
         21   -1    0    0  501  502  0.00000000000E+00  0.00000000000E+00  0.30135747847E+03  0.30135747847E+03  0.00000000000E+00 0. -1.
         21   -1    0    0  502  503 -0.00000000000E+00 -0.00000000000E+00 -0.25284970131E+03  0.25284970131E+03  0.00000000000E+00 0.  1.
         -6    2    1    2    0  503 -0.64101891037E+02  0.16770526508E+03 -0.99579181413E+02  0.26861382869E+03  0.17321451215E+03 0.  0.
        -24    2    3    3    0    0 -0.92552926320E+02  0.17322890598E+03 -0.74079485445E+02  0.22972557195E+03  0.93336864136E+02 0.  0.
          6    2    1    2  501    0  0.64101891037E+02 -0.16770526508E+03  0.14808695858E+03  0.28559335110E+03  0.16552856709E+03 0.  0.
         24    2    5    5    0    0  0.56628067592E+02 -0.97626200511E+02  0.16250593056E+03  0.21350361479E+03  0.80237167176E+02 0.  0.
          5    1    5    5  501    0  0.74738234445E+01 -0.70079064573E+02 -0.14418971983E+02  0.72089736310E+02  0.47000000000E+01 0. -1.
        -11    1    6    6    0    0 -0.19112925426E+02 -0.36282238194E+02  0.47828597364E+02  0.63002217838E+02  0.00000000000E+00 0.  1.
         12    1    6    6    0    0  0.75740993018E+02 -0.61343962317E+02  0.11467733320E+03  0.15050139695E+03  0.00000000000E+00 0. -1.
         -5    1    3    3    0  503  0.28451035283E+02 -0.55236408963E+01 -0.25499695968E+02  0.38888256735E+02  0.47000000000E+01 0.  1.
         13    1    4    4    0    0 -0.38795196343E+02  0.30142295731E+01 -0.11586873156E+02  0.40600596902E+02  0.00000000000E+00 0. -1.
        -14    1    4    4    0    0 -0.53757729976E+02  0.17021467641E+03 -0.62492612289E+02  0.18912497505E+03  0.00000000000E+00 0.  1.
</event>
<event>
12    1  0.8344842E-002  0.3215489E+03  0.7818608E-02  0.1074992E+00
         21   -1    0    0  501  502  0.00000000000E+00  0.00000000000E+00  0.41799524355E+03  0.41799524355E+03  0.00000000000E+00 0.  1.
         21   -1    0    0  502  503 -0.00000000000E+00 -0.00000000000E+00 -0.26412820592E+03  0.26412820592E+03  0.00000000000E+00 0.  1.
         -6    2    1    2    0  503 -0.13897964310E+03  0.23282709777E+03 -0.98674459663E+01  0.32170027657E+03  0.17282911445E+03 0.  0.
        -24    2    3    3    0    0 -0.13822938554E+02  0.13888935223E+03 -0.28519454780E+02  0.16403452835E+03  0.81318149236E+02 0.  0.
          6    2    1    2  501    0  0.13897964310E+03 -0.23282709777E+03  0.16373448359E+03  0.36042317290E+03  0.17196535639E+03 0.  0.
         24    2    5    5    0    0  0.11358498260E+03 -0.21323472888E+03  0.19094827180E+03  0.31809788531E+03  0.79714642724E+02 0.  0.
          5    1    5    5  501    0  0.25394660500E+02 -0.19592368894E+02 -0.27213788214E+02  0.42325287592E+02  0.47000000000E+01 0. -1.
        -13    1    6    6    0    0  0.60903350739E+02 -0.48977248096E+02  0.85887944612E+02  0.11612376153E+03  0.00000000000E+00 0.  1.
         14    1    6    6    0    0  0.52681631857E+02 -0.16425748078E+03  0.10506032719E+03  0.20197412378E+03  0.00000000000E+00 0. -1.
         -5    1    3    3    0  503 -0.12515670454E+03  0.93937745540E+02  0.18652008813E+02  0.15766574822E+03  0.47000000000E+01 0.  1.
         13    1    4    4    0    0  0.82645762625E+01  0.22052562686E+02 -0.38048423988E+02  0.44747081579E+02  0.00000000000E+00 0. -1.
        -14    1    4    4    0    0 -0.22087514817E+02  0.11683678954E+03  0.95289692087E+01  0.11928744677E+03  0.00000000000E+00 0.  1.
</event>
<event>
12    1  0.8344842E-002  0.1776678E+03  0.7818608E-02  0.1170158E+00
         21   -1    0    0  501  502  0.00000000000E+00  0.00000000000E+00  0.24019747629E+03  0.24019747629E+03  0.00000000000E+00 0. -1.
         21   -1    0    0  502  503 -0.00000000000E+00 -0.00000000000E+00 -0.13182756375E+03  0.13182756375E+03  0.00000000000E+00 0. -1.
         -6    2    1    2    0  503  0.40741395907E+02 -0.27107787368E+00  0.41201680463E+02  0.18238267190E+03  0.17293329845E+03 0.  0.
        -24    2    3    3    0    0  0.13220441852E+02  0.61741584137E+02 -0.24860488858E+01  0.10155148449E+03  0.79496668287E+02 0.  0.
          6    2    1    2  501    0 -0.40741395907E+02  0.27107787368E+00  0.67168232079E+02  0.18964236815E+03  0.17260568233E+03 0.  0.
         24    2    5    5    0    0 -0.31281251657E+02  0.67583105317E+02  0.46251396886E+02  0.11836819778E+03  0.79535185305E+02 0.  0.
          5    1    5    5  501    0 -0.94601442505E+01 -0.67312027443E+02  0.20916835193E+02  0.71274170372E+02  0.47000000000E+01 0. -1.
        -11    1    6    6    0    0  0.70720743143E+01  0.27494842835E+01  0.42258162768E+02  0.42933975119E+02  0.00000000000E+00 0.  1.
         12    1    6    6    0    0 -0.38353325971E+02  0.64833621034E+02  0.39932341178E+01  0.75434222659E+02  0.00000000000E+00 0. -1.
         -5    1    3    3    0  503  0.27520954055E+02 -0.62012662011E+02  0.43687729349E+02  0.80831187406E+02  0.47000000000E+01 0.  1.
         13    1    4    4    0    0  0.10372296582E+02  0.34344175681E+02  0.38208060268E+02  0.52411475929E+02  0.00000000000E+00 0. -1.
        -14    1    4    4    0    0  0.28481452698E+01  0.27397408457E+02 -0.40694109154E+02  0.49140008562E+02  0.00000000000E+00 0.  1.
</event>
<event>
12    1  0.8344842E-002  0.2021437E+03  0.7818608E-02  0.1148728E+00
         21   -1    0    0  503  502  0.00000000000E+00  0.00000000000E+00  0.75853843726E+03  0.75853843726E+03  0.00000000000E+00 0.  1.
         21   -1    0    0  501  503 -0.00000000000E+00 -0.00000000000E+00 -0.54796564174E+02  0.54796564174E+02  0.00000000000E+00 0. -1.
          6    2    1    2  501    0 -0.84437907664E+02 -0.63698946559E+02  0.27261488601E+03  0.33717057970E+03  0.16786246663E+03 0.  0.
         24    2    3    3    0    0 -0.32738838962E+02  0.27225170341E+02  0.13332550760E+03  0.16291900962E+03  0.83389874944E+02 0.  0.
         -6    2    1    2    0  502  0.84437907664E+02  0.63698946559E+02  0.43112698708E+03  0.47616442173E+03  0.17226363949E+03 0.  0.
        -24    2    5    5    0    0  0.64736985507E+02 -0.30298210588E+02  0.24847033871E+03  0.26974462355E+03  0.76914198041E+02 0.  0.
          5    1    3    3  501    0 -0.51699068702E+02 -0.90924116900E+02  0.13928937841E+03  0.17425157008E+03  0.47000000000E+01 0. -1.
        -11    1    4    4    0    0  0.24620023560E+02  0.11432433894E+01  0.67211237468E+02  0.71587729448E+02  0.00000000000E+00 0.  1.
         12    1    4    4    0    0 -0.57358862522E+02  0.26081926952E+02  0.66114270131E+02  0.91331280174E+02  0.00000000000E+00 0. -1.
         -5    1    5    5    0  502  0.19700922157E+02  0.93997157147E+02  0.18265664837E+03  0.20641979818E+03  0.47000000000E+01 0.  1.
         11    1    6    6    0    0  0.23871367844E+02 -0.51383031451E+02  0.10831321505E+03  0.12223669939E+03  0.00000000000E+00 0. -1.
        -12    1    6    6    0    0  0.40865617663E+02  0.21084820863E+02  0.14015712366E+03  0.14750792416E+03  0.00000000000E+00 0.  1.
</event>
<event>
12    1  0.8344842E-002  0.2004515E+03  0.7818608E-02  0.1149666E+00
         21   -1    0    0  503  502  0.00000000000E+00  0.00000000000E+00  0.23238486700E+04  0.23238486700E+04  0.00000000000E+00 0.  1.
         21   -1    0    0  501  503 -0.00000000000E+00 -0.00000000000E+00 -0.22358118415E+02  0.22358118415E+02  0.00000000000E+00 0.  1.
          6    2    1    2  501    0  0.99405896078E+02  0.83723020238E+00  0.58860972216E+03  0.62180559535E+03  0.17406481627E+03 0.  0.
         24    2    3    3    0    0  0.72006994850E+02 -0.38879390629E+02  0.54549176775E+03  0.55692603192E+03  0.76868212057E+02 0.  0.
         -6    2    1    2    0  502 -0.99405896078E+02 -0.83723020238E+00  0.17128808294E+04  0.17244011930E+04  0.17238476059E+03 0.  0.
        -24    2    5    5    0    0 -0.12597956536E+02  0.35632573413E+02  0.49498088368E+03  0.50285789346E+03  0.80197238187E+02 0.  0.
          5    1    3    3  501    0  0.27398901228E+02  0.39716620831E+02  0.43117954403E+02  0.64879563428E+02  0.47000000000E+01 0. -1.
        -11    1    4    4    0    0  0.18407580580E+02 -0.26872838665E+01  0.19414892138E+02  0.26888632433E+02  0.00000000000E+00 0.  1.
         12    1    4    4    0    0  0.53599414270E+02 -0.36192106762E+02  0.52607687561E+03  0.53003739949E+03  0.00000000000E+00 0. -1.
         -5    1    5    5    0  502 -0.86807939542E+02 -0.36469803616E+02  0.12178999457E+04  0.12215432996E+04  0.47000000000E+01 0.  1.
         13    1    6    6    0    0  0.25527863231E+02 -0.20415306118E+01  0.28484360449E+03  0.28599251506E+03  0.00000000000E+00 0. -1.
        -14    1    6    6    0    0 -0.38125819767E+02  0.37674104025E+02  0.21013727919E+03  0.21686537841E+03  0.00000000000E+00 0.  1.
</event>
<event>
12    1  0.8344842E-002  0.3124949E+03  0.7818608E-02  0.1079178E+00
         21   -1    0    0  501  502  0.00000000000E+00  0.00000000000E+00  0.14468464194E+04  0.14468464194E+04  0.00000000000E+00 0.  1.
         21   -1    0    0  502  503 -0.00000000000E+00 -0.00000000000E+00 -0.72758930025E+02  0.72758930025E+02  0.00000000000E+00 0.  1.
         -6    2    1    2    0  503  0.25976244823E+03  0.30393197433E+02  0.48169275845E+03  0.57407829837E+03  0.17069769520E+03 0.  0.
        -24    2    3    3    0    0  0.14428271452E+03  0.70510401678E+01  0.39361754171E+03  0.42690574995E+03  0.80290294066E+02 0.  0.
          6    2    1    2  501    0 -0.25976244823E+03 -0.30393197433E+02  0.89239473095E+03  0.94552705109E+03  0.17103441918E+03 0.  0.
         24    2    5    5    0    0 -0.19175466921E+03 -0.21932494700E+02  0.81957891933E+03  0.84542273589E+03  0.76020456876E+02 0.  0.
          5    1    5    5  501    0 -0.68007779025E+02 -0.84607027329E+01  0.72815811620E+02  0.10010431519E+03  0.47000000000E+01 0. -1.
        -11    1    6    6    0    0 -0.17233732044E+03 -0.39673552369E+02  0.64219666997E+03  0.66610112272E+03  0.00000000000E+00 0.  1.
         12    1    6    6    0    0 -0.19417348767E+02  0.17741057670E+02  0.17738224936E+03  0.17932161317E+03  0.00000000000E+00 0. -1.
         -5    1    3    3    0  503  0.11547973371E+03  0.23342157265E+02  0.88075216744E+02  0.14717254842E+03  0.47000000000E+01 0.  1.
         11    1    4    4    0    0  0.72664815825E+02 -0.35176850497E+02  0.22165454210E+03  0.23589896630E+03  0.00000000000E+00 0. -1.
        -12    1    4    4    0    0  0.71617898699E+02  0.42227890665E+02  0.17196299961E+03  0.19100678364E+03  0.00000000000E+00 0.  1.
</event>
<event>
12    1  0.8344842E-002  0.2672250E+03  0.7818608E-02  0.1102991E+00
         21   -1    0    0  501  502  0.00000000000E+00  0.00000000000E+00  0.41515939207E+03  0.41515939207E+03  0.00000000000E+00 0. -1.
         21   -1    0    0  502  503 -0.00000000000E+00 -0.00000000000E+00 -0.18231724626E+04  0.18231724626E+04  0.00000000000E+00 0.  1.
         -6    2    1    2    0  503  0.20223076316E+03  0.25003213258E+02 -0.17693296135E+04  0.17893955683E+04  0.17287792334E+03 0.  0.
        -24    2    3    3    0    0  0.16042173066E+03 -0.22306085325E+02 -0.91344598214E+03  0.93117354261E+03  0.80423324133E+02 0.  0.
          6    2    1    2  501    0 -0.20223076316E+03 -0.25003213258E+02  0.36131654291E+03  0.44893628644E+03  0.17167324444E+03 0.  0.
         24    2    5    5    0    0 -0.88955757342E+02  0.29231263605E+01  0.77045619955E+02  0.14162023572E+03  0.78731138564E+02 0.  0.
          5    1    5    5  501    0 -0.11327500581E+03 -0.27926339619E+02  0.28427092296E+03  0.30731605071E+03  0.47000000000E+01 0. -1.
        -13    1    6    6    0    0 -0.25116126765E+02  0.12137771261E+02 -0.13065272752E+02  0.30803354800E+02  0.00000000000E+00 0.  1.
         14    1    6    6    0    0 -0.63839630577E+02 -0.92146449004E+01  0.90110892707E+02  0.11081688092E+03  0.00000000000E+00 0. -1.
         -5    1    3    3    0  503  0.41809032493E+02  0.47309298583E+02 -0.85588363133E+03  0.85822202565E+03  0.47000000000E+01 0.  1.
         13    1    4    4    0    0  0.28568435760E+02  0.11379963159E+02 -0.65295229185E+02  0.72174275456E+02  0.00000000000E+00 0. -1.
        -14    1    4    4    0    0  0.13185329490E+03 -0.33686048484E+02 -0.84815075296E+03  0.85899926716E+03  0.00000000000E+00 0.  1.
</event>
<event>
12    1  0.8344842E-002  0.2284947E+03  0.7818608E-02  0.1128203E+00
         21   -1    0    0  501  502  0.00000000000E+00  0.00000000000E+00  0.20279720097E+04  0.20279720097E+04  0.00000000000E+00 0.  1.
         21   -1    0    0  502  503 -0.00000000000E+00 -0.00000000000E+00 -0.35642512182E+02  0.35642512182E+02  0.00000000000E+00 0.  1.
         -6    2    1    2    0  503 -0.74410456337E+02  0.12953558258E+03  0.44825978907E+03  0.50313683314E+03  0.17289722726E+03 0.  0.
        -24    2    3    3    0    0 -0.43459643994E+02  0.54433929601E+01  0.25831207274E+03  0.27409742769E+03  0.80535096441E+02 0.  0.
          6    2    1    2  501    0  0.74410456337E+02 -0.12953558258E+03  0.15440697084E+04  0.15604776887E+04  0.16918324196E+03 0.  0.
         24    2    5    5    0    0  0.96487053267E+02 -0.14523479184E+03  0.11901069699E+04  0.12054487440E+04  0.79681732386E+02 0.  0.
          5    1    5    5  501    0 -0.22076596930E+02  0.15699209265E+02  0.35396273853E+03  0.35502894469E+03  0.47000000000E+01 0. -1.
        -11    1    6    6    0    0 -0.57866637991E+01 -0.54004149329E+02  0.30613784077E+03  0.31091849604E+03  0.00000000000E+00 0.  1.
         12    1    6    6    0    0  0.10227371707E+03 -0.91230642514E+02  0.88396912911E+03  0.89453024799E+03  0.00000000000E+00 0. -1.
         -5    1    3    3    0  503 -0.30950812344E+02  0.12409218962E+03  0.18994771633E+03  0.22903940545E+03  0.47000000000E+01 0.  1.
         11    1    4    4    0    0 -0.12199556015E+02  0.17931136704E+01 -0.14681244809E+01  0.12417721735E+02  0.00000000000E+00 0. -1.
        -12    1    4    4    0    0 -0.31260087979E+02  0.36502792897E+01  0.25978019723E+03  0.26167970596E+03  0.00000000000E+00 0.  1.
</event>
<event>
12    1  0.8344842E-002  0.1988874E+03  0.7818608E-02  0.1150849E+00
         21   -1    0    0  501  502  0.00000000000E+00  0.00000000000E+00  0.10446278267E+04  0.10446278267E+04  0.00000000000E+00 0. -1.
         21   -1    0    0  502  503 -0.00000000000E+00 -0.00000000000E+00 -0.65575164702E+02  0.65575164702E+02  0.00000000000E+00 0.  1.
         -6    2    1    2    0  503 -0.95709685229E+02  0.27407007554E+02  0.12827281824E+03  0.23666452628E+03  0.17217634620E+03 0.  0.
        -24    2    3    3    0    0 -0.74425273751E+02  0.72157330397E+02  0.13326547941E+03  0.18663819089E+03  0.79550767403E+02 0.  0.
          6    2    1    2  501    0  0.95709685229E+02 -0.27407007554E+02  0.85077984377E+03  0.87353846514E+03  0.17126476459E+03 0.  0.
         24    2    5    5    0    0  0.59225843466E+02  0.48856867720E+02  0.41116663511E+03  0.42584536422E+03  0.79947347283E+02 0.  0.
          5    1    5    5  501    0  0.36483841763E+02 -0.76263875274E+02  0.43961320866E+03  0.44769310092E+03  0.47000000000E+01 0. -1.
        -11    1    6    6    0    0  0.24405748000E+02  0.54024598337E+02  0.35232905357E+03  0.35728148532E+03  0.00000000000E+00 0.  1.
         12    1    6    6    0    0  0.34820095466E+02 -0.51677306170E+01  0.58837581540E+02  0.68563878898E+02  0.00000000000E+00 0. -1.
         -5    1    3    3    0  503 -0.21284411478E+02 -0.44750322843E+02 -0.49926611734E+01  0.50026335386E+02  0.47000000000E+01 0.  1.
         13    1    4    4    0    0 -0.47967489128E+02  0.66493932032E+02  0.43359343196E+02  0.92748884913E+02  0.00000000000E+00 0. -1.
        -14    1    4    4    0    0 -0.26457784624E+02  0.56633983654E+01  0.89906136217E+02  0.93889305982E+02  0.00000000000E+00 0.  1.
</event>
<event>
12    1  0.8344842E-002  0.3415999E+03  0.7818608E-02  0.1066223E+00
         21   -1    0    0  503  502  0.00000000000E+00  0.00000000000E+00  0.30326912529E+03  0.30326912529E+03  0.00000000000E+00 0.  1.
         21   -1    0    0  501  503 -0.00000000000E+00 -0.00000000000E+00 -0.46321136893E+03  0.46321136893E+03  0.00000000000E+00 0.  1.
          6    2    1    2  501    0  0.27574428243E+03  0.10442565183E+03 -0.23890286150E+03  0.41685140840E+03  0.17248447292E+03 0.  0.
         24    2    3    3    0    0  0.20099659884E+03  0.89721673484E+02 -0.93554278785E+02  0.25268160704E+03  0.81522880347E+02 0.  0.
         -6    2    1    2    0  502 -0.27574428243E+03 -0.10442565183E+03  0.78960617850E+02  0.34962908582E+03  0.17048780727E+03 0.  0.
        -24    2    5    5    0    0 -0.17462444022E+03 -0.68945506326E+02 -0.19372741422E+02  0.20411069262E+03  0.77709032725E+02 0.  0.
          5    1    3    3  501    0  0.74747683589E+02  0.14703978351E+02 -0.14534858271E+03  0.16416980136E+03  0.47000000000E+01 0. -1.
        -13    1    4    4    0    0  0.10782190711E+03  0.48607956926E+01 -0.53349130277E+02  0.12039651444E+03  0.00000000000E+00 0.  1.
         14    1    4    4    0    0  0.93174691733E+02  0.84860877791E+02 -0.40205148508E+02  0.13228509261E+03  0.00000000000E+00 0. -1.
         -5    1    5    5    0  502 -0.10111984221E+03 -0.35480145508E+02  0.98333359272E+02  0.14551839320E+03  0.47000000000E+01 0.  1.
         11    1    6    6    0    0 -0.10143353904E+03 -0.70195377783E+02 -0.37063798599E+02  0.12880170446E+03  0.00000000000E+00 0. -1.
        -12    1    6    6    0    0 -0.73190901183E+02  0.12498714574E+01  0.17691057176E+02  0.75308988166E+02  0.00000000000E+00 0.  1.
</event>
<event>
12    1  0.8344842E-002  0.2579973E+03  0.7818608E-02  0.1108438E+00
         21   -1    0    0  501  502  0.00000000000E+00  0.00000000000E+00  0.80594578494E+03  0.80594578494E+03  0.00000000000E+00 0.  1.
         21   -1    0    0  502  503 -0.00000000000E+00 -0.00000000000E+00 -0.13140068646E+03  0.13140068646E+03  0.00000000000E+00 0. -1.
         -6    2    1    2    0  503  0.14999736841E+03 -0.11917711606E+03  0.51330776037E+02  0.26305410973E+03  0.17280110114E+03 0.  0.
        -24    2    3    3    0    0  0.15052017409E+03 -0.96238425124E+02 -0.99741972640E+01  0.19742754027E+03  0.83426565125E+02 0.  0.
          6    2    1    2  501    0 -0.14999736841E+03  0.11917711606E+03  0.62321432244E+03  0.67429236166E+03  0.17196424563E+03 0.  0.
         24    2    5    5    0    0 -0.36222521452E+02  0.11261297229E+03  0.37153605922E+03  0.39797399100E+03  0.79690034674E+02 0.  0.
          5    1    5    5  501    0 -0.11377484695E+03  0.65641437665E+01  0.25167826323E+03  0.27631837066E+03  0.47000000000E+01 0. -1.
        -11    1    6    6    0    0 -0.58622812007E+02  0.82777443037E+02  0.30824129678E+03  0.32450182774E+03  0.00000000000E+00 0.  1.
         12    1    6    6    0    0  0.22400290555E+02  0.29835529255E+02  0.63294762432E+02  0.73472163261E+02  0.00000000000E+00 0. -1.
         -5    1    3    3    0  503 -0.52280568267E+00 -0.22938690934E+02  0.61304973301E+02  0.65626569459E+02  0.47000000000E+01 0.  1.
         11    1    4    4    0    0  0.11595833442E+03 -0.44358675861E+02 -0.36903214241E+02  0.12952171504E+03  0.00000000000E+00 0. -1.
        -12    1    4    4    0    0  0.34561839667E+02 -0.51879749263E+02  0.26929016977E+02  0.67905825230E+02  0.00000000000E+00 0.  1.
</event>
<event>
12    1  0.8344842E-002  0.3117895E+03  0.7818608E-02  0.1079775E+00
         21   -1    0    0  503  502  0.00000000000E+00  0.00000000000E+00  0.83942603599E+02  0.83942603599E+02  0.00000000000E+00 0. -1.
         21   -1    0    0  501  503 -0.00000000000E+00 -0.00000000000E+00 -0.18836869270E+04  0.18836869270E+04  0.00000000000E+00 0.  1.
          6    2    1    2  501    0  0.20922215463E+03 -0.15073975897E+03 -0.15120670750E+04  0.15433997964E+04  0.17099622042E+03 0.  0.
         24    2    3    3    0    0  0.21917275832E+03 -0.93694449121E+02 -0.12081125223E+04  0.12339427849E+04  0.79142795253E+02 0.  0.
         -6    2    1    2    0  502 -0.20922215463E+03  0.15073975897E+03 -0.28767724847E+03  0.42422973423E+03  0.17526061508E+03 0.  0.
        -24    2    5    5    0    0 -0.17846229574E+03  0.13283967117E+03 -0.30197052567E+03  0.38559076640E+03  0.89436410489E+02 0.  0.
          5    1    3    3  501    0 -0.99506036841E+01 -0.57045309847E+02 -0.30395455265E+03  0.30945701150E+03  0.47000000000E+01 0. -1.
        -11    1    4    4    0    0  0.20387157681E+03 -0.10520319720E+03 -0.10561869939E+04  0.10808155711E+04  0.00000000000E+00 0.  1.
         12    1    4    4    0    0  0.15301181506E+02  0.11508748076E+02 -0.15192552837E+03  0.15312721381E+03  0.00000000000E+00 0. -1.
         -5    1    5    5    0  502 -0.30759858891E+02  0.17900087799E+02  0.14293277202E+02  0.38638967836E+02  0.47000000000E+01 0.  1.
         11    1    6    6    0    0 -0.11976856305E+03  0.37085501153E+02 -0.18449869639E+03  0.22306862635E+03  0.00000000000E+00 0. -1.
        -12    1    6    6    0    0 -0.58693732694E+02  0.95754170016E+02 -0.11747182928E+03  0.16252214005E+03  0.00000000000E+00 0.  1.
</event>
<event>
12    1  0.8344842E-002  0.2929548E+03  0.7818608E-02  0.1088949E+00
         21   -1    0    0  503  502  0.00000000000E+00  0.00000000000E+00  0.14200231902E+03  0.14200231902E+03  0.00000000000E+00 0. -1.
         21   -1    0    0  501  503 -0.00000000000E+00 -0.00000000000E+00 -0.61018986531E+03  0.61018986531E+03  0.00000000000E+00 0.  1.
          6    2    1    2  501    0  0.23305077001E+03  0.35470883055E+02 -0.19079204865E+03  0.34874360782E+03  0.17219074662E+03 0.  0.
         24    2    3    3    0    0  0.24762338281E+03  0.96888952595E+01 -0.15567356373E+03  0.30256493394E+03  0.76811889688E+02 0.  0.
         -6    2    1    2    0  502 -0.23305077001E+03 -0.35470883055E+02 -0.27739549764E+03  0.40344857651E+03  0.17393000556E+03 0.  0.
        -24    2    5    5    0    0 -0.73721677947E+02 -0.64504928631E+02 -0.86288931770E+02  0.15290407967E+03  0.79612224041E+02 0.  0.
          5    1    3    3  501    0 -0.14572612803E+02  0.25781987795E+02 -0.35118484913E+02  0.46178673878E+02  0.47000000000E+01 0. -1.
        -11    1    4    4    0    0  0.70036913200E+02 -0.30396080837E+02 -0.58617225728E+02  0.96255234106E+02  0.00000000000E+00 0.  1.
         12    1    4    4    0    0  0.17758646961E+03  0.40084976097E+02 -0.97056338007E+02  0.20630969983E+03  0.00000000000E+00 0. -1.
         -5    1    5    5    0  502 -0.15932909206E+03  0.29034045577E+02 -0.19110656587E+03  0.25054449684E+03  0.47000000000E+01 0.  1.
         13    1    6    6    0    0  0.13975838278E+02 -0.11985462071E+02 -0.32603840242E+02  0.37443100235E+02  0.00000000000E+00 0. -1.
        -14    1    6    6    0    0 -0.87697516226E+02 -0.52519466561E+02 -0.53685091528E+02  0.11546097944E+03  0.00000000000E+00 0.  1.
</event>
<event>
12    1  0.8344842E-002  0.1795807E+03  0.7818608E-02  0.1168496E+00
         21   -1    0    0  501  502  0.00000000000E+00  0.00000000000E+00  0.25437695978E+02  0.25437695978E+02  0.00000000000E+00 0. -1.
         21   -1    0    0  502  503 -0.00000000000E+00 -0.00000000000E+00 -0.14642578503E+04  0.14642578503E+04  0.00000000000E+00 0. -1.
         -6    2    1    2    0  503 -0.21834311581E+01  0.48007581057E+02 -0.99592290494E+03  0.10117759017E+04  0.17180962535E+03 0.  0.
        -24    2    3    3    0    0 -0.48523477523E+02 -0.15545794607E+02 -0.62151366481E+03  0.62916539402E+03  0.83508430005E+02 0.  0.
          6    2    1    2  501    0  0.21834311581E+01 -0.48007581057E+02 -0.44289724939E+03  0.47791964464E+03  0.17303097411E+03 0.  0.
         24    2    5    5    0    0 -0.11788439322E+02  0.36507631895E+02 -0.21913620797E+03  0.23827589228E+03  0.85340193999E+02 0.  0.
          5    1    5    5  501    0  0.13971870480E+02 -0.84515212952E+02 -0.22376104142E+03  0.23964375235E+03  0.47000000000E+01 0. -1.
        -13    1    6    6    0    0 -0.14103227671E+02  0.35653018910E+01 -0.19913903360E+03  0.19966964494E+03  0.00000000000E+00 0.  1.
         14    1    6    6    0    0  0.23147883491E+01  0.32942330004E+02 -0.19997174376E+02  0.38606247347E+02  0.00000000000E+00 0. -1.
         -5    1    3    3    0  503  0.46340046365E+02  0.63553375664E+02 -0.37440924013E+03  0.38261050763E+03  0.47000000000E+01 0.  1.
         13    1    4    4    0    0 -0.43683949902E+02 -0.46894470960E+02 -0.47142959271E+03  0.47576595062E+03  0.00000000000E+00 0. -1.
        -14    1    4    4    0    0 -0.48395276211E+01  0.31348676353E+02 -0.15008407210E+03  0.15339944340E+03  0.00000000000E+00 0.  1.
</event>
<event>
12    1  0.8344842E-002  0.2030678E+03  0.7818608E-02  0.1148618E+00
         21   -1    0    0  503  502  0.00000000000E+00  0.00000000000E+00  0.36014927493E+03  0.36014927493E+03  0.00000000000E+00 0.  1.
         21   -1    0    0  501  503 -0.00000000000E+00 -0.00000000000E+00 -0.22174460620E+03  0.22174460620E+03  0.00000000000E+00 0.  1.
          6    2    1    2  501    0 -0.76762915213E+02  0.78534669092E+02 -0.13610771652E+03  0.24446231212E+03  0.17081063242E+03 0.  0.
         24    2    3    3    0    0  0.13205205297E+02  0.48513555900E+02 -0.11230303617E+03  0.14656296201E+03  0.79629060941E+02 0.  0.
         -6    2    1    2    0  502  0.76762915213E+02 -0.78534669092E+02  0.27451238525E+03  0.33743156901E+03  0.16261234490E+03 0.  0.
        -24    2    5    5    0    0  0.32935231150E+01 -0.90225424166E+02  0.14749421347E+03  0.19015587078E+03  0.79077416017E+02 0.  0.
          5    1    3    3  501    0 -0.89968120510E+02  0.30021113191E+02 -0.23804680351E+02  0.97899350110E+02  0.47000000000E+01 0. -1.
        -11    1    4    4    0    0 -0.12791969399E+02 -0.12653675315E+02 -0.58031348612E+02  0.60756788937E+02  0.00000000000E+00 0.  1.
         12    1    4    4    0    0  0.25997174696E+02  0.61167231216E+02 -0.54271687559E+02  0.85806173072E+02  0.00000000000E+00 0. -1.
         -5    1    5    5    0  502  0.73469392098E+02  0.11690755074E+02  0.12701817178E+03  0.14727569824E+03  0.47000000000E+01 0.  1.
         11    1    6    6    0    0 -0.29363383567E+02 -0.16382511102E+02  0.19637222743E+02  0.38938611706E+02  0.00000000000E+00 0. -1.
        -12    1    6    6    0    0  0.32656906682E+02 -0.73842913063E+02  0.12785699072E+03  0.15121725907E+03  0.00000000000E+00 0.  1.
</event>
<event>
12    1  0.8344842E-002  0.2150188E+03  0.7818608E-02  0.1138002E+00
         21   -1    0    0  501  502  0.00000000000E+00  0.00000000000E+00  0.58689056882E+02  0.58689056882E+02  0.00000000000E+00 0. -1.
         21   -1    0    0  502  503 -0.00000000000E+00 -0.00000000000E+00 -0.98111741191E+03  0.98111741191E+03  0.00000000000E+00 0.  1.
         -6    2    1    2    0  503  0.12565666337E+03  0.36275656696E+01 -0.22494161996E+03  0.30992920995E+03  0.17220518722E+03 0.  0.
        -24    2    3    3    0    0  0.14633149403E+03  0.36791371285E+02 -0.20247756966E+03  0.26460802085E+03  0.79080511731E+02 0.  0.
          6    2    1    2  501    0 -0.12565666337E+03 -0.36275656696E+01 -0.69748673507E+03  0.72987725885E+03  0.17444285915E+03 0.  0.
         24    2    5    5    0    0 -0.59878282596E+02 -0.44156642523E+02 -0.21826693394E+03  0.24444640977E+03  0.81107182119E+02 0.  0.
          5    1    5    5  501    0 -0.65778380774E+02  0.40529076854E+02 -0.47921980112E+03  0.48543084908E+03  0.47000000000E+01 0. -1.
        -13    1    6    6    0    0  0.20213442644E+01 -0.28552022511E+02 -0.14261989886E+03  0.14546387653E+03  0.00000000000E+00 0.  1.
         14    1    6    6    0    0 -0.61899626860E+02 -0.15604620012E+02 -0.75647035078E+02  0.98982533244E+02  0.00000000000E+00 0. -1.
         -5    1    3    3    0  503 -0.20674830655E+02 -0.33163805615E+02 -0.22464050304E+02  0.45321189101E+02  0.47000000000E+01 0.  1.
         13    1    4    4    0    0  0.12670666605E+03  0.23802867109E+02 -0.11091194548E+03  0.17006650274E+03  0.00000000000E+00 0. -1.
        -14    1    4    4    0    0  0.19624827970E+02  0.12988504176E+02 -0.91565624179E+02  0.94541518101E+02  0.00000000000E+00 0.  1.
</event>
<event>
12    1  0.8344842E-002  0.2807760E+03  0.7818608E-02  0.1095359E+00
         21   -1    0    0  503  502  0.00000000000E+00  0.00000000000E+00  0.79358504306E+03  0.79358504306E+03  0.00000000000E+00 0.  1.
         21   -1    0    0  501  503 -0.00000000000E+00 -0.00000000000E+00 -0.99319453878E+02  0.99319453878E+02  0.00000000000E+00 0. -1.
          6    2    1    2  501    0  0.15534139814E+03 -0.15798877305E+03  0.36858464929E+03  0.46334633540E+03  0.17246385259E+03 0.  0.
         24    2    3    3    0    0  0.17161807707E+03 -0.13090031991E+03  0.36505625623E+03  0.43120206486E+03  0.77983923979E+02 0.  0.
         -6    2    1    2    0  502 -0.15534139814E+03  0.15798877305E+03  0.32568093989E+03  0.42955816154E+03  0.17134975094E+03 0.  0.
        -24    2    5    5    0    0 -0.88412108401E+02  0.52626640667E+02  0.25515390424E+03  0.28611178994E+03  0.78550475975E+02 0.  0.
          5    1    3    3  501    0 -0.16276678927E+02 -0.27088453144E+02  0.35283930548E+01  0.32144270534E+02  0.47000000000E+01 0. -1.
        -11    1    4    4    0    0  0.18955111732E+02 -0.39408248376E+02  0.12454461208E+03  0.13199873749E+03  0.00000000000E+00 0.  1.
         12    1    4    4    0    0  0.15266296533E+03 -0.91492071534E+02  0.24051164416E+03  0.29920332738E+03  0.00000000000E+00 0. -1.
         -5    1    5    5    0  502 -0.66929289738E+02  0.10536213239E+03  0.70527035652E+02  0.14344637160E+03  0.47000000000E+01 0.  1.
         11    1    6    6    0    0  0.59886946037E+01  0.15504169834E+02  0.70157105968E+01  0.18040619183E+02  0.00000000000E+00 0. -1.
        -12    1    6    6    0    0 -0.94400803005E+02  0.37122470833E+02  0.24813819364E+03  0.26807117076E+03  0.00000000000E+00 0.  1.
</event>
<event>
12    1  0.8344842E-002  0.1866678E+03  0.7818608E-02  0.1161512E+00
         21   -1    0    0  503  502  0.00000000000E+00  0.00000000000E+00  0.78174033098E+02  0.78174033098E+02  0.00000000000E+00 0.  1.
         21   -1    0    0  501  503 -0.00000000000E+00 -0.00000000000E+00 -0.66380585350E+03  0.66380585350E+03  0.00000000000E+00 0. -1.
          6    2    1    2  501    0 -0.62092219732E+02 -0.37242108899E+02 -0.50552871468E+03  0.53889159538E+03  0.17205363051E+03 0.  0.
         24    2    3    3    0    0  0.14934190441E+02 -0.37360496421E+02 -0.39458866666E+03  0.40375142320E+03  0.75472903382E+02 0.  0.
         -6    2    1    2    0  502  0.62092219732E+02  0.37242108899E+02 -0.80103105717E+02  0.20308829122E+03  0.17200560473E+03 0.  0.
        -24    2    5    5    0    0  0.62552728272E+02 -0.16572596704E+02 -0.10207480816E+03  0.14476950938E+03  0.79695982393E+02 0.  0.
          5    1    3    3  501    0 -0.77026410174E+02  0.11838752245E+00 -0.11094004802E+03  0.13514017217E+03  0.47000000000E+01 0. -1.
        -11    1    4    4    0    0  0.26453013474E+02 -0.54269059770E+02 -0.22596657208E+03  0.23389267724E+03  0.00000000000E+00 0.  1.
         12    1    4    4    0    0 -0.11518823033E+02  0.16908563349E+02 -0.16862209458E+03  0.16985874596E+03  0.00000000000E+00 0. -1.
         -5    1    5    5    0  502 -0.46050853970E+00  0.53814705602E+02  0.21971702441E+02  0.58318781840E+02  0.47000000000E+01 0.  1.
         13    1    6    6    0    0  0.68595540128E+02 -0.11932126052E+01 -0.37646899355E+02  0.78256379374E+02  0.00000000000E+00 0. -1.
        -14    1    6    6    0    0 -0.60428118555E+01 -0.15379384099E+02 -0.64427908802E+02  0.66513130004E+02  0.00000000000E+00 0.  1.
</event>
<event>
12    1  0.8344842E-002  0.2383175E+03  0.7818608E-02  0.1121065E+00
         21   -1    0    0  503  502  0.00000000000E+00  0.00000000000E+00  0.88236305749E+03  0.88236305749E+03  0.00000000000E+00 0. -1.
         21   -1    0    0  501  503 -0.00000000000E+00 -0.00000000000E+00 -0.93878971408E+02  0.93878971408E+02  0.00000000000E+00 0.  1.
          6    2    1    2  501    0 -0.16271412834E+03  0.15752800000E+02  0.11898342864E+03  0.26558995993E+03  0.17221188186E+03 0.  0.
         24    2    3    3    0    0 -0.17695668110E+03 -0.20447578342E+02  0.11175944890E+03  0.22574534192E+03  0.82091500995E+02 0.  0.
         -6    2    1    2    0  502  0.16271412834E+03 -0.15752800000E+02  0.66950065744E+03  0.71065206897E+03  0.17341047992E+03 0.  0.
        -24    2    5    5    0    0  0.76396808944E+01  0.64318375747E+01  0.25993018475E+03  0.27212008097E+03  0.79911853100E+02 0.  0.
          5    1    3    3  501    0  0.14242552756E+02  0.36200378342E+02  0.72239797428E+01  0.39844618011E+02  0.47000000000E+01 0. -1.
        -13    1    4    4    0    0 -0.60624900588E+02  0.29021079052E+02  0.22057343124E+02  0.70739861368E+02  0.00000000000E+00 0.  1.
         14    1    4    4    0    0 -0.11633178051E+03 -0.49468657394E+02  0.89702105776E+02  0.15500548055E+03  0.00000000000E+00 0. -1.
         -5    1    5    5    0  502  0.15507444744E+03 -0.22184637575E+02  0.40957047269E+03  0.43853198799E+03  0.47000000000E+01 0.  1.
         11    1    6    6    0    0  0.22059640554E+02  0.33441414025E+02  0.78575878977E+02  0.88199346201E+02  0.00000000000E+00 0. -1.
        -12    1    6    6    0    0 -0.14419959660E+02 -0.27009576450E+02  0.18135430577E+03  0.18392073477E+03  0.00000000000E+00 0.  1.
</event>
<event>
12    1  0.8344842E-002  0.2549637E+03  0.7818608E-02  0.1110694E+00
         21   -1    0    0  503  502  0.00000000000E+00  0.00000000000E+00  0.67072953072E+03  0.67072953072E+03  0.00000000000E+00 0. -1.
         21   -1    0    0  501  503 -0.00000000000E+00 -0.00000000000E+00 -0.12241067961E+03  0.12241067961E+03  0.00000000000E+00 0.  1.
          6    2    1    2  501    0  0.18474040743E+03 -0.34406191152E+02  0.87685897613E+02  0.26665257543E+03  0.16763643762E+03 0.  0.
         24    2    3    3    0    0  0.56908774331E+02  0.19869047186E+01 -0.13949328290E+02  0.99269204120E+02  0.80107644708E+02 0.  0.
         -6    2    1    2    0  502 -0.18474040743E+03  0.34406191152E+02  0.46063295349E+03  0.52648763490E+03  0.17231862271E+03 0.  0.
        -24    2    5    5    0    0 -0.17468163650E+03  0.47120922520E+02  0.26914436807E+03  0.33425649379E+03  0.80960838084E+02 0.  0.
          5    1    3    3  501    0  0.12783163310E+03 -0.36393095871E+02  0.10163522590E+03  0.16738337131E+03  0.47000000000E+01 0. -1.
        -13    1    4    4    0    0  0.47392000697E+02  0.19990983651E+02  0.23570321578E+02  0.56579158854E+02  0.00000000000E+00 0.  1.
         14    1    4    4    0    0  0.95167736343E+01 -0.18004078933E+02 -0.37519649867E+02  0.42690045266E+02  0.00000000000E+00 0. -1.
         -5    1    5    5    0  502 -0.10058770925E+02 -0.12714731368E+02  0.19148858542E+03  0.19223114111E+03  0.47000000000E+01 0.  1.
         11    1    6    6    0    0 -0.46902449286E+02  0.52278575501E+02  0.10042916291E+03  0.12255164612E+03  0.00000000000E+00 0. -1.
        -12    1    6    6    0    0 -0.12777918722E+03 -0.51576529809E+01  0.16871520516E+03  0.21170484766E+03  0.00000000000E+00 0.  1.
</event>
<event>
12    1  0.8344842E-002  0.2067358E+03  0.7818608E-02  0.1144386E+00
         21   -1    0    0  503  502  0.00000000000E+00  0.00000000000E+00  0.22593932505E+03  0.22593932505E+03  0.00000000000E+00 0.  1.
         21   -1    0    0  501  503 -0.00000000000E+00 -0.00000000000E+00 -0.31445204461E+03  0.31445204461E+03  0.00000000000E+00 0.  1.
          6    2    1    2  501    0  0.82251970982E+02 -0.84078354700E+02 -0.21551491369E+03  0.29864088771E+03  0.17001513264E+03 0.  0.
         24    2    3    3    0    0  0.39916845659E+02 -0.79070250513E+01 -0.14776447874E+03  0.18815765037E+03  0.10914707784E+03 0.  0.
         -6    2    1    2    0  502 -0.82251970982E+02  0.84078354700E+02  0.12700219413E+03  0.24175048195E+03  0.16875776056E+03 0.  0.
        -24    2    5    5    0    0  0.55149739039E+01  0.79160485642E+02  0.10008154707E+03  0.14969596936E+03  0.78075410684E+02 0.  0.
          5    1    3    3  501    0  0.42335125323E+02 -0.76171329649E+02 -0.67750434949E+02  0.11048323734E+03  0.47000000000E+01 0. -1.
        -11    1    4    4    0    0  0.73630403235E+02 -0.15724030768E+01 -0.13027914048E+03  0.14965481340E+03  0.00000000000E+00 0.  1.
         12    1    4    4    0    0 -0.33713557576E+02 -0.63346219745E+01 -0.17485338270E+02  0.38502836965E+02  0.00000000000E+00 0. -1.
         -5    1    5    5    0  502 -0.87766944886E+02  0.49178690581E+01  0.26920647062E+02  0.92054512594E+02  0.47000000000E+01 0.  1.
         11    1    6    6    0    0 -0.63895197981E+01  0.65519586210E+02  0.11063544824E+03  0.12873944442E+03  0.00000000000E+00 0. -1.
        -12    1    6    6    0    0  0.11904493702E+02  0.13640899432E+02 -0.10553901174E+02  0.20956524941E+02  0.00000000000E+00 0.  1.
</event>
<event>
12    1  0.8344842E-002  0.2156173E+03  0.7818608E-02  0.1141470E+00
         21   -1    0    0  501  502  0.00000000000E+00  0.00000000000E+00  0.33883280094E+03  0.33883280094E+03  0.00000000000E+00 0. -1.
         21   -1    0    0  502  503 -0.00000000000E+00 -0.00000000000E+00 -0.20657239588E+03  0.20657239588E+03  0.00000000000E+00 0.  1.
         -6    2    1    2    0  503 -0.61894560561E+02  0.77969826447E+02 -0.10401675688E+03  0.23939573442E+03  0.19126055915E+03 0.  0.
        -24    2    3    3    0    0  0.34982039764E+02  0.62658318633E+02 -0.17282545914E+02  0.10838263846E+03  0.79361841752E+02 0.  0.
          6    2    1    2  501    0  0.61894560561E+02 -0.77969826447E+02  0.23627716194E+03  0.30600946240E+03  0.16704688971E+03 0.  0.
         24    2    5    5    0    0 -0.16756635896E+02 -0.79457160494E+02  0.12154787602E+03  0.16682209978E+03  0.80383466019E+02 0.  0.
          5    1    5    5  501    0  0.78651196457E+02  0.14873340474E+01  0.11472928591E+03  0.13918736262E+03  0.47000000000E+01 0. -1.
        -13    1    6    6    0    0 -0.29939261202E+02 -0.99863673443E+01  0.77080871706E+02  0.83291942449E+02  0.00000000000E+00 0.  1.
         14    1    6    6    0    0  0.13182625305E+02 -0.69470793150E+02  0.44467004315E+02  0.83530157330E+02  0.00000000000E+00 0. -1.
         -5    1    3    3    0  503 -0.96876600325E+02  0.15311507814E+02 -0.86734210964E+02  0.13101309596E+03  0.47000000000E+01 0.  1.
         11    1    4    4    0    0 -0.15692771220E+02  0.50468490138E+02  0.17899823601E+01  0.52882280607E+02  0.00000000000E+00 0. -1.
        -12    1    4    4    0    0  0.50674810984E+02  0.12189828494E+02 -0.19072528274E+02  0.55500357852E+02  0.00000000000E+00 0.  1.
</event>
<event>
12    1  0.8344842E-002  0.1822770E+03  0.7818608E-02  0.1167799E+00
         21   -1    0    0  501  502  0.00000000000E+00  0.00000000000E+00  0.96387054564E+03  0.96387054564E+03  0.00000000000E+00 0. -1.
         21   -1    0    0  502  503 -0.00000000000E+00 -0.00000000000E+00 -0.40342238068E+02  0.40342238068E+02  0.00000000000E+00 0. -1.
         -6    2    1    2    0  503  0.18779464471E+02 -0.12372179417E+02  0.25418786140E+03  0.31278807201E+03  0.18088441059E+03 0.  0.
        -24    2    3    3    0    0  0.17137510125E+02  0.64029897435E+02  0.17161185966E+03  0.20017874990E+03  0.78913747326E+02 0.  0.
          6    2    1    2  501    0 -0.18779464471E+02  0.12372179417E+02  0.66934044617E+03  0.69142471170E+03  0.17188880116E+03 0.  0.
         24    2    5    5    0    0  0.23981099371E+02  0.62962924295E+02  0.46650951266E+03  0.47799939250E+03  0.79453576800E+02 0.  0.
          5    1    5    5  501    0 -0.42760563842E+02 -0.50590744878E+02  0.20283093351E+03  0.21342531920E+03  0.47000000000E+01 0. -1.
        -11    1    6    6    0    0  0.31469941660E+01  0.69378752784E+02  0.22417838395E+03  0.23468971588E+03  0.00000000000E+00 0.  1.
         12    1    6    6    0    0  0.20834105205E+02 -0.64158284887E+01  0.24233112871E+03  0.24330967662E+03  0.00000000000E+00 0. -1.
         -5    1    3    3    0  503  0.16419543461E+01 -0.76402076852E+02  0.82576001744E+02  0.11260932211E+03  0.47000000000E+01 0.  1.
         13    1    4    4    0    0  0.30149032753E+02  0.37596505402E+02  0.32848742716E+02  0.58322391004E+02  0.00000000000E+00 0. -1.
        -14    1    4    4    0    0 -0.13011522628E+02  0.26433392032E+02  0.13876311694E+03  0.14185635890E+03  0.00000000000E+00 0.  1.
</event>
<event>
12    1  0.8344842E-002  0.1821543E+03  0.7818608E-02  0.1166285E+00
         21   -1    0    0  501  502  0.00000000000E+00  0.00000000000E+00  0.37006313779E+03  0.37006313779E+03  0.00000000000E+00 0.  1.
         21   -1    0    0  502  503 -0.00000000000E+00 -0.00000000000E+00 -0.11117161664E+03  0.11117161664E+03  0.00000000000E+00 0.  1.
         -6    2    1    2    0  503 -0.44521283286E+02  0.41235584584E+02  0.20213957044E+02  0.18098957783E+03  0.16931067634E+03 0.  0.
        -24    2    3    3    0    0  0.33290791040E+02 -0.10610789147E+02  0.34522827757E+01  0.85880119290E+02  0.78374811122E+02 0.  0.
          6    2    1    2  501    0  0.44521283286E+02 -0.41235584584E+02  0.23867756410E+03  0.30024517660E+03  0.17174885258E+03 0.  0.
         24    2    5    5    0    0  0.64508760166E+02 -0.82573369145E+02  0.15951213957E+03  0.20860694165E+03  0.84219902646E+02 0.  0.
          5    1    5    5  501    0 -0.19987476880E+02  0.41337784561E+02  0.79165424530E+02  0.91638234954E+02  0.47000000000E+01 0. -1.
        -11    1    6    6    0    0 -0.14904644866E+02 -0.40509029577E+02  0.66441782335E+02  0.79231561613E+02  0.00000000000E+00 0.  1.
         12    1    6    6    0    0  0.79413405033E+02 -0.42064339568E+02  0.93070357238E+02  0.12937538003E+03  0.00000000000E+00 0. -1.
         -5    1    3    3    0  503 -0.77812074325E+02  0.51846373731E+02  0.16761674268E+02  0.95109458542E+02  0.47000000000E+01 0.  1.
         11    1    4    4    0    0  0.29515704762E+02 -0.17263372441E+02  0.37636925003E+02  0.50850162038E+02  0.00000000000E+00 0. -1.
        -12    1    4    4    0    0  0.37750862778E+01  0.66525832937E+01 -0.34184642227E+02  0.35029957252E+02  0.00000000000E+00 0.  1.
</event>
<event>
12    1  0.8344842E-002  0.1785132E+03  0.7818608E-02  0.1169515E+00
         21   -1    0    0  503  502  0.00000000000E+00  0.00000000000E+00  0.29158234498E+03  0.29158234498E+03  0.00000000000E+00 0.  1.
         21   -1    0    0  501  503 -0.00000000000E+00 -0.00000000000E+00 -0.27402155814E+03  0.27402155814E+03  0.00000000000E+00 0.  1.
          6    2    1    2  501    0 -0.46832274594E+02 -0.12197294446E+02  0.22849980347E+03  0.28996398018E+03  0.17182815158E+03 0.  0.
         24    2    3    3    0    0 -0.57897391346E+02 -0.38534603315E+01  0.90403788841E+02  0.15109477684E+03  0.10625360922E+03 0.  0.
         -6    2    1    2    0  502  0.46832274594E+02  0.12197294446E+02 -0.21093901664E+03  0.27563992295E+03  0.17070460582E+03 0.  0.
        -24    2    5    5    0    0  0.77216489346E+02  0.34452966812E+02 -0.80157200311E+02  0.13946177147E+03  0.76648651589E+02 0.  0.
          5    1    3    3  501    0  0.11065116753E+02 -0.83438341149E+01  0.13809601463E+03  0.13886920333E+03  0.47000000000E+01 0. -1.
        -13    1    4    4    0    0  0.15804568476E+01  0.10718894411E+02  0.89190075334E+02  0.89845768289E+02  0.00000000000E+00 0.  1.
         14    1    4    4    0    0 -0.59477848194E+02 -0.14572354742E+02  0.12137135067E+01  0.61249008555E+02  0.00000000000E+00 0. -1.
         -5    1    5    5    0  502 -0.30384214752E+02 -0.22255672365E+02 -0.13078181632E+03  0.13617815148E+03  0.47000000000E+01 0.  1.
         13    1    6    6    0    0  0.36339616660E+02  0.56484741986E+02 -0.40763198359E+02  0.78566736961E+02  0.00000000000E+00 0. -1.
        -14    1    6    6    0    0  0.40876872686E+02 -0.22031775174E+02 -0.39394001951E+02  0.60895034507E+02  0.00000000000E+00 0.  1.
</event>
<event>
12    1  0.8344842E-002  0.2434067E+03  0.7818608E-02  0.1117945E+00
         21   -1    0    0  503  502  0.00000000000E+00  0.00000000000E+00  0.68521006505E+03  0.68521006505E+03  0.00000000000E+00 0. -1.
         21   -1    0    0  501  503 -0.00000000000E+00 -0.00000000000E+00 -0.10125810089E+03  0.10125810089E+03  0.00000000000E+00 0. -1.
          6    2    1    2  501    0  0.13266837709E+03 -0.11116848157E+03  0.13859039411E+03  0.28009664554E+03  0.17113592239E+03 0.  0.
         24    2    3    3    0    0  0.15772236841E+03 -0.97711859916E+02  0.85952268377E+02  0.22008293521E+03  0.81392584819E+02 0.  0.
         -6    2    1    2    0  502 -0.13266837709E+03  0.11116848157E+03  0.44536157006E+03  0.50637152040E+03  0.16764802122E+03 0.  0.
        -24    2    5    5    0    0 -0.73943779726E+02  0.12639726561E+03  0.39081078302E+03  0.42465021006E+03  0.78426917988E+02 0.  0.
          5    1    3    3  501    0 -0.25053991327E+02 -0.13456621655E+02  0.52638125731E+02  0.60013710336E+02  0.47000000000E+01 0. -1.
        -11    1    4    4    0    0  0.65004471605E+01 -0.19819457328E+02 -0.11726729111E+02  0.23928704054E+02  0.00000000000E+00 0.  1.
         12    1    4    4    0    0  0.15122192125E+03 -0.77892402588E+02  0.97678997488E+02  0.19615423115E+03  0.00000000000E+00 0. -1.
         -5    1    5    5    0  502 -0.58724597360E+02 -0.15228784035E+02  0.54550787036E+02  0.81721310345E+02  0.47000000000E+01 0.  1.
         13    1    6    6    0    0 -0.87667409197E+02  0.10989495106E+03  0.29951002230E+03  0.33086058751E+03  0.00000000000E+00 0. -1.
        -14    1    6    6    0    0  0.13723629471E+02  0.16502314543E+02  0.91300760717E+02  0.93789622553E+02  0.00000000000E+00 0.  1.
</event>
<event>
12    1  0.8344842E-002  0.2190401E+03  0.7818608E-02  0.1135237E+00
         21   -1    0    0  503  502  0.00000000000E+00  0.00000000000E+00  0.31285184458E+03  0.31285184458E+03  0.00000000000E+00 0. -1.
         21   -1    0    0  501  503 -0.00000000000E+00 -0.00000000000E+00 -0.15474461374E+03  0.15474461374E+03  0.00000000000E+00 0.  1.
          6    2    1    2  501    0 -0.13358750245E+03 -0.24168645545E+02  0.42148277194E+02  0.21975567952E+03  0.16758978839E+03 0.  0.
         24    2    3    3    0    0 -0.15301087559E+03 -0.18370364237E+02  0.86182950376E+00  0.17352205265E+03  0.79745605995E+02 0.  0.
         -6    2    1    2    0  502  0.13358750245E+03  0.24168645545E+02  0.11595895365E+03  0.24784077880E+03  0.17189772676E+03 0.  0.
        -24    2    5    5    0    0  0.62499505609E+02 -0.38241913362E+02  0.13638548460E+02  0.10841288892E+03  0.78731901672E+02 0.  0.
          5    1    3    3  501    0  0.19423373140E+02 -0.57982813076E+01  0.41286447690E+02  0.46233626865E+02  0.47000000000E+01 0. -1.
        -11    1    4    4    0    0 -0.48533989084E+02 -0.20517398785E+02 -0.34752523285E+02  0.63120912731E+02  0.00000000000E+00 0.  1.
         12    1    4    4    0    0 -0.10447688651E+03  0.21470345474E+01  0.35614352789E+02  0.11040113992E+03  0.00000000000E+00 0. -1.
         -5    1    5    5    0  502  0.71087996839E+02  0.62410558907E+02  0.10232040519E+03  0.13942788988E+03  0.47000000000E+01 0.  1.
         13    1    6    6    0    0  0.28651993583E+02  0.45741750563E+01  0.38688601556E+02  0.48359773615E+02  0.00000000000E+00 0. -1.
        -14    1    6    6    0    0  0.33847512026E+02 -0.42816088418E+02 -0.25050053095E+02  0.60053115305E+02  0.00000000000E+00 0.  1.
</event>
<event>
12    1  0.8344842E-002  0.1765987E+03  0.7818608E-02  0.1171358E+00
         21   -1    0    0  503  502  0.00000000000E+00  0.00000000000E+00  0.63688242777E+03  0.63688242777E+03  0.00000000000E+00 0.  1.
         21   -1    0    0  501  503 -0.00000000000E+00 -0.00000000000E+00 -0.92261052188E+02  0.92261052188E+02  0.00000000000E+00 0.  1.
          6    2    1    2  501    0  0.39469009202E+02  0.11309236188E+02  0.22228253638E+02  0.17799213104E+03  0.17175972153E+03 0.  0.
         24    2    3    3    0    0 -0.24515210969E+02  0.17055483303E+02 -0.35217496534E+02  0.91683939076E+02  0.79207244257E+02 0.  0.
         -6    2    1    2    0  502 -0.39469009202E+02 -0.11309236188E+02  0.52239312194E+03  0.55115134892E+03  0.17084359529E+03 0.  0.
        -24    2    5    5    0    0  0.26271444505E+01  0.18391777365E+02  0.10079033869E+03  0.12638643369E+03  0.73957277439E+02 0.  0.
          5    1    3    3  501    0  0.63984220171E+02 -0.57462471156E+01  0.57445750173E+02  0.86308191962E+02  0.47000000000E+01 0. -1.
        -13    1    4    4    0    0 -0.12005815956E+02  0.42597853320E+02  0.26367283859E+01  0.44335866529E+02  0.00000000000E+00 0.  1.
         14    1    4    4    0    0 -0.12509395013E+02 -0.25542370017E+02 -0.37854224920E+02  0.47348072548E+02  0.00000000000E+00 0. -1.
         -5    1    5    5    0  502 -0.42096153653E+02 -0.29701013552E+02  0.42160278325E+03  0.42476491522E+03  0.47000000000E+01 0.  1.
         13    1    6    6    0    0  0.33201727685E+02 -0.92063063672E+01  0.53943071542E+02  0.64007544598E+02  0.00000000000E+00 0. -1.
        -14    1    6    6    0    0 -0.30574583234E+02  0.27598083732E+02  0.46847267144E+02  0.62378889093E+02  0.00000000000E+00 0.  1.
</event>
<event>
12    1  0.8344842E-002  0.2299435E+03  0.7818608E-02  0.1126896E+00
         21   -1    0    0  503  502  0.00000000000E+00  0.00000000000E+00  0.86969856455E+03  0.86969856455E+03  0.00000000000E+00 0.  1.
         21   -1    0    0  501  503 -0.00000000000E+00 -0.00000000000E+00 -0.96028897578E+02  0.96028897578E+02  0.00000000000E+00 0. -1.
          6    2    1    2  501    0 -0.69470565716E+02 -0.13528175699E+03  0.92359978151E+02  0.24666076461E+03  0.17083282460E+03 0.  0.
         24    2    3    3    0    0  0.17670299635E+02 -0.35989109952E+02  0.60126589206E+01  0.88766782117E+02  0.78967930300E+02 0.  0.
         -6    2    1    2    0  502  0.69470565716E+02  0.13528175699E+03  0.68130968883E+03  0.71906669752E+03  0.17247234597E+03 0.  0.
        -24    2    5    5    0    0  0.52960952405E+02  0.23624696657E+01  0.30519135946E+03  0.31978334956E+03  0.79430353303E+02 0.  0.
          5    1    3    3  501    0 -0.87140865351E+02 -0.99292647033E+02  0.86347319230E+02  0.15789398249E+03  0.47000000000E+01 0. -1.
        -13    1    4    4    0    0 -0.41565130890E+01  0.19057242472E+01  0.35647880302E+02  0.35939946522E+02  0.00000000000E+00 0.  1.
         14    1    4    4    0    0  0.21826812724E+02 -0.37894834199E+02 -0.29635221382E+02  0.52826835596E+02  0.00000000000E+00 0. -1.
         -5    1    5    5    0  502  0.16509613311E+02  0.13291928732E+03  0.37611832937E+03  0.39928334796E+03  0.47000000000E+01 0.  1.
         13    1    6    6    0    0  0.62961998015E+02 -0.19111820522E+02  0.16554745636E+03  0.17814442227E+03  0.00000000000E+00 0. -1.
        -14    1    6    6    0    0 -0.10001045610E+02  0.21474290188E+02  0.13964390310E+03  0.14163892729E+03  0.00000000000E+00 0.  1.
</event>
<event>
12    1  0.8344842E-002  0.1950213E+03  0.7818608E-02  0.1154443E+00
         21   -1    0    0  503  502  0.00000000000E+00  0.00000000000E+00  0.17982155444E+04  0.17982155444E+04  0.00000000000E+00 0. -1.
         21   -1    0    0  501  503 -0.00000000000E+00 -0.00000000000E+00 -0.26642550188E+02  0.26642550188E+02  0.00000000000E+00 0. -1.
          6    2    1    2  501    0  0.48175172341E+02  0.76822266541E+02  0.46707231339E+03  0.50615202074E+03  0.17265808493E+03 0.  0.
         24    2    3    3    0    0  0.17361686898E+02  0.11691558065E+03  0.30735131731E+03  0.33855180800E+03  0.78624508096E+02 0.  0.
         -6    2    1    2    0  502 -0.48175172341E+02 -0.76822266541E+02  0.13045006808E+04  0.13187060738E+04  0.17041471498E+03 0.  0.
        -24    2    5    5    0    0  0.26240010611E+02 -0.56668485376E+02  0.48922513738E+03  0.49977988909E+03  0.80863138116E+02 0.  0.
          5    1    3    3  501    0  0.30813485443E+02 -0.40093314113E+02  0.15972099608E+03  0.16760021274E+03  0.47000000000E+01 0. -1.
        -13    1    4    4    0    0  0.29740458458E+02  0.60269563413E+01  0.68933799968E+02  0.75317248025E+02  0.00000000000E+00 0.  1.
         14    1    4    4    0    0 -0.12378771561E+02  0.11088862431E+03  0.23841751734E+03  0.26323455997E+03  0.00000000000E+00 0. -1.
         -5    1    5    5    0  502 -0.74415182951E+02 -0.20153781165E+02  0.81527554344E+03  0.81892618475E+03  0.47000000000E+01 0.  1.
         11    1    6    6    0    0  0.75545433180E+01 -0.28243080859E+02  0.41498514019E+02  0.50762874297E+02  0.00000000000E+00 0. -1.
        -12    1    6    6    0    0  0.18685467293E+02 -0.28425404517E+02  0.44772662336E+03  0.44901701479E+03  0.00000000000E+00 0.  1.
</event>
<event>
12    1  0.8344842E-002  0.2038825E+03  0.7818608E-02  0.1146871E+00
         21   -1    0    0  503  502  0.00000000000E+00  0.00000000000E+00  0.19791674847E+03  0.19791674847E+03  0.00000000000E+00 0. -1.
         21   -1    0    0  501  503 -0.00000000000E+00 -0.00000000000E+00 -0.23536331076E+03  0.23536331076E+03  0.00000000000E+00 0. -1.
          6    2    1    2  501    0  0.92804103748E+02  0.49899251228E+02 -0.92387366054E+02  0.22383808432E+03  0.17454376426E+03 0.  0.
         24    2    3    3    0    0  0.41901869412E+01 -0.75234342277E+01  0.23044611954E+01  0.81928172038E+02  0.81441728265E+02 0.  0.
         -6    2    1    2    0  502 -0.92804103748E+02 -0.49899251228E+02  0.54940803761E+02  0.20944197491E+03  0.17246713307E+03 0.  0.
        -24    2    5    5    0    0  0.28761325742E+01 -0.60503275725E+02  0.31225168683E+01  0.10001447464E+03  0.79525005591E+02 0.  0.
          5    1    3    3  501    0  0.88613916807E+02  0.57422685456E+02 -0.94691827249E+02  0.14190991228E+03  0.47000000000E+01 0. -1.
        -13    1    4    4    0    0 -0.28935069290E+02  0.22874607964E+02  0.24891624432E+01  0.36968660430E+02  0.00000000000E+00 0.  1.
         14    1    4    4    0    0  0.33125256231E+02 -0.30398042191E+02 -0.18470124779E+00  0.44959511608E+02  0.00000000000E+00 0. -1.
         -5    1    5    5    0  502 -0.95680236323E+02  0.10604024497E+02  0.51818286892E+02  0.10942750027E+03  0.47000000000E+01 0.  1.
         11    1    6    6    0    0 -0.34115205008E+02 -0.21326414954E+02  0.18061233077E+02  0.44100695321E+02  0.00000000000E+00 0. -1.
        -12    1    6    6    0    0  0.36991337582E+02 -0.39176860771E+02 -0.14938716209E+02  0.55913779321E+02  0.00000000000E+00 0.  1.
</event>
<event>
12    1  0.8344842E-002  0.2359840E+03  0.7818608E-02  0.1122792E+00
         21   -1    0    0  501  502  0.00000000000E+00  0.00000000000E+00  0.91415024245E+03  0.91415024245E+03  0.00000000000E+00 0.  1.
         21   -1    0    0  502  503 -0.00000000000E+00 -0.00000000000E+00 -0.10679017034E+03  0.10679017034E+03  0.00000000000E+00 0.  1.
         -6    2    1    2    0  503  0.15478740193E+03  0.32185132208E+02  0.68340584498E+02  0.24568046666E+03  0.17519541568E+03 0.  0.
        -24    2    3    3    0    0  0.80368981325E+02 -0.23520728282E+01 -0.30028266766E+02  0.11750308661E+03  0.80253181570E+02 0.  0.
          6    2    1    2  501    0 -0.15478740193E+03 -0.32185132208E+02  0.73901948761E+03  0.77525994614E+03  0.17286745929E+03 0.  0.
         24    2    5    5    0    0 -0.55891287393E+02 -0.69188574648E+02  0.50183274395E+03  0.51558835048E+03  0.78002239583E+02 0.  0.
          5    1    5    5  501    0 -0.98896114537E+02  0.37003442440E+02  0.23718674366E+03  0.25967159566E+03  0.47000000000E+01 0. -1.
        -11    1    6    6    0    0 -0.68592931881E+02 -0.72119703249E+02  0.37137585927E+03  0.38448182109E+03  0.00000000000E+00 0.  1.
         12    1    6    6    0    0  0.12701644488E+02  0.29311286007E+01  0.13045688468E+03  0.13110652939E+03  0.00000000000E+00 0. -1.
         -5    1    3    3    0  503  0.74418420605E+02  0.34537205036E+02  0.98368851263E+02  0.12817738005E+03  0.47000000000E+01 0.  1.
         11    1    4    4    0    0 -0.13277492570E+02  0.89714563640E+01  0.51451631879E+01  0.16830078505E+02  0.00000000000E+00 0. -1.
        -12    1    4    4    0    0  0.93646473895E+02 -0.11323529192E+02 -0.35173429954E+02  0.10067300811E+03  0.00000000000E+00 0.  1.
</event>
<event>
12    1  0.8344842E-002  0.1814794E+03  0.7818608E-02  0.1167009E+00
         21   -1    0    0  501  502  0.00000000000E+00  0.00000000000E+00  0.16298013989E+03  0.16298013989E+03  0.00000000000E+00 0. -1.
         21   -1    0    0  502  503 -0.00000000000E+00 -0.00000000000E+00 -0.20881844927E+03  0.20881844927E+03  0.00000000000E+00 0. -1.
         -6    2    1    2    0  503 -0.29981385277E+02  0.47748532704E+02  0.16854991999E+02  0.18226041196E+03  0.17249916282E+03 0.  0.
        -24    2    3    3    0    0 -0.10918337598E+02  0.96429278195E+02  0.34217740465E+02  0.12697234993E+03  0.74386209041E+02 0.  0.
          6    2    1    2  501    0  0.29981385277E+02 -0.47748532704E+02 -0.62693301383E+02  0.18953817720E+03  0.16975118479E+03 0.  0.
         24    2    5    5    0    0 -0.51459449579E+00 -0.78912364809E+02  0.58612974430E+00  0.11254749193E+03  0.80244428251E+02 0.  0.
          5    1    5    5  501    0  0.30495979773E+02  0.31163832105E+02 -0.63279431127E+02  0.76990685265E+02  0.47000000000E+01 0. -1.
        -13    1    6    6    0    0  0.33855727268E+02 -0.18452448725E+02  0.15263586017E+02  0.41469026886E+02  0.00000000000E+00 0.  1.
         14    1    6    6    0    0 -0.34370321764E+02 -0.60459916084E+02 -0.14677456273E+02  0.71078465048E+02  0.00000000000E+00 0. -1.
         -5    1    3    3    0  503 -0.19063047679E+02 -0.48680745492E+02 -0.17362748466E+02  0.55288062027E+02  0.47000000000E+01 0.  1.
         13    1    4    4    0    0  0.28220620925E+02  0.45646397979E+02  0.32691609919E+02  0.62838988319E+02  0.00000000000E+00 0. -1.
        -14    1    4    4    0    0 -0.39138958523E+02  0.50782880217E+02  0.15261305460E+01  0.64133361613E+02  0.00000000000E+00 0.  1.
</event>
<event>
12    1  0.8344842E-002  0.2669450E+03  0.7818608E-02  0.1103355E+00
         21   -1    0    0  501  502  0.00000000000E+00  0.00000000000E+00  0.22326785274E+03  0.22326785274E+03  0.00000000000E+00 0.  1.
         21   -1    0    0  502  503 -0.00000000000E+00 -0.00000000000E+00 -0.32845197129E+03  0.32845197129E+03  0.00000000000E+00 0. -1.
         -6    2    1    2    0  503 -0.16495010804E+03  0.11598116133E+03  0.29929713189E-01  0.26478838982E+03  0.17161795525E+03 0.  0.
        -24    2    3    3    0    0 -0.13461943537E+03  0.15141575755E+03  0.29551658311E+01  0.21781810858E+03  0.79917904151E+02 0.  0.
          6    2    1    2  501    0  0.16495010804E+03 -0.11598116133E+03 -0.10521404826E+03  0.28693143421E+03  0.17492708212E+03 0.  0.
         24    2    5    5    0    0  0.14559784556E+03 -0.14793990801E+03 -0.64592952683E+02  0.23154158894E+03  0.79713918860E+02 0.  0.
          5    1    5    5  501    0  0.19352262475E+02  0.31958746682E+02 -0.40621095577E+02  0.55389845263E+02  0.47000000000E+01 0. -1.
        -13    1    6    6    0    0  0.12946064417E+02 -0.61403215878E+02 -0.29386669744E+02  0.69293086688E+02  0.00000000000E+00 0.  1.
         14    1    6    6    0    0  0.13265178114E+03 -0.86536692131E+02 -0.35206282939E+02  0.16224850226E+03  0.00000000000E+00 0. -1.
         -5    1    3    3    0  503 -0.30330672662E+02 -0.35434596224E+02 -0.29252361179E+01  0.46970281243E+02  0.47000000000E+01 0.  1.
         11    1    4    4    0    0 -0.81581305024E+02  0.33582820787E+02  0.73096204284E+01  0.88525395973E+02  0.00000000000E+00 0. -1.
        -12    1    4    4    0    0 -0.53038130349E+02  0.11783293677E+03 -0.43544545973E+01  0.12929271260E+03  0.00000000000E+00 0.  1.
</event>
<event>
12    1  0.8344842E-002  0.1992709E+03  0.7818608E-02  0.1151261E+00
         21   -1    0    0  503  502  0.00000000000E+00  0.00000000000E+00  0.10466885411E+04  0.10466885411E+04  0.00000000000E+00 0.  1.
         21   -1    0    0  501  503 -0.00000000000E+00 -0.00000000000E+00 -0.38120632691E+02  0.38120632691E+02  0.00000000000E+00 0.  1.
          6    2    1    2  501    0  0.31690201983E+02  0.83504239964E+02  0.42246848037E+03  0.46710651480E+03  0.17813380438E+03 0.  0.
         24    2    3    3    0    0  0.24903080520E+02  0.97530410527E+02  0.43036378416E+03  0.44901717262E+03  0.79190215311E+02 0.  0.
         -6    2    1    2    0  502 -0.31690201983E+02 -0.83504239964E+02  0.58609942808E+03  0.61770265904E+03  0.17339783272E+03 0.  0.
        -24    2    5    5    0    0  0.36961417481E+02 -0.66131496048E+02  0.45917762041E+03  0.47228569872E+03  0.80437385450E+02 0.  0.
          5    1    3    3  501    0  0.67871214632E+01 -0.14026170563E+02 -0.78953037836E+01  0.18089342173E+02  0.47000000000E+01 0. -1.
        -13    1    4    4    0    0  0.40345669480E+02  0.95965222189E+02  0.29625088809E+03  0.31400905338E+03  0.00000000000E+00 0.  1.
         14    1    4    4    0    0 -0.15442588960E+02  0.15651883386E+01  0.13411289607E+03  0.13500811924E+03  0.00000000000E+00 0. -1.
         -5    1    5    5    0  502 -0.68651619464E+02 -0.17372743916E+02  0.12692180767E+03  0.14541696032E+03  0.47000000000E+01 0.  1.
         13    1    6    6    0    0  0.11005538298E+02 -0.26685145844E+02  0.37219351688E+03  0.37331117435E+03  0.00000000000E+00 0. -1.
        -14    1    6    6    0    0  0.25955879182E+02 -0.39446350204E+02  0.86984103524E+02  0.98974524371E+02  0.00000000000E+00 0.  1.
</event>
<event>
12    1  0.8344842E-002  0.2151355E+03  0.7818608E-02  0.1138706E+00
         21   -1    0    0  503  502  0.00000000000E+00  0.00000000000E+00  0.15244002338E+03  0.15244002338E+03  0.00000000000E+00 0. -1.
         21   -1    0    0  501  503 -0.00000000000E+00 -0.00000000000E+00 -0.33426932647E+03  0.33426932647E+03  0.00000000000E+00 0. -1.
          6    2    1    2  501    0  0.31261991634E+02  0.11602575705E+03 -0.17279228746E+03  0.27138417599E+03  0.17132690377E+03 0.  0.
         24    2    3    3    0    0  0.57875325603E+02  0.12975783441E+03 -0.95076334715E+02  0.18796536035E+03  0.78133337085E+02 0.  0.
         -6    2    1    2    0  502 -0.31261991634E+02 -0.11602575705E+03 -0.90370156311E+01  0.21532517385E+03  0.17844880056E+03 0.  0.
        -24    2    5    5    0    0 -0.52401794922E+02 -0.15134740473E+03  0.28614503007E+01  0.17221863642E+03  0.63238325416E+02 0.  0.
          5    1    3    3  501    0 -0.26613333969E+02 -0.13732077354E+02 -0.77715952742E+02  0.83418815647E+02  0.47000000000E+01 0. -1.
        -13    1    4    4    0    0  0.40638100144E+02  0.43073487702E+02 -0.78027555452E+02  0.97954478896E+02  0.00000000000E+00 0.  1.
         14    1    4    4    0    0  0.17237225458E+02  0.86684346704E+02 -0.17048779263E+02  0.90010881450E+02  0.00000000000E+00 0. -1.
         -5    1    5    5    0  502  0.21139803288E+02  0.35321647681E+02 -0.11898465932E+02  0.43106537433E+02  0.47000000000E+01 0.  1.
         11    1    6    6    0    0  0.13710604181E+02 -0.36042534887E+02  0.72253098336E+01  0.39233277843E+02  0.00000000000E+00 0. -1.
        -12    1    6    6    0    0 -0.66112399103E+02 -0.11530486985E+03 -0.43638595329E+01  0.13298535858E+03  0.00000000000E+00 0.  1.
</event>
<event>
12    1  0.8344842E-002  0.2018915E+03  0.7818608E-02  0.1148478E+00
         21   -1    0    0  503  502  0.00000000000E+00  0.00000000000E+00  0.10220094216E+04  0.10220094216E+04  0.00000000000E+00 0. -1.
         21   -1    0    0  501  503 -0.00000000000E+00 -0.00000000000E+00 -0.77131542799E+03  0.77131542799E+03  0.00000000000E+00 0. -1.
          6    2    1    2  501    0  0.10200819976E+03 -0.26170779901E+02 -0.74803329224E+03  0.77439581691E+03  0.17042444779E+03 0.  0.
         24    2    3    3    0    0  0.10169608332E+02  0.36690828329E+02 -0.32036444556E+03  0.33245844455E+03  0.80284503838E+02 0.  0.
         -6    2    1    2    0  502 -0.10200819976E+03  0.26170779901E+02  0.99872728582E+03  0.10189290326E+04  0.17224865624E+03 0.  0.
        -24    2    5    5    0    0 -0.31892119340E+02  0.64459988847E+02  0.75183416341E+03  0.75938976364E+03  0.79031679887E+02 0.  0.
          5    1    3    3  501    0  0.91838591430E+02 -0.62861608229E+02 -0.42766884668E+03  0.44193737236E+03  0.47000000000E+01 0. -1.
        -13    1    4    4    0    0 -0.25002013372E+01  0.13561146913E+02 -0.31439090522E+01  0.14143545399E+02  0.00000000000E+00 0.  1.
         14    1    4    4    0    0  0.12669809669E+02  0.23129681416E+02 -0.31722053651E+03  0.31831489915E+03  0.00000000000E+00 0. -1.
         -5    1    5    5    0  502 -0.70116080422E+02 -0.38289208947E+02  0.24689312242E+03  0.25953926900E+03  0.47000000000E+01 0.  1.
         11    1    6    6    0    0 -0.19269143340E+02  0.16302432435E+01  0.46848257393E+03  0.46888151985E+03  0.00000000000E+00 0. -1.
        -12    1    6    6    0    0 -0.12622976000E+02  0.62829745604E+02  0.28335158947E+03  0.29050824380E+03  0.00000000000E+00 0.  1.
</event>
<event>
12    1  0.8344842E-002  0.2103502E+03  0.7818608E-02  0.1141393E+00
         21   -1    0    0  503  502  0.00000000000E+00  0.00000000000E+00  0.19926845204E+03  0.19926845204E+03  0.00000000000E+00 0.  1.
         21   -1    0    0  501  503 -0.00000000000E+00 -0.00000000000E+00 -0.22215038907E+03  0.22215038907E+03  0.00000000000E+00 0.  1.
          6    2    1    2  501    0 -0.69040970001E+02 -0.95946673207E+02  0.67542845924E-02  0.21035023856E+03  0.17399656082E+03 0.  0.
         24    2    3    3    0    0 -0.88335906742E+02 -0.38029745034E+02  0.47005509123E+02  0.13316450083E+03  0.79207149082E+02 0.  0.
         -6    2    1    2    0  502  0.69040970001E+02  0.95946673207E+02 -0.22888691310E+02  0.21106860255E+03  0.17335986604E+03 0.  0.
        -24    2    5    5    0    0  0.10938370277E+03  0.85877530881E+02  0.67127834652E+01  0.15981178814E+03  0.78453817143E+02 0.  0.
          5    1    3    3  501    0  0.19294936741E+02 -0.57916928173E+02 -0.46998754838E+02  0.77185737731E+02  0.47000000000E+01 0. -1.
        -11    1    4    4    0    0 -0.33871046406E+02 -0.57068966135E+02  0.18998210238E+02  0.69029317486E+02  0.00000000000E+00 0.  1.
         12    1    4    4    0    0 -0.54464860336E+02  0.19039221101E+02  0.28007298885E+02  0.64135183342E+02  0.00000000000E+00 0. -1.
         -5    1    5    5    0  502 -0.40342732771E+02  0.10069142325E+02 -0.29601474775E+02  0.51256814410E+02  0.47000000000E+01 0.  1.
         11    1    6    6    0    0  0.12286165063E+02 -0.11530504883E+02  0.14252499333E+02  0.22068895125E+02  0.00000000000E+00 0. -1.
        -12    1    6    6    0    0  0.97097537709E+02  0.97408035765E+02 -0.75397158676E+01  0.13774289301E+03  0.00000000000E+00 0.  1.
</event>
<event>
12    1  0.8344842E-002  0.1973168E+03  0.7818608E-02  0.1152170E+00
         21   -1    0    0  501  502  0.00000000000E+00  0.00000000000E+00  0.70110751378E+02  0.70110751378E+02  0.00000000000E+00 0.  1.
         21   -1    0    0  502  503 -0.00000000000E+00 -0.00000000000E+00 -0.56674420613E+03  0.56674420613E+03  0.00000000000E+00 0.  1.
         -6    2    1    2    0  503 -0.52199472812E+02  0.79815947504E+02 -0.19986463887E+03  0.28085547410E+03  0.17273839477E+03 0.  0.
        -24    2    3    3    0    0 -0.16044393146E+02  0.10477517643E+03 -0.87087663557E+02  0.15973202858E+03  0.81821755440E+02 0.  0.
          6    2    1    2  501    0  0.52199472812E+02 -0.79815947504E+02 -0.29676881588E+03  0.35599948340E+03  0.17195502803E+03 0.  0.
         24    2    5    5    0    0  0.22712782545E+02 -0.37080450172E+02 -0.28817730158E+03  0.30316302106E+03  0.83491496074E+02 0.  0.
          5    1    5    5  501    0  0.29486690266E+02 -0.42735497332E+02 -0.85915143064E+01  0.52836462345E+02  0.47000000000E+01 0. -1.
        -11    1    6    6    0    0  0.12366847569E+02 -0.62256161868E+02 -0.16005076704E+03  0.17217728259E+03  0.00000000000E+00 0.  1.
         12    1    6    6    0    0  0.10345934976E+02  0.25175711696E+02 -0.12812653454E+03  0.13098573847E+03  0.00000000000E+00 0. -1.
         -5    1    3    3    0  503 -0.36155079665E+02 -0.24959228931E+02 -0.11277697531E+03  0.12112344552E+03  0.47000000000E+01 0.  1.
         11    1    4    4    0    0 -0.20742281221E+01 -0.14070543160E+02 -0.84851833117E+01  0.16561429376E+02  0.00000000000E+00 0. -1.
        -12    1    4    4    0    0 -0.13970165024E+02  0.11884571960E+03 -0.78602480245E+02  0.14317059921E+03  0.00000000000E+00 0.  1.
</event>
<event>
12    1  0.8344842E-002  0.1859238E+03  0.7818608E-02  0.1162330E+00
         21   -1    0    0  501  502  0.00000000000E+00  0.00000000000E+00  0.72043584694E+02  0.72043584694E+02  0.00000000000E+00 0. -1.
         21   -1    0    0  502  503 -0.00000000000E+00 -0.00000000000E+00 -0.11831358756E+04  0.11831358756E+04  0.00000000000E+00 0. -1.
         -6    2    1    2    0  503 -0.38061755764E+02 -0.58265088125E+02 -0.10395923298E+04  0.10559812850E+04  0.17175780699E+03 0.  0.
        -24    2    3    3    0    0 -0.52542900491E+02 -0.76319118348E+02 -0.10131972477E+04  0.10205631834E+04  0.79969896403E+02 0.  0.
          6    2    1    2  501    0  0.38061755764E+02  0.58265088125E+02 -0.71499961123E+02  0.19919817535E+03  0.17240693396E+03 0.  0.
         24    2    5    5    0    0  0.66178741207E+01  0.77043991946E+02 -0.10233870426E+03  0.15108910136E+03  0.79844431285E+02 0.  0.
          5    1    5    5  501    0  0.31443881643E+02 -0.18778903821E+02  0.30838743141E+02  0.48109073988E+02  0.47000000000E+01 0. -1.
        -11    1    6    6    0    0 -0.24888995456E+02  0.74598467656E+02 -0.63910489784E+02  0.10133579908E+03  0.00000000000E+00 0.  1.
         12    1    6    6    0    0  0.31506869577E+02  0.24455242906E+01 -0.38428214480E+02  0.49753302279E+02  0.00000000000E+00 0. -1.
         -5    1    3    3    0  503  0.14481144727E+02  0.18054030223E+02 -0.26395082112E+02  0.35418101581E+02  0.47000000000E+01 0.  1.
         13    1    4    4    0    0 -0.33033114283E+02 -0.57873071922E+02 -0.32091426031E+03  0.32775973145E+03  0.00000000000E+00 0. -1.
        -14    1    4    4    0    0 -0.19509786208E+02 -0.18446046426E+02 -0.69228298737E+03  0.69280345192E+03  0.00000000000E+00 0.  1.
</event>
<event>
12    1  0.8344842E-002  0.2136508E+03  0.7818608E-02  0.1139022E+00
         21   -1    0    0  501  502  0.00000000000E+00  0.00000000000E+00  0.46375042140E+03  0.46375042140E+03  0.00000000000E+00 0.  1.
         21   -1    0    0  502  503 -0.00000000000E+00 -0.00000000000E+00 -0.97706608467E+02  0.97706608467E+02  0.00000000000E+00 0. -1.
         -6    2    1    2    0  503  0.26196211905E+01  0.12550292404E+03  0.17802219200E+03  0.27685414016E+03  0.17087559137E+03 0.  0.
        -24    2    3    3    0    0 -0.59579805926E+02  0.66643042371E+02  0.83064522281E+02  0.14889983800E+03  0.85325251393E+02 0.  0.
          6    2    1    2  501    0 -0.26196211905E+01 -0.12550292404E+03  0.18802162094E+03  0.28460288970E+03  0.17288385850E+03 0.  0.
         24    2    5    5    0    0 -0.82406918854E+01 -0.13020135134E+03  0.73541787202E+02  0.16979263760E+03  0.80005277482E+02 0.  0.
          5    1    5    5  501    0  0.56210706949E+01  0.46984273051E+01  0.11447983373E+03  0.11481025210E+03  0.47000000000E+01 0. -1.
        -13    1    6    6    0    0 -0.62343213221E+01 -0.87415895167E+02  0.88378299961E+02  0.12446336567E+03  0.00000000000E+00 0.  1.
         14    1    6    6    0    0 -0.20063705633E+01 -0.42785456178E+02 -0.14836512759E+02  0.45329271933E+02  0.00000000000E+00 0. -1.
         -5    1    3    3    0  503  0.62199427117E+02  0.58859881669E+02  0.94957669714E+02  0.12795430216E+03  0.47000000000E+01 0.  1.
         11    1    4    4    0    0 -0.22405882565E+00  0.20302416903E+02 -0.15010670485E+02  0.25249922037E+02  0.00000000000E+00 0. -1.
        -12    1    4    4    0    0 -0.59355747101E+02  0.46340625467E+02  0.98075192767E+02  0.12364991597E+03  0.00000000000E+00 0.  1.
</event>
<event>
12    1  0.8344842E-002  0.1968497E+03  0.7818608E-02  0.1153389E+00
         21   -1    0    0  501  502  0.00000000000E+00  0.00000000000E+00  0.23424254754E+03  0.23424254754E+03  0.00000000000E+00 0. -1.
         21   -1    0    0  502  503 -0.00000000000E+00 -0.00000000000E+00 -0.17601556043E+03  0.17601556043E+03  0.00000000000E+00 0. -1.
         -6    2    1    2    0  503  0.89618835016E+02  0.32601023529E+02 -0.29632323889E+02  0.19469130164E+03  0.16712948869E+03 0.  0.
        -24    2    3    3    0    0  0.87009424362E+02  0.97472917487E+01 -0.77203159075E+02  0.14164248977E+03  0.80228533031E+02 0.  0.
          6    2    1    2  501    0 -0.89618835016E+02 -0.32601023529E+02  0.87859310995E+02  0.21556680634E+03  0.17220751186E+03 0.  0.
         24    2    5    5    0    0 -0.77120078364E+02 -0.19676199542E+02 -0.98292918284E+01  0.11612625568E+03  0.83988290644E+02 0.  0.
          5    1    5    5  501    0 -0.12498756653E+02 -0.12924823987E+02  0.97688602824E+02  0.99440550655E+02  0.47000000000E+01 0. -1.
        -13    1    6    6    0    0  0.79490642136E+01 -0.13490792910E+02  0.20326671889E+02  0.25658579565E+02  0.00000000000E+00 0.  1.
         14    1    6    6    0    0 -0.85069142577E+02 -0.61854066320E+01 -0.30155963717E+02  0.90467676115E+02  0.00000000000E+00 0. -1.
         -5    1    3    3    0  503  0.26094106540E+01  0.22853731781E+02  0.47570835186E+02  0.53048811867E+02  0.47000000000E+01 0.  1.
         13    1    4    4    0    0  0.57389081692E+02  0.44840442443E+02 -0.47142728076E+02  0.86756030260E+02  0.00000000000E+00 0. -1.
        -14    1    4    4    0    0  0.29620342670E+02 -0.35093150694E+02 -0.30060430998E+02  0.54886459508E+02  0.00000000000E+00 0.  1.
</event>
<event>
12    1  0.8344842E-002  0.3815936E+03  0.7818608E-02  0.1050401E+00
         21   -1    0    0  503  502  0.00000000000E+00  0.00000000000E+00  0.22255486401E+03  0.22255486401E+03  0.00000000000E+00 0. -1.
         21   -1    0    0  501  503 -0.00000000000E+00 -0.00000000000E+00 -0.65349352592E+03  0.65349352592E+03  0.00000000000E+00 0.  1.
          6    2    1    2  501    0 -0.30708361047E+03  0.14598268212E+03 -0.20753891805E+03  0.43438012033E+03  0.17321200632E+03 0.  0.
         24    2    3    3    0    0 -0.19928768958E+03  0.94630165904E+02 -0.55845478757E+02  0.24127385164E+03  0.80149251210E+02 0.  0.
         -6    2    1    2    0  502  0.30708361047E+03 -0.14598268212E+03 -0.22339974386E+03  0.44166826961E+03  0.17190732248E+03 0.  0.
        -24    2    5    5    0    0  0.32447038543E+03 -0.13752013798E+03 -0.21157644489E+03  0.41852102365E+03  0.78755544799E+02 0.  0.
          5    1    3    3  501    0 -0.10779592089E+03  0.51352516212E+02 -0.15169343929E+03  0.19310626869E+03  0.47000000000E+01 0. -1.
        -11    1    4    4    0    0 -0.10395625678E+03  0.53348152541E+01 -0.25769657841E+02  0.10723543650E+03  0.00000000000E+00 0.  1.
         12    1    4    4    0    0 -0.95331432802E+02  0.89295350650E+02 -0.30075820916E+02  0.13403841513E+03  0.00000000000E+00 0. -1.
         -5    1    5    5    0  502 -0.17386774958E+02 -0.84625441316E+01 -0.11823298970E+02  0.23147245952E+02  0.47000000000E+01 0. -1.
         11    1    6    6    0    0  0.27639694097E+03 -0.86265839462E+02 -0.18381302683E+03  0.34296398188E+03  0.00000000000E+00 0. -1.
        -12    1    6    6    0    0  0.48073444456E+02 -0.51254298523E+02 -0.27763418068E+02  0.75557041775E+02  0.00000000000E+00 0.  1.
</event>
<event>
12    1  0.8344842E-002  0.2359627E+03  0.7818608E-02  0.1122512E+00
         21   -1    0    0  501  502  0.00000000000E+00  0.00000000000E+00  0.18163527554E+03  0.18163527554E+03  0.00000000000E+00 0. -1.
         21   -1    0    0  502  503 -0.00000000000E+00 -0.00000000000E+00 -0.42992879915E+03  0.42992879915E+03  0.00000000000E+00 0.  1.
         -6    2    1    2    0  503 -0.22357963140E+02  0.16064750655E+03 -0.28796404632E+03  0.37229245765E+03  0.17137935165E+03 0.  0.
        -24    2    3    3    0    0  0.20901334619E+02  0.63161701137E+02 -0.58406248773E+02  0.11912507919E+03  0.79707140941E+02 0.  0.
          6    2    1    2  501    0  0.22357963140E+02 -0.16064750655E+03  0.39670522711E+02  0.23927161705E+03  0.17137577563E+03 0.  0.
         24    2    5    5    0    0  0.21594050888E+02 -0.72444429983E+02 -0.43094126800E+02  0.11822433914E+03  0.80033693730E+02 0.  0.
          5    1    5    5  501    0  0.76391225233E+00 -0.88203076572E+02  0.82764649511E+02  0.12104727790E+03  0.47000000000E+01 0. -1.
        -11    1    6    6    0    0  0.45207951618E+02 -0.21155080572E+02 -0.51120814681E+01  0.50173994264E+02  0.00000000000E+00 0.  1.
         12    1    6    6    0    0 -0.23613900730E+02 -0.51289349410E+02 -0.37982045332E+02  0.68050344879E+02  0.00000000000E+00 0. -1.
         -5    1    3    3    0  503 -0.43259297759E+02  0.97485805418E+02 -0.22955779754E+03  0.25316737846E+03  0.47000000000E+01 0.  1.
         11    1    4    4    0    0 -0.20157040766E+02 -0.60571646736E+01 -0.23071911181E+02  0.31229931506E+02  0.00000000000E+00 0. -1.
        -12    1    4    4    0    0  0.41058375385E+02  0.69218865811E+02 -0.35334337591E+02  0.87895147684E+02  0.00000000000E+00 0.  1.
</event>
<event>
12    1  0.8344842E-002  0.2190437E+03  0.7818608E-02  0.1134864E+00
         21   -1    0    0  501  502  0.00000000000E+00  0.00000000000E+00  0.46838261661E+02  0.46838261661E+02  0.00000000000E+00 0. -1.
         21   -1    0    0  502  503 -0.00000000000E+00 -0.00000000000E+00 -0.13768583060E+04  0.13768583060E+04  0.00000000000E+00 0.  1.
         -6    2    1    2    0  503  0.12210457905E+03  0.52063177385E+02 -0.10301288913E+04  0.10531598615E+04  0.17424138004E+03 0.  0.
        -24    2    3    3    0    0  0.10642716849E+03  0.20937079203E+02 -0.99305321052E+03  0.10020588704E+04  0.78754030064E+02 0.  0.
          6    2    1    2  501    0 -0.12210457905E+03 -0.52063177385E+02 -0.29989115306E+03  0.37053670618E+03  0.17246055862E+03 0.  0.
         24    2    5    5    0    0 -0.23592619906E+01 -0.36292980365E+02 -0.17904268296E+03  0.19961542957E+03  0.80419468166E+02 0.  0.
          5    1    5    5  501    0 -0.11974531706E+03 -0.15770197020E+02 -0.12084847010E+03  0.17092127661E+03  0.47000000000E+01 0. -1.
        -13    1    6    6    0    0 -0.36098039496E+02  0.32808869591E+01 -0.75059683120E+02  0.83353396480E+02  0.00000000000E+00 0.  1.
         14    1    6    6    0    0  0.33738777505E+02 -0.39573867324E+02 -0.10398299984E+03  0.11626203309E+03  0.00000000000E+00 0. -1.
         -5    1    3    3    0  503  0.15677410566E+02  0.31126098181E+02 -0.37075680749E+02  0.51100991116E+02  0.47000000000E+01 0.  1.
         11    1    4    4    0    0  0.68538830535E+02  0.50126860114E+02 -0.56566501123E+03  0.57200277825E+03  0.00000000000E+00 0. -1.
        -12    1    4    4    0    0  0.37888337953E+02 -0.29189780911E+02 -0.42738819930E+03  0.43005609211E+03  0.00000000000E+00 0.  1.
</event>
<event>
12    1  0.8344842E-002  0.2139321E+03  0.7818608E-02  0.1139950E+00
         21   -1    0    0  501  502  0.00000000000E+00  0.00000000000E+00  0.58438813797E+02  0.58438813797E+02  0.00000000000E+00 0. -1.
         21   -1    0    0  502  503 -0.00000000000E+00 -0.00000000000E+00 -0.10572885873E+04  0.10572885873E+04  0.00000000000E+00 0.  1.
         -6    2    1    2    0  503  0.10630760705E+03 -0.46124839134E+02 -0.20808147273E+03  0.29843735662E+03  0.17982810801E+03 0.  0.
        -24    2    3    3    0    0  0.12612904443E+03 -0.24651477002E+02 -0.21950796150E+03  0.26670961944E+03  0.80212497594E+02 0.  0.
          6    2    1    2  501    0 -0.10630760705E+03  0.46124839134E+02 -0.79076830081E+03  0.81729004452E+03  0.17093771729E+03 0.  0.
         24    2    5    5    0    0 -0.89839742602E+01 -0.11213142700E+02 -0.22349706992E+03  0.23886263070E+03  0.83054016867E+02 0.  0.
          5    1    5    5  501    0 -0.97323632787E+02  0.57337981834E+02 -0.56727123089E+03  0.57842741382E+03  0.47000000000E+01 0. -1.
        -13    1    6    6    0    0 -0.64969290223E+00  0.26198952765E+02 -0.17546734427E+03  0.17741363007E+03  0.00000000000E+00 0.  1.
         14    1    6    6    0    0 -0.83342813579E+01 -0.37412095465E+02 -0.48029725647E+02  0.61449000631E+02  0.00000000000E+00 0. -1.
         -5    1    3    3    0  503 -0.19821437384E+02 -0.21473362132E+02  0.11426488770E+02  0.31727737184E+02  0.47000000000E+01 0.  1.
         13    1    4    4    0    0  0.83219321620E+02  0.19787464876E+02 -0.15722003938E+03  0.17898363064E+03  0.00000000000E+00 0. -1.
        -14    1    4    4    0    0  0.42909722811E+02 -0.44438941878E+02 -0.62287922124E+02  0.87725988792E+02  0.00000000000E+00 0.  1.
</event>
<event>
12    1  0.8344842E-002  0.2067440E+03  0.7818608E-02  0.1144608E+00
         21   -1    0    0  501  502  0.00000000000E+00  0.00000000000E+00  0.29718354993E+03  0.29718354993E+03  0.00000000000E+00 0.  1.
         21   -1    0    0  502  503 -0.00000000000E+00 -0.00000000000E+00 -0.14741622218E+03  0.14741622218E+03  0.00000000000E+00 0.  1.
         -6    2    1    2    0  503 -0.50056333107E+02 -0.10418441852E+03  0.11654425562E+03  0.23733027678E+03  0.17141489786E+03 0.  0.
        -24    2    3    3    0    0 -0.52982218792E+02 -0.94353877136E+01  0.10680483016E+02  0.95150221928E+02  0.77738986140E+02 0.  0.
          6    2    1    2  501    0  0.50056333107E+02  0.10418441852E+03  0.33223072124E+02  0.20726949533E+03  0.16881007561E+03 0.  0.
         24    2    5    5    0    0 -0.14426236150E+02  0.11066207562E+03  0.32910331205E+02  0.14229142529E+03  0.81911833948E+02 0.  0.
          5    1    5    5  501    0  0.64482569258E+02 -0.64776571012E+01  0.31274091925E+00  0.64978070043E+02  0.47000000000E+01 0. -1.
        -11    1    6    6    0    0 -0.17874681548E+02  0.42353364496E+02 -0.25304723343E+02  0.52475144097E+02  0.00000000000E+00 0.  1.
         12    1    6    6    0    0  0.34484453979E+01  0.68308711127E+02  0.58215054548E+02  0.89816281194E+02  0.00000000000E+00 0. -1.
         -5    1    3    3    0  503  0.29258856848E+01 -0.94749030808E+02  0.10586377261E+03  0.14218005485E+03  0.47000000000E+01 0.  1.
         13    1    4    4    0    0 -0.67141054407E+02 -0.46554264149E+01 -0.11627608136E+02  0.68299307851E+02  0.00000000000E+00 0. -1.
        -14    1    4    4    0    0  0.14158835615E+02 -0.47799612987E+01  0.22308091151E+02  0.26850914077E+02  0.00000000000E+00 0.  1.
</event>
<event>
12    1  0.8344842E-002  0.1824515E+03  0.7818608E-02  0.1165757E+00
         21   -1    0    0  501  502  0.00000000000E+00  0.00000000000E+00  0.73426973826E+02  0.73426973826E+02  0.00000000000E+00 0. -1.
         21   -1    0    0  502  503 -0.00000000000E+00 -0.00000000000E+00 -0.64592601415E+03  0.64592601415E+03  0.00000000000E+00 0. -1.
         -6    2    1    2    0  503 -0.48158591635E+02  0.38778906092E+02 -0.48495579126E+03  0.51814155654E+03  0.17165517654E+03 0.  0.
        -24    2    3    3    0    0 -0.81104014754E+02  0.60833000355E+02 -0.26403758369E+03  0.29364494540E+03  0.78949307886E+02 0.  0.
          6    2    1    2  501    0  0.48158591635E+02 -0.38778906092E+02 -0.87543249067E+02  0.20121143144E+03  0.17029141546E+03 0.  0.
         24    2    5    5    0    0  0.15998416655E+02  0.27172620809E+02  0.63719398410E+01  0.81938494595E+02  0.75359237139E+02 0.  0.
          5    1    5    5  501    0  0.32160174980E+02 -0.65951526901E+02 -0.93915188908E+02  0.11927293684E+03  0.47000000000E+01 0. -1.
        -13    1    6    6    0    0  0.46329129543E+02  0.14153050833E+02  0.70039327066E+00  0.48447782641E+02  0.00000000000E+00 0.  1.
         14    1    6    6    0    0 -0.30330712889E+02  0.13019569976E+02  0.56715465704E+01  0.33490711954E+02  0.00000000000E+00 0. -1.
         -5    1    3    3    0  503  0.32945423119E+02 -0.22054094263E+02 -0.22091820757E+03  0.22449661114E+03  0.47000000000E+01 0.  1.
         13    1    4    4    0    0 -0.75704765948E+02  0.25865254507E+02 -0.11258600609E+03  0.13811528426E+03  0.00000000000E+00 0. -1.
        -14    1    4    4    0    0 -0.53992488057E+01  0.34967745848E+02 -0.15145157760E+03  0.15552966114E+03  0.00000000000E+00 0.  1.
</event>
<event>
12    1  0.8344842E-002  0.2070231E+03  0.7818608E-02  0.1143953E+00
         21   -1    0    0  501  502  0.00000000000E+00  0.00000000000E+00  0.10098445294E+04  0.10098445294E+04  0.00000000000E+00 0.  1.
         21   -1    0    0  502  503 -0.00000000000E+00 -0.00000000000E+00 -0.65492837782E+02  0.65492837782E+02  0.00000000000E+00 0. -1.
         -6    2    1    2    0  503 -0.73028979372E+02  0.88665034931E+02  0.79124155350E+03  0.81787637549E+03  0.17223196382E+03 0.  0.
        -24    2    3    3    0    0  0.75257731402E+01  0.96900194333E+02  0.49504771485E+03  0.51077742392E+03  0.79843922045E+02 0.  0.
          6    2    1    2  501    0  0.73028979372E+02 -0.88665034931E+02  0.15311013810E+03  0.25746099167E+03  0.17218805881E+03 0.  0.
         24    2    5    5    0    0  0.63615529531E+02  0.11542922018E+02  0.53219752900E+02  0.11557925666E+03  0.79662085242E+02 0.  0.
          5    1    5    5  501    0  0.94134498407E+01 -0.10020795695E+03  0.99890385203E+02  0.14188173501E+03  0.47000000000E+01 0. -1.
        -11    1    6    6    0    0  0.57902156409E+02 -0.25128777212E+02  0.21269605437E+02  0.66607141331E+02  0.00000000000E+00 0.  1.
         12    1    6    6    0    0  0.57133731225E+01  0.36671699230E+02  0.31950147463E+02  0.48972115328E+02  0.00000000000E+00 0. -1.
         -5    1    3    3    0  503 -0.80554752512E+02 -0.82351594013E+01  0.29619383865E+03  0.30709895157E+03  0.47000000000E+01 0.  1.
         11    1    4    4    0    0 -0.33813833266E+02  0.27697226203E+02  0.21288514068E+03  0.21732601037E+03  0.00000000000E+00 0. -1.
        -12    1    4    4    0    0  0.41339606406E+02  0.69202968130E+02  0.28216257417E+03  0.29345141355E+03  0.00000000000E+00 0.  1.
</event>
<event>
12    1  0.8344842E-002  0.2737236E+03  0.7818608E-02  0.1099448E+00
         21   -1    0    0  503  502  0.00000000000E+00  0.00000000000E+00  0.16557799620E+04  0.16557799620E+04  0.00000000000E+00 0.  1.
         21   -1    0    0  501  503 -0.00000000000E+00 -0.00000000000E+00 -0.72169385011E+02  0.72169385011E+02  0.00000000000E+00 0. -1.
          6    2    1    2  501    0 -0.90840066311E+02 -0.19210932375E+03  0.26273480442E+03  0.37941295552E+03  0.17253029717E+03 0.  0.
         24    2    3    3    0    0 -0.57413575404E+02 -0.70125787602E+02  0.21008162317E+03  0.24232991177E+03  0.79847060169E+02 0.  0.
         -6    2    1    2    0  502  0.90840066311E+02  0.19210932375E+03  0.13208757726E+04  0.13485363915E+04  0.16935076825E+03 0.  0.
        -24    2    5    5    0    0  0.63428476689E+02  0.20437424180E+03  0.98197508907E+03  0.10082753348E+04  0.80944874731E+02 0.  0.
          5    1    3    3  501    0 -0.33426490907E+02 -0.12198353615E+03  0.52653181245E+02  0.13708304374E+03  0.47000000000E+01 0. -1.
        -13    1    4    4    0    0  0.16870268416E+02 -0.44618770158E+01  0.59766513372E+02  0.62261950046E+02  0.00000000000E+00 0.  1.
         14    1    4    4    0    0 -0.74283843820E+02 -0.65663910586E+02  0.15031510980E+03  0.18006796173E+03  0.00000000000E+00 0. -1.
         -5    1    5    5    0  502  0.27411589622E+02 -0.12264918051E+02  0.33890068354E+03  0.34026105678E+03  0.47000000000E+01 0.  1.
         11    1    6    6    0    0 -0.75138486227E+01  0.49148938189E+02  0.12606637687E+03  0.13551681602E+03  0.00000000000E+00 0. -1.
        -12    1    6    6    0    0  0.70942325312E+02  0.15522530362E+03  0.85590871220E+03  0.87275851874E+03  0.00000000000E+00 0.  1.
</event>
<event>
12    1  0.8344842E-002  0.3320903E+03  0.7818608E-02  0.1070233E+00
         21   -1    0    0  503  502  0.00000000000E+00  0.00000000000E+00  0.13717538166E+04  0.13717538166E+04  0.00000000000E+00 0. -1.
         21   -1    0    0  501  503 -0.00000000000E+00 -0.00000000000E+00 -0.11207300693E+03  0.11207300693E+03  0.00000000000E+00 0.  1.
          6    2    1    2  501    0  0.12385865013E+03 -0.25551130202E+03  0.23506039287E+03  0.40673306882E+03  0.17190523639E+03 0.  0.
         24    2    3    3    0    0  0.30224997762E+02 -0.37989969940E+02  0.49450446289E+02  0.10580794019E+03  0.79957396555E+02 0.  0.
         -6    2    1    2    0  502 -0.12385865013E+03  0.25551130202E+03  0.10246204168E+04  0.10770937548E+04  0.17221198347E+03 0.  0.
        -24    2    5    5    0    0 -0.37053929031E+02  0.85024471016E+02  0.25158717308E+03  0.28072492995E+03  0.83115740457E+02 0.  0.
          5    1    3    3  501    0  0.93633652371E+02 -0.21752133208E+03  0.18560994658E+03  0.30092512863E+03  0.47000000000E+01 0. -1.
        -11    1    4    4    0    0 -0.26137255292E+02 -0.15613210838E+02  0.55589622106E+01  0.30948837260E+02  0.00000000000E+00 0.  1.
         12    1    4    4    0    0  0.56362253054E+02 -0.22376759101E+02  0.43891484078E+02  0.74859102932E+02  0.00000000000E+00 0. -1.
         -5    1    5    5    0  502 -0.86804721102E+02  0.17048683101E+03  0.77303324377E+03  0.79636882481E+03  0.47000000000E+01 0.  1.
         11    1    6    6    0    0 -0.48608350516E+02  0.56833317261E+02  0.23374684533E+03  0.24541879593E+03  0.00000000000E+00 0. -1.
        -12    1    6    6    0    0  0.11554421485E+02  0.28191153755E+02  0.17840327745E+02  0.35306134027E+02  0.00000000000E+00 0.  1.
</event>
<event>
12    1  0.8344842E-002  0.2204346E+03  0.7818608E-02  0.1133641E+00
         21   -1    0    0  503  502  0.00000000000E+00  0.00000000000E+00  0.21325066863E+03  0.21325066863E+03  0.00000000000E+00 0.  1.
         21   -1    0    0  501  503 -0.00000000000E+00 -0.00000000000E+00 -0.28861833729E+03  0.28861833729E+03  0.00000000000E+00 0.  1.
          6    2    1    2  501    0 -0.12686528468E+03  0.51316358904E+02 -0.15327230002E+03  0.26848428500E+03  0.17280984981E+03 0.  0.
         24    2    3    3    0    0 -0.76576796185E+02  0.10100763048E+03 -0.91055038693E+02  0.17419095463E+03  0.77362274230E+02 0.  0.
         -6    2    1    2    0  502  0.12686528468E+03 -0.51316358904E+02  0.77904631354E+02  0.23338472092E+03  0.17225309061E+03 0.  0.
        -24    2    5    5    0    0  0.14847278351E+03 -0.29343819658E+02  0.24859020789E+02  0.17185746447E+03  0.77535733593E+02 0.  0.
          5    1    3    3  501    0 -0.50288488499E+02 -0.49691271573E+02 -0.62217261326E+02  0.94293330374E+02  0.47000000000E+01 0. -1.
        -13    1    4    4    0    0 -0.84757006898E+02  0.94075338605E+02 -0.99093339659E+02  0.16078995465E+03  0.00000000000E+00 0.  1.
         14    1    4    4    0    0  0.81802107137E+01  0.69322918722E+01  0.80383009663E+01  0.13400999976E+02  0.00000000000E+00 0. -1.
         -5    1    5    5    0  502 -0.21607498826E+02 -0.21972539246E+02  0.53045610566E+02  0.61527256453E+02  0.47000000000E+01 0.  1.
         11    1    6    6    0    0  0.11158924293E+03 -0.17687069243E+02  0.52230592610E+02  0.12447098602E+03  0.00000000000E+00 0. -1.
        -12    1    6    6    0    0  0.36883540582E+02 -0.11656750416E+02 -0.27371571821E+02  0.47386478452E+02  0.00000000000E+00 0.  1.
</event>
<event>
12    1  0.8344842E-002  0.2620958E+03  0.7818608E-02  0.1106225E+00
         21   -1    0    0  503  502  0.00000000000E+00  0.00000000000E+00  0.47878055437E+03  0.47878055437E+03  0.00000000000E+00 0.  1.
         21   -1    0    0  501  503 -0.00000000000E+00 -0.00000000000E+00 -0.14350586687E+03  0.14350586687E+03  0.00000000000E+00 0.  1.
          6    2    1    2  501    0 -0.36601592764E+01 -0.19711456798E+03  0.13784402639E+03  0.29415067214E+03  0.16928110536E+03 0.  0.
         24    2    3    3    0    0  0.29640441605E+02 -0.15218501001E+03  0.37038850936E+02  0.17877576760E+03  0.80932475272E+02 0.  0.
         -6    2    1    2    0  502  0.36601592764E+01  0.19711456798E+03  0.19743066111E+03  0.32813574910E+03  0.17270394963E+03 0.  0.
        -24    2    5    5    0    0 -0.13795736927E+02  0.21782103561E+03  0.16235185727E+03  0.28357030742E+03  0.80110347504E+02 0.  0.
          5    1    3    3  501    0 -0.33300600881E+02 -0.44929557972E+02  0.10080517545E+03  0.11537490454E+03  0.47000000000E+01 0. -1.
        -13    1    4    4    0    0 -0.38299657676E+01 -0.10296064076E+02 -0.19525442628E+02  0.22403581925E+02  0.00000000000E+00 0.  1.
         14    1    4    4    0    0  0.33470407373E+02 -0.14188894593E+03  0.56564293564E+02  0.15637218568E+03  0.00000000000E+00 0. -1.
         -5    1    5    5    0  502  0.17455896203E+02 -0.20706467631E+02  0.35078803836E+02  0.44565441685E+02  0.47000000000E+01 0.  1.
         11    1    6    6    0    0 -0.23332803949E+02  0.28397895957E+02  0.49213297673E+01  0.37082067386E+02  0.00000000000E+00 0. -1.
        -12    1    6    6    0    0  0.95370670220E+01  0.18942313965E+03  0.15743052750E+03  0.24648824003E+03  0.00000000000E+00 0.  1.
</event>
<event>
12    1  0.8344842E-002  0.2099354E+03  0.7818608E-02  0.1144439E+00
         21   -1    0    0  503  502  0.00000000000E+00  0.00000000000E+00  0.29117347797E+03  0.29117347797E+03  0.00000000000E+00 0. -1.
         21   -1    0    0  501  503 -0.00000000000E+00 -0.00000000000E+00 -0.29695475204E+03  0.29695475204E+03  0.00000000000E+00 0. -1.
          6    2    1    2  501    0  0.70429974107E+02  0.65812113762E+02 -0.21556219085E+03  0.30089851884E+03  0.18649730546E+03 0.  0.
         24    2    3    3    0    0 -0.59861555732E+01 -0.89193540928E+01 -0.28860284779E+02  0.85715088033E+02  0.79992320525E+02 0.  0.
         -6    2    1    2    0  502 -0.70429974107E+02 -0.65812113762E+02  0.20978091678E+03  0.28722971117E+03  0.17088375687E+03 0.  0.
        -24    2    5    5    0    0 -0.72765364366E+02 -0.95555025932E+02  0.21356675322E+03  0.25679096235E+03  0.76845813375E+02 0.  0.
          5    1    3    3  501    0  0.76416129680E+02  0.74731467855E+02 -0.18670190607E+03  0.21518343081E+03  0.47000000000E+01 0. -1.
        -11    1    4    4    0    0 -0.35689011423E+02 -0.39402736168E+01 -0.39864128789E+02  0.53650536406E+02  0.00000000000E+00 0.  1.
         12    1    4    4    0    0  0.29702855850E+02 -0.49790804760E+01  0.11003844011E+02  0.32064551627E+02  0.00000000000E+00 0. -1.
         -5    1    5    5    0  502  0.23353902598E+01  0.29742912170E+02 -0.37858364382E+01  0.30438748817E+02  0.47000000000E+01 0.  1.
         11    1    6    6    0    0 -0.72694960166E+02 -0.32926810366E+02  0.11371684063E+03  0.13892534656E+03  0.00000000000E+00 0. -1.
        -12    1    6    6    0    0 -0.70404200019E-01 -0.62628215566E+02  0.99849912585E+02  0.11786561579E+03  0.00000000000E+00 0.  1.
</event>
<event>
12    1  0.8344842E-002  0.1817702E+03  0.7818608E-02  0.1166212E+00
         21   -1    0    0  503  502  0.00000000000E+00  0.00000000000E+00  0.96543713203E+03  0.96543713203E+03  0.00000000000E+00 0.  1.
         21   -1    0    0  501  503 -0.00000000000E+00 -0.00000000000E+00 -0.66476103392E+02  0.66476103392E+02  0.00000000000E+00 0.  1.
          6    2    1    2  501    0 -0.54935683822E+02  0.17246262301E+02  0.89900700994E+02  0.20278692710E+03  0.17240950915E+03 0.  0.
         24    2    3    3    0    0 -0.37694582518E+02  0.72559900769E+02  0.87362140508E+02  0.14460283594E+03  0.81191229931E+02 0.  0.
         -6    2    1    2    0  502  0.54935683822E+02 -0.17246262301E+02  0.80906032764E+03  0.82912630832E+03  0.17191991875E+03 0.  0.
        -24    2    5    5    0    0  0.89094041424E+02  0.13403801506E+02  0.70688753871E+03  0.71702105151E+03  0.79446748308E+02 0.  0.
          5    1    3    3  501    0 -0.17241101304E+02 -0.55313638468E+02  0.25385604869E+01  0.58184091160E+02  0.47000000000E+01 0. -1.
        -13    1    4    4    0    0  0.41558642274E+01  0.15546758631E+02 -0.13779831370E+02  0.21186237608E+02  0.00000000000E+00 0.  1.
         14    1    4    4    0    0 -0.41850446745E+02  0.57013142138E+02  0.10114197188E+03  0.12341659833E+03  0.00000000000E+00 0. -1.
         -5    1    5    5    0  502 -0.34158357603E+02 -0.30650063808E+02  0.10217278893E+03  0.11210525681E+03  0.47000000000E+01 0.  1.
         11    1    6    6    0    0  0.36059345019E+02  0.22876211760E+02  0.11476048780E+03  0.12244822166E+03  0.00000000000E+00 0. -1.
        -12    1    6    6    0    0  0.53034696405E+02 -0.94724102539E+01  0.59212705091E+03  0.59457282985E+03  0.00000000000E+00 0.  1.
</event>
<event>
12    1  0.8344842E-002  0.1738591E+03  0.7818608E-02  0.1174119E+00
         21   -1    0    0  503  502  0.00000000000E+00  0.00000000000E+00  0.22134855810E+03  0.22134855810E+03  0.00000000000E+00 0. -1.
         21   -1    0    0  501  503 -0.00000000000E+00 -0.00000000000E+00 -0.17909911339E+03  0.17909911339E+03  0.00000000000E+00 0. -1.
          6    2    1    2  501    0 -0.38198937884E+01  0.11920446610E+02 -0.77251652639E+02  0.19024934025E+03  0.17340791503E+03 0.  0.
         24    2    3    3    0    0  0.25803617161E+02  0.11367465142E+02  0.20065681603E+02  0.88413139746E+02  0.81358501579E+02 0.  0.
         -6    2    1    2    0  502  0.38198937884E+01 -0.11920446610E+02  0.11950109735E+03  0.21019833124E+03  0.17247068607E+03 0.  0.
        -24    2    5    5    0    0  0.42177916814E+02 -0.61441424153E+02  0.63860785575E+02  0.12628409264E+03  0.79469785767E+02 0.  0.
          5    1    3    3  501    0 -0.29623510950E+02  0.55298146747E+00 -0.97317334241E+02  0.10183620050E+03  0.47000000000E+01 0. -1.
        -11    1    4    4    0    0  0.68096229662E+01  0.16269602031E+02  0.49777547081E+02  0.52809801255E+02  0.00000000000E+00 0.  1.
         12    1    4    4    0    0  0.18993994195E+02 -0.49021368893E+01 -0.29711865478E+02  0.35603338492E+02  0.00000000000E+00 0. -1.
         -5    1    5    5    0  502 -0.38358023025E+02  0.49520977544E+02  0.55640311770E+02  0.83914238608E+02  0.47000000000E+01 0.  1.
         13    1    6    6    0    0 -0.27282963723E+01 -0.53007342255E+02  0.60480152908E+02  0.80467824811E+02  0.00000000000E+00 0. -1.
        -14    1    6    6    0    0  0.44906213186E+02 -0.84340818984E+01  0.33806326668E+01  0.45816267825E+02  0.00000000000E+00 0.  1.
</event>
<event>
12    1  0.8344842E-002  0.1792151E+03  0.7818608E-02  0.1168659E+00
         21   -1    0    0  503  502  0.00000000000E+00  0.00000000000E+00  0.21380056432E+03  0.21380056432E+03  0.00000000000E+00 0. -1.
         21   -1    0    0  501  503 -0.00000000000E+00 -0.00000000000E+00 -0.27645681508E+03  0.27645681508E+03  0.00000000000E+00 0.  1.
          6    2    1    2  501    0  0.53671096888E+01 -0.45011542804E+02 -0.19716232635E+03  0.26618164386E+03  0.17298797572E+03 0.  0.
         24    2    3    3    0    0 -0.43906692387E+02 -0.62325107440E+02 -0.75928869363E+02  0.13409338479E+03  0.80022659210E+02 0.  0.
         -6    2    1    2    0  502 -0.53671096888E+01  0.45011542804E+02  0.13450607560E+03  0.22407573554E+03  0.17338744485E+03 0.  0.
        -24    2    5    5    0    0 -0.10622688059E+02  0.51954922789E+02  0.16519128034E+03  0.19183440461E+03  0.81854286328E+02 0.  0.
          5    1    3    3  501    0  0.49273802076E+02  0.17313564636E+02 -0.12123345699E+03  0.13208825908E+03  0.47000000000E+01 0. -1.
        -13    1    4    4    0    0  0.15303885504E+01 -0.26905671061E+02 -0.71385725242E+02  0.76303204341E+02  0.00000000000E+00 0.  1.
         14    1    4    4    0    0 -0.45437080938E+02 -0.35419436379E+02 -0.45431441212E+01  0.57790180446E+02  0.00000000000E+00 0. -1.
         -5    1    5    5    0  502  0.52555783702E+01 -0.69433799847E+01 -0.30685204740E+02  0.32241330921E+02  0.47000000000E+01 0.  1.
         13    1    6    6    0    0  0.53191679846E+01 -0.87705040468E+01 -0.42746096271E+01  0.11112496423E+02  0.00000000000E+00 0. -1.
        -14    1    6    6    0    0 -0.15941856044E+02  0.60725426836E+02  0.16946588997E+03  0.18072190819E+03  0.00000000000E+00 0.  1.
</event>
<event>
12    1  0.8344842E-002  0.1952382E+03  0.7818608E-02  0.1154166E+00
         21   -1    0    0  503  502  0.00000000000E+00  0.00000000000E+00  0.31643983842E+02  0.31643983842E+02  0.00000000000E+00 0. -1.
         21   -1    0    0  501  503 -0.00000000000E+00 -0.00000000000E+00 -0.12595206033E+04  0.12595206033E+04  0.00000000000E+00 0.  1.
          6    2    1    2  501    0 -0.84779002690E+02 -0.28556574824E+02 -0.47002355052E+03  0.50895979850E+03  0.17353668543E+03 0.  0.
         24    2    3    3    0    0  0.16444384591E+02  0.69869060269E+01 -0.26874027270E+03  0.28082264438E+03  0.79503388517E+02 0.  0.
         -6    2    1    2    0  502  0.84779002690E+02  0.28556574824E+02 -0.75785306895E+03  0.78220478864E+03  0.17175593148E+03 0.  0.
        -24    2    5    5    0    0  0.37915258145E+01  0.37819931507E+02 -0.18336377121E+03  0.20194206848E+03  0.75588382342E+02 0.  0.
          5    1    3    3  501    0 -0.10122338728E+03 -0.35543480850E+02 -0.20128327782E+03  0.22813715413E+03  0.47000000000E+01 0. -1.
        -13    1    4    4    0    0  0.40795950349E+00 -0.24082376192E+02 -0.21726429632E+03  0.21859529210E+03  0.00000000000E+00 0.  1.
         14    1    4    4    0    0  0.16036425087E+02  0.31069282219E+02 -0.51475976373E+02  0.62227352271E+02  0.00000000000E+00 0. -1.
         -5    1    5    5    0  502  0.80987476875E+02 -0.92633566830E+01 -0.57448929774E+03  0.58026272016E+03  0.47000000000E+01 0.  1.
         13    1    6    6    0    0 -0.14043478779E+02 -0.84433465152E+01 -0.54812928949E+01  0.17278714315E+02  0.00000000000E+00 0. -1.
        -14    1    6    6    0    0  0.17835004594E+02  0.46263278022E+02 -0.17788247831E+03  0.18466335417E+03  0.00000000000E+00 0.  1.
</event>
<event>
12    1  0.8344842E-002  0.3799786E+03  0.7818608E-02  0.1050957E+00
         21   -1    0    0  501  502  0.00000000000E+00  0.00000000000E+00  0.81723424818E+03  0.81723424818E+03  0.00000000000E+00 0. -1.
         21   -1    0    0  502  503 -0.00000000000E+00 -0.00000000000E+00 -0.21819303370E+03  0.21819303370E+03  0.00000000000E+00 0.  1.
         -6    2    1    2    0  503 -0.24377741312E+03 -0.23494442136E+03  0.73525167226E+02  0.38702675918E+03  0.17250348934E+03 0.  0.
        -24    2    3    3    0    0 -0.17195036840E+03 -0.18244050805E+03 -0.11838401856E+02  0.26363788533E+03  0.80705133968E+02 0.  0.
          6    2    1    2  501    0  0.24377741312E+03  0.23494442136E+03  0.52551604725E+03  0.64840052270E+03  0.17213312769E+03 0.  0.
         24    2    5    5    0    0  0.12664170637E+03  0.21187552394E+03  0.37461966438E+03  0.45593037908E+03  0.81260434336E+02 0.  0.
          5    1    5    5  501    0  0.11713570675E+03  0.23068897414E+02  0.15089638288E+03  0.19247014363E+03  0.47000000000E+01 0. -1.
        -13    1    6    6    0    0  0.81895980863E+02  0.69493778407E+02  0.12223989442E+03  0.16272347313E+03  0.00000000000E+00 0.  1.
         14    1    6    6    0    0  0.44745725510E+02  0.14238174553E+03  0.25237976996E+03  0.29320690595E+03  0.00000000000E+00 0. -1.
         -5    1    3    3    0  503 -0.71827044715E+02 -0.52503913304E+02  0.85363569082E+02  0.12338887385E+03  0.47000000000E+01 0.  1.
         11    1    4    4    0    0 -0.12015783025E+03 -0.91537411254E+02  0.24206850978E+02  0.15298030417E+03  0.00000000000E+00 0. -1.
        -12    1    4    4    0    0 -0.51792538154E+02 -0.90903096797E+02 -0.36045252834E+02  0.11065758116E+03  0.00000000000E+00 0.  1.
</event>
<event>
12    1  0.8344842E-002  0.1763504E+03  0.7818608E-02  0.1171977E+00
         21   -1    0    0  503  502  0.00000000000E+00  0.00000000000E+00  0.48592740001E+03  0.48592740001E+03  0.00000000000E+00 0. -1.
         21   -1    0    0  501  503 -0.00000000000E+00 -0.00000000000E+00 -0.12944719540E+03  0.12944719540E+03  0.00000000000E+00 0. -1.
          6    2    1    2  501    0  0.23437272443E+02  0.19454838022E+02 -0.41379066391E+02  0.18113996837E+03  0.17369992672E+03 0.  0.
         24    2    3    3    0    0  0.56728196154E+02  0.48307936296E+02 -0.68515167007E+02  0.12918571120E+03  0.80267520947E+02 0.  0.
         -6    2    1    2    0  502 -0.23437272443E+02 -0.19454838022E+02  0.39785927100E+03  0.43423462704E+03  0.17128898194E+03 0.  0.
        -24    2    5    5    0    0  0.10229746613E+02 -0.62849300405E+02  0.33898081224E+03  0.35357912231E+03  0.77817237060E+02 0.  0.
          5    1    3    3  501    0 -0.33290923711E+02 -0.28853098274E+02  0.27136100617E+02  0.51954257171E+02  0.47000000000E+01 0. -1.
        -13    1    4    4    0    0  0.17740119105E+02  0.24990171237E+02  0.14995170014E+02  0.34118552256E+02  0.00000000000E+00 0.  1.
         14    1    4    4    0    0  0.38988077049E+02  0.23317765060E+02 -0.83510337022E+02  0.95067158940E+02  0.00000000000E+00 0. -1.
         -5    1    5    5    0  502 -0.33667019056E+02  0.43394462383E+02  0.58878458759E+02  0.80655504731E+02  0.47000000000E+01 0.  1.
         11    1    6    6    0    0  0.78932333995E+01 -0.60276471045E+01  0.23377934313E+03  0.23399020693E+03  0.00000000000E+00 0. -1.
        -12    1    6    6    0    0  0.23365132135E+01 -0.56821653300E+02  0.10520146911E+03  0.11958891538E+03  0.00000000000E+00 0.  1.
</event>
<event>
12    1  0.8344842E-002  0.2264246E+03  0.7818608E-02  0.1129184E+00
         21   -1    0    0  503  502  0.00000000000E+00  0.00000000000E+00  0.68798224622E+02  0.68798224622E+02  0.00000000000E+00 0.  1.
         21   -1    0    0  501  503 -0.00000000000E+00 -0.00000000000E+00 -0.74595634088E+03  0.74595634088E+03  0.00000000000E+00 0. -1.
          6    2    1    2  501    0 -0.14484906648E+03 -0.22678168224E+02 -0.32525224315E+03  0.39629804511E+03  0.17253280127E+03 0.  0.
         24    2    3    3    0    0 -0.13182587390E+03  0.43674748809E+02 -0.22657271749E+03  0.27658149685E+03  0.76658876699E+02 0.  0.
         -6    2    1    2    0  502  0.14484906648E+03  0.22678168224E+02 -0.35190587311E+03  0.41845652039E+03  0.17254728208E+03 0.  0.
        -24    2    5    5    0    0  0.31713888000E+02  0.72739790920E+02 -0.14912326647E+03  0.18086735769E+03  0.64640580127E+02 0.  0.
          5    1    3    3  501    0 -0.13023192585E+02 -0.66352917033E+02 -0.98679525656E+02  0.11971654826E+03  0.47000000000E+01 0. -1.
        -11    1    4    4    0    0 -0.14804544517E+02 -0.72576610723E+01  0.55987201641E-01  0.16487914276E+02  0.00000000000E+00 0.  1.
         12    1    4    4    0    0 -0.11702132938E+03  0.50932409881E+02 -0.22662870469E+03  0.26009358257E+03  0.00000000000E+00 0. -1.
         -5    1    5    5    0  502  0.11313517848E+03 -0.50061622696E+02 -0.20278260664E+03  0.23758916270E+03  0.47000000000E+01 0.  1.
         11    1    6    6    0    0 -0.47624872452E+01  0.24401488156E+02 -0.99549352608E+02  0.10260695646E+03  0.00000000000E+00 0. -1.
        -12    1    6    6    0    0  0.36476375245E+02  0.48338302764E+02 -0.49573913865E+02  0.78260401232E+02  0.00000000000E+00 0.  1.
</event>
<event>
12    1  0.8344842E-002  0.1765006E+03  0.7818608E-02  0.1171947E+00
         21   -1    0    0  503  502  0.00000000000E+00  0.00000000000E+00  0.11565202693E+03  0.11565202693E+03  0.00000000000E+00 0. -1.
         21   -1    0    0  501  503 -0.00000000000E+00 -0.00000000000E+00 -0.26786425166E+03  0.26786425166E+03  0.00000000000E+00 0. -1.
          6    2    1    2  501    0  0.85793955456E+01  0.31777050313E+02 -0.95209540915E+02  0.19803912931E+03  0.17050294163E+03 0.  0.
         24    2    3    3    0    0  0.72780861022E+02  0.36349490849E+02 -0.87615717884E+02  0.13305842810E+03  0.58392568470E+02 0.  0.
         -6    2    1    2    0  502 -0.85793955456E+01 -0.31777050313E+02 -0.57002683814E+02  0.18547714928E+03  0.17340438284E+03 0.  0.
        -24    2    5    5    0    0 -0.76878159914E+01  0.12851015516E+02 -0.95958604276E+02  0.12604556750E+03  0.80344136294E+02 0.  0.
          5    1    3    3  501    0 -0.64201465477E+02 -0.45724405358E+01 -0.75938230305E+01  0.64980701212E+02  0.47000000000E+01 0. -1.
        -13    1    4    4    0    0  0.49640096472E+02 -0.67310821991E+01 -0.54347692104E+02  0.73912910120E+02  0.00000000000E+00 0.  1.
         14    1    4    4    0    0  0.23140764550E+02  0.43080573048E+02 -0.33268025780E+02  0.59145517982E+02  0.00000000000E+00 0. -1.
         -5    1    5    5    0  502 -0.89157955418E+00 -0.44628065829E+02  0.38955920462E+02  0.59431581779E+02  0.47000000000E+01 0.  1.
         11    1    6    6    0    0  0.28392292999E+02  0.28516828200E+02 -0.34129551375E+02  0.52765121713E+02  0.00000000000E+00 0. -1.
        -12    1    6    6    0    0 -0.36080108990E+02 -0.15665812684E+02 -0.61829052901E+02  0.73280445785E+02  0.00000000000E+00 0.  1.
</event>
<event>
12    1  0.8344842E-002  0.2629805E+03  0.7818608E-02  0.1105447E+00
         21   -1    0    0  501  502  0.00000000000E+00  0.00000000000E+00  0.18047354709E+03  0.18047354709E+03  0.00000000000E+00 0.  1.
         21   -1    0    0  502  503 -0.00000000000E+00 -0.00000000000E+00 -0.84844981136E+03  0.84844981136E+03  0.00000000000E+00 0.  1.
         -6    2    1    2    0  503 -0.15225473490E+03  0.12772998492E+03 -0.71543190577E+03  0.76223456678E+03  0.17222737780E+03 0.  0.
        -24    2    3    3    0    0 -0.75180891688E+02 -0.36531391677E+01 -0.30343697871E+03  0.32295810199E+03  0.81008787734E+02 0.  0.
          6    2    1    2  501    0  0.15225473490E+03 -0.12772998492E+03  0.47455641494E+02  0.26668879167E+03  0.17138967397E+03 0.  0.
         24    2    5    5    0    0  0.16579357939E+03 -0.89853191813E+02  0.82676343796E+02  0.21301813268E+03  0.54591574262E+02 0.  0.
          5    1    5    5  501    0 -0.13538844486E+02 -0.37876793105E+02 -0.35220702302E+02  0.53670658991E+02  0.47000000000E+01 0. -1.
        -13    1    6    6    0    0  0.41893998565E+02 -0.32781457839E+02  0.49423610815E+02  0.72611461903E+02  0.00000000000E+00 0.  1.
         14    1    6    6    0    0  0.12389958082E+03 -0.57071733975E+02  0.33252732982E+02  0.14040667077E+03  0.00000000000E+00 0. -1.
         -5    1    3    3    0  503 -0.77073843215E+02  0.13138312409E+03 -0.41199492705E+03  0.43927646479E+03  0.47000000000E+01 0.  1.
         11    1    4    4    0    0 -0.22482737075E+02 -0.38595422311E+02 -0.16172290252E+03  0.16777776161E+03  0.00000000000E+00 0. -1.
        -12    1    4    4    0    0 -0.52698154614E+02  0.34942283143E+02 -0.14171407619E+03  0.15518034038E+03  0.00000000000E+00 0.  1.
</event>
<event>
12    1  0.8344842E-002  0.1989872E+03  0.7818608E-02  0.1151492E+00
         21   -1    0    0  501  502  0.00000000000E+00  0.00000000000E+00  0.30121364140E+03  0.30121364140E+03  0.00000000000E+00 0.  1.
         21   -1    0    0  502  503 -0.00000000000E+00 -0.00000000000E+00 -0.40134968924E+03  0.40134968924E+03  0.00000000000E+00 0.  1.
         -6    2    1    2    0  503  0.45592658069E+02  0.79762501879E+02 -0.33975764280E+03  0.39373996635E+03  0.17650823800E+03 0.  0.
        -24    2    3    3    0    0  0.91976216619E+02  0.82815232527E+02 -0.29124151157E+03  0.32638524374E+03  0.79923226322E+02 0.  0.
          6    2    1    2  501    0 -0.45592658069E+02 -0.79762501879E+02  0.23962159496E+03  0.30882336429E+03  0.17179235834E+03 0.  0.
         24    2    5    5    0    0  0.26152390811E+02 -0.24598946999E+02  0.56464709563E+02  0.10447340835E+03  0.80233246768E+02 0.  0.
          5    1    5    5  501    0 -0.71745048880E+02 -0.55163554881E+02  0.18315688540E+03  0.20434995594E+03  0.47000000000E+01 0. -1.
        -11    1    6    6    0    0 -0.15302644632E+01 -0.15457741902E+02  0.70448162708E+02  0.72140329379E+02  0.00000000000E+00 0.  1.
         12    1    6    6    0    0  0.27682655274E+02 -0.91412050970E+01 -0.13983453145E+02  0.32333078967E+02  0.00000000000E+00 0. -1.
         -5    1    3    3    0  503 -0.46383558549E+02 -0.30527306480E+01 -0.48516131231E+02  0.67354722609E+02  0.47000000000E+01 0.  1.
         11    1    4    4    0    0 -0.60052827634E+01  0.31150422247E+02 -0.35061423307E+02  0.47283354699E+02  0.00000000000E+00 0. -1.
        -12    1    4    4    0    0  0.97981499382E+02  0.51664810280E+02 -0.25618008826E+03  0.27910188904E+03  0.00000000000E+00 0.  1.
</event>
<event>
12    1  0.8344842E-002  0.2316250E+03  0.7818608E-02  0.1125668E+00
         21   -1    0    0  503  502  0.00000000000E+00  0.00000000000E+00  0.32635411224E+03  0.32635411224E+03  0.00000000000E+00 0. -1.
         21   -1    0    0  501  503 -0.00000000000E+00 -0.00000000000E+00 -0.16432892223E+03  0.16432892223E+03  0.00000000000E+00 0. -1.
          6    2    1    2  501    0  0.13226653462E+03 -0.80475829692E+02  0.65877176299E+02  0.23989510900E+03  0.17099434382E+03 0.  0.
         24    2    3    3    0    0  0.12168677840E+03 -0.71024302190E+02  0.10812097177E+03  0.19508561369E+03  0.80722540782E+02 0.  0.
         -6    2    1    2    0  502 -0.13226653462E+03  0.80475829692E+02  0.96148013706E+02  0.25078792548E+03  0.17227695052E+03 0.  0.
        -24    2    5    5    0    0 -0.12968319014E+03  0.11828959487E+03  0.79894406807E+02  0.20928100747E+03  0.81272786272E+02 0.  0.
          5    1    3    3  501    0  0.10579756216E+02 -0.94515275027E+01 -0.42243795475E+02  0.44809495309E+02  0.47000000000E+01 0. -1.
        -11    1    4    4    0    0  0.30798765269E+02  0.14748477991E+02  0.40564288185E+02  0.53023985338E+02  0.00000000000E+00 0.  1.
         12    1    4    4    0    0  0.90888013135E+02 -0.85772780181E+02  0.67556683589E+02  0.14206162835E+03  0.00000000000E+00 0. -1.
         -5    1    5    5    0  502 -0.25833444790E+01 -0.37813765175E+02  0.16253606900E+02  0.41506918010E+02  0.47000000000E+01 0.  1.
         13    1    6    6    0    0 -0.45951319150E+01  0.51216737594E+02  0.18732463899E+02  0.54728188813E+02  0.00000000000E+00 0. -1.
        -14    1    6    6    0    0 -0.12508805823E+03  0.67072857274E+02  0.61161942907E+02  0.15455281865E+03  0.00000000000E+00 0.  1.
</event>
<event>
12    1  0.8344842E-002  0.2531291E+03  0.7818608E-02  0.1112894E+00
         21   -1    0    0  503  502  0.00000000000E+00  0.00000000000E+00  0.21415910424E+03  0.21415910424E+03  0.00000000000E+00 0.  1.
         21   -1    0    0  501  503 -0.00000000000E+00 -0.00000000000E+00 -0.28883313240E+03  0.28883313240E+03  0.00000000000E+00 0.  1.
          6    2    1    2  501    0 -0.96023818130E+02  0.15852836061E+03 -0.21254237569E+02  0.24428772630E+03  0.15771155900E+03 0.  0.
         24    2    3    3    0    0 -0.36646260265E+02  0.16223738963E+03 -0.30653593919E+02  0.18387341365E+03  0.72151718205E+02 0.  0.
         -6    2    1    2    0  502  0.96023818130E+02 -0.15852836061E+03 -0.53419790590E+02  0.25870451034E+03  0.17240224731E+03 0.  0.
        -24    2    5    5    0    0  0.45798727886E+02 -0.17191276117E+03 -0.64266452957E+02  0.20539933280E+03  0.80044912445E+02 0.  0.
          5    1    3    3  501    0 -0.59377557865E+02 -0.37090290185E+01  0.93993563501E+01  0.60414312659E+02  0.47000000000E+01 0. -1.
        -11    1    4    4    0    0  0.18957422314E+02  0.72665040035E+02 -0.21148203357E+02  0.78018192810E+02  0.00000000000E+00 0.  1.
         12    1    4    4    0    0 -0.55603682579E+02  0.89572349595E+02 -0.95053905617E+01  0.10585522083E+03  0.00000000000E+00 0. -1.
         -5    1    5    5    0  502  0.50225090244E+02  0.13384400561E+02  0.10846662367E+02  0.53305177543E+02  0.47000000000E+01 0.  1.
         11    1    6    6    0    0 -0.74503534336E+01 -0.22374342299E+01  0.10009135725E+02  0.12676619273E+02  0.00000000000E+00 0. -1.
        -12    1    6    6    0    0  0.53249081320E+02 -0.16967532694E+03 -0.74275588682E+02  0.19272271353E+03  0.00000000000E+00 0.  1.
</event>
<event>
12    1  0.8344842E-002  0.2190443E+03  0.7818608E-02  0.1134657E+00
         21   -1    0    0  501  502  0.00000000000E+00  0.00000000000E+00  0.16457149724E+03  0.16457149724E+03  0.00000000000E+00 0. -1.
         21   -1    0    0  502  503 -0.00000000000E+00 -0.00000000000E+00 -0.36827105493E+03  0.36827105493E+03  0.00000000000E+00 0. -1.
         -6    2    1    2    0  503 -0.23541463615E+02  0.13279856140E+03 -0.22384639690E+03  0.31318941097E+03  0.17259994009E+03 0.  0.
        -24    2    3    3    0    0 -0.28307656805E+02  0.80146513929E+02 -0.23413660671E+03  0.25912525354E+03  0.71422400511E+02 0.  0.
          6    2    1    2  501    0  0.23541463615E+02 -0.13279856140E+03  0.20146839217E+02  0.21965314120E+03  0.17219741256E+03 0.  0.
         24    2    5    5    0    0 -0.32718114947E+02 -0.10131781061E+03  0.56799830655E+02  0.14534493418E+03  0.81013303448E+02 0.  0.
          5    1    5    5  501    0  0.56259578562E+02 -0.31480750787E+02 -0.36652991438E+02  0.74308207026E+02  0.47000000000E+01 0. -1.
        -11    1    6    6    0    0 -0.39398209174E+02 -0.29621487618E+02  0.54241703530E+02  0.73292658681E+02  0.00000000000E+00 0.  1.
         12    1    6    6    0    0  0.66800942266E+01 -0.71696322993E+02  0.25581271252E+01  0.72052275495E+02  0.00000000000E+00 0. -1.
         -5    1    3    3    0  503  0.47661931896E+01  0.52652047468E+02  0.10290209808E+02  0.54064157425E+02  0.47000000000E+01 0.  1.
         13    1    4    4    0    0 -0.50159762820E+02  0.70504370458E+02 -0.17155333431E+03  0.19213905010E+03  0.00000000000E+00 0. -1.
        -14    1    4    4    0    0  0.21852106016E+02  0.96421434713E+01 -0.62583272397E+02  0.66986203445E+02  0.00000000000E+00 0.  1.
</event>
<event>
12    1  0.8344842E-002  0.2274776E+03  0.7818608E-02  0.1128630E+00
         21   -1    0    0  501  502  0.00000000000E+00  0.00000000000E+00  0.22908538412E+03  0.22908538412E+03  0.00000000000E+00 0. -1.
         21   -1    0    0  502  503 -0.00000000000E+00 -0.00000000000E+00 -0.24802380036E+03  0.24802380036E+03  0.00000000000E+00 0. -1.
         -6    2    1    2    0  503 -0.14572469430E+03 -0.20721977832E+02 -0.82503142196E+02  0.24091742431E+03  0.17195740743E+03 0.  0.
        -24    2    3    3    0    0 -0.63978353823E+02 -0.36365071276E+02 -0.10871723346E+03  0.15353070258E+03  0.79602711101E+02 0.  0.
          6    2    1    2  501    0  0.14572469430E+03  0.20721977832E+02  0.63564725962E+02  0.23619176017E+03  0.17343871048E+03 0.  0.
         24    2    5    5    0    0  0.22400983392E+02  0.33334401313E+02 -0.18298857998E+02  0.87559505003E+02  0.75622961754E+02 0.  0.
          5    1    5    5  501    0  0.12332371091E+03 -0.12612423481E+02  0.81863583960E+02  0.14863225517E+03  0.47000000000E+01 0. -1.
        -13    1    6    6    0    0 -0.82625936255E+01  0.30005413629E+02  0.21042755694E+02  0.37568508989E+02  0.00000000000E+00 0.  1.
         14    1    6    6    0    0  0.30663577018E+02  0.33289876840E+01 -0.39341613693E+02  0.49990996014E+02  0.00000000000E+00 0. -1.
         -5    1    3    3    0  503 -0.81746340475E+02  0.15643093444E+02  0.26214091268E+02  0.87386721729E+02  0.47000000000E+01 0.  1.
         11    1    4    4    0    0 -0.53530728648E+02  0.14795647665E+02 -0.47602728627E+02  0.73146906101E+02  0.00000000000E+00 0. -1.
        -12    1    4    4    0    0 -0.10447625175E+02 -0.51160718941E+02 -0.61114504838E+02  0.80383796476E+02  0.00000000000E+00 0.  1.
</event>
<event>
12    1  0.8344842E-002  0.1879253E+03  0.7818608E-02  0.1160752E+00
         21   -1    0    0  503  502  0.00000000000E+00  0.00000000000E+00  0.90584123855E+03  0.90584123855E+03  0.00000000000E+00 0. -1.
         21   -1    0    0  501  503 -0.00000000000E+00 -0.00000000000E+00 -0.38668556555E+02  0.38668556555E+02  0.00000000000E+00 0. -1.
          6    2    1    2  501    0  0.75004427274E+02  0.11104706265E+02  0.41496987851E+03  0.45481266669E+03  0.17001642008E+03 0.  0.
         24    2    3    3    0    0 -0.72715529855E+01 -0.34978749075E+02  0.25134390181E+03  0.26589847444E+03  0.79068662316E+02 0.  0.
         -6    2    1    2    0  502 -0.75004427274E+02 -0.11104706265E+02  0.45220280349E+03  0.48969712842E+03  0.17195035181E+03 0.  0.
        -24    2    5    5    0    0 -0.78158817356E+02 -0.42083313532E+02  0.18273567004E+03  0.21839609581E+03  0.80154373259E+02 0.  0.
          5    1    3    3  501    0  0.82275980260E+02  0.46083455340E+02  0.16362597670E+03  0.18891419225E+03  0.47000000000E+01 0. -1.
        -13    1    4    4    0    0  0.95358362988E+01  0.12586605420E+02  0.16607524673E+03  0.16682428596E+03  0.00000000000E+00 0.  1.
         14    1    4    4    0    0 -0.16807389284E+02 -0.47565354496E+02  0.85268655085E+02  0.99074188479E+02  0.00000000000E+00 0. -1.
         -5    1    5    5    0  502  0.31543900816E+01  0.30978607267E+02  0.26946713345E+03  0.27130103261E+03  0.47000000000E+01 0.  1.
         13    1    6    6    0    0 -0.68997702172E+02  0.72731407985E+01  0.10809011476E+03  0.12844085950E+03  0.00000000000E+00 0. -1.
        -14    1    6    6    0    0 -0.91611151833E+01 -0.49356454331E+02  0.74645555279E+02  0.89955236304E+02  0.00000000000E+00 0.  1.
</event>
<event>
12    1  0.8344842E-002  0.2014957E+03  0.7818608E-02  0.1148942E+00
         21   -1    0    0  501  502  0.00000000000E+00  0.00000000000E+00  0.95954520307E+02  0.95954520307E+02  0.00000000000E+00 0.  1.
         21   -1    0    0  502  503 -0.00000000000E+00 -0.00000000000E+00 -0.46257857654E+03  0.46257857654E+03  0.00000000000E+00 0. -1.
         -6    2    1    2    0  503 -0.37557571931E+02  0.98063569969E+02 -0.96256757548E+02  0.22134030650E+03  0.16940818441E+03 0.  0.
        -24    2    3    3    0    0 -0.83634613007E+02  0.72602530843E+02 -0.98391975014E+02  0.16844411211E+03  0.80165841728E+02 0.  0.
          6    2    1    2  501    0  0.37557571931E+02 -0.98063569969E+02 -0.27036729869E+03  0.33719279035E+03  0.17196937721E+03 0.  0.
         24    2    5    5    0    0  0.30799987477E+02  0.15405466813E+02 -0.13599117395E+03  0.16112484847E+03  0.79256859428E+02 0.  0.
          5    1    5    5  501    0  0.67575844539E+01 -0.11346903678E+03 -0.13437612474E+03  0.17606794187E+03  0.47000000000E+01 0. -1.
        -11    1    6    6    0    0  0.57618153759E+02  0.72880018429E+01 -0.85081485494E+02  0.10301371650E+03  0.00000000000E+00 0.  1.
         12    1    6    6    0    0 -0.26818166282E+02  0.81174649698E+01 -0.50909688460E+02  0.58111131974E+02  0.00000000000E+00 0. -1.
         -5    1    3    3    0  503  0.46077041077E+02  0.25461039126E+02  0.21352174657E+01  0.52896194394E+02  0.47000000000E+01 0.  1.
         11    1    4    4    0    0  0.49934131948E+01  0.44255566793E+01 -0.43265066068E+02  0.43776542452E+02  0.00000000000E+00 0. -1.
        -12    1    4    4    0    0 -0.88628026202E+02  0.68176974164E+02 -0.55126908946E+02  0.12466756966E+03  0.00000000000E+00 0.  1.
</event>
<event>
12    1  0.8344842E-002  0.2449169E+03  0.7818608E-02  0.1119246E+00
         21   -1    0    0  503  502  0.00000000000E+00  0.00000000000E+00  0.26887859347E+03  0.26887859347E+03  0.00000000000E+00 0.  1.
         21   -1    0    0  501  503 -0.00000000000E+00 -0.00000000000E+00 -0.34560665396E+03  0.34560665396E+03  0.00000000000E+00 0.  1.
          6    2    1    2  501    0 -0.22637037415E+02 -0.14922311878E+03 -0.23239952058E+03  0.33762969511E+03  0.19288416009E+03 0.  0.
         24    2    3    3    0    0  0.10438797528E+02 -0.21442268813E+02 -0.17429297996E+03  0.19333687985E+03  0.80202037745E+02 0.  0.
         -6    2    1    2    0  502  0.22637037415E+02  0.14922311878E+03  0.15567146010E+03  0.27685555232E+03  0.17214940814E+03 0.  0.
        -24    2    5    5    0    0  0.52363515908E+02  0.33072347565E+02  0.11123761251E+03  0.14890586695E+03  0.77223265937E+02 0.  0.
          5    1    3    3  501    0 -0.33075834943E+02 -0.12778084996E+03 -0.58106540622E+02  0.14429281527E+03  0.47000000000E+01 0. -1.
        -13    1    4    4    0    0 -0.99711337327E+01 -0.42994712942E+02 -0.55597914084E+02  0.70986596617E+02  0.00000000000E+00 0.  1.
         14    1    4    4    0    0  0.20409931261E+02  0.21552444128E+02 -0.11869506588E+03  0.12235028323E+03  0.00000000000E+00 0. -1.
         -5    1    5    5    0  502 -0.29726478493E+02  0.11615077121E+03  0.44433847585E+02  0.12794968538E+03  0.47000000000E+01 0.  1.
         13    1    6    6    0    0 -0.45371345008E+00  0.39970142603E+01 -0.11487118449E+02  0.12171107967E+02  0.00000000000E+00 0. -1.
        -14    1    6    6    0    0  0.52817229358E+02  0.29075333305E+02  0.12272473096E+03  0.13673475898E+03  0.00000000000E+00 0.  1.
</event>
<event>
12    1  0.8344842E-002  0.1884148E+03  0.7818608E-02  0.1163473E+00
         21   -1    0    0  503  502  0.00000000000E+00  0.00000000000E+00  0.10207215705E+03  0.10207215705E+03  0.00000000000E+00 0.  1.
         21   -1    0    0  501  503 -0.00000000000E+00 -0.00000000000E+00 -0.32066249873E+03  0.32066249873E+03  0.00000000000E+00 0.  1.
          6    2    1    2  501    0  0.91156693825E+01  0.10869990054E+01 -0.11406295640E+03  0.22025096905E+03  0.18819100496E+03 0.  0.
         24    2    3    3    0    0  0.17180258336E+02  0.71368538324E+02 -0.10026022764E+03  0.14802121282E+03  0.80433429981E+02 0.  0.
         -6    2    1    2    0  502 -0.91156693825E+01 -0.10869990054E+01 -0.10452738528E+03  0.20248368673E+03  0.17317445575E+03 0.  0.
        -24    2    5    5    0    0 -0.78314318245E+02  0.15779177792E+02 -0.59713730277E+02  0.11820276007E+03  0.63435384526E+02 0.  0.
          5    1    3    3  501    0 -0.80645889535E+01 -0.70281539319E+02 -0.13802728764E+02  0.72229756232E+02  0.47000000000E+01 0. -1.
        -13    1    4    4    0    0 -0.12469617308E+02  0.74755969319E+02 -0.86952000169E+02  0.11534555318E+03  0.00000000000E+00 0.  1.
         14    1    4    4    0    0  0.29649875644E+02 -0.33874309948E+01 -0.13308227470E+02  0.32675659639E+02  0.00000000000E+00 0. -1.
         -5    1    5    5    0  502  0.69198648863E+02 -0.16866176797E+02 -0.44813655008E+02  0.84280926664E+02  0.47000000000E+01 0.  1.
         13    1    6    6    0    0 -0.36071692609E+02 -0.23513586134E+02 -0.34791159470E+02  0.55357750296E+02  0.00000000000E+00 0. -1.
        -14    1    6    6    0    0 -0.42242625636E+02  0.39292763926E+02 -0.24922570807E+02  0.62845009771E+02  0.00000000000E+00 0.  1.
</event>
<event>
12    1  0.8344842E-002  0.1859031E+03  0.7818608E-02  0.1162376E+00
         21   -1    0    0  501  502  0.00000000000E+00  0.00000000000E+00  0.52060263199E+02  0.52060263199E+02  0.00000000000E+00 0.  1.
         21   -1    0    0  502  503 -0.00000000000E+00 -0.00000000000E+00 -0.86874181863E+03  0.86874181863E+03  0.00000000000E+00 0.  1.
         -6    2    1    2    0  503  0.46513811598E+02  0.54145650515E+02 -0.63272607178E+03  0.65926892453E+03  0.17087406709E+03 0.  0.
        -24    2    3    3    0    0 -0.33865690035E+02  0.46066088854E+02 -0.42603026664E+03  0.43729732846E+03  0.80362901152E+02 0.  0.
          6    2    1    2  501    0 -0.46513811598E+02 -0.54145650515E+02 -0.18395548365E+03  0.26153315730E+03  0.17165280732E+03 0.  0.
         24    2    5    5    0    0  0.20637485068E+02 -0.64787825952E+02 -0.23730803297E+02  0.87416556320E+02  0.49549319997E+02 0.  0.
          5    1    5    5  501    0 -0.67151296666E+02  0.10642175437E+02 -0.16022468035E+03  0.17411660098E+03  0.47000000000E+01 0. -1.
        -13    1    6    6    0    0 -0.60215040427E+01  0.22386463076E+00  0.82494631324E+01  0.10215785250E+02  0.00000000000E+00 0.  1.
         14    1    6    6    0    0  0.26658989111E+02 -0.65011690582E+02 -0.31980266430E+02  0.77200771069E+02  0.00000000000E+00 0. -1.
         -5    1    3    3    0  503  0.80379501633E+02  0.80795616606E+01 -0.20669580514E+03  0.22197159607E+03  0.47000000000E+01 0.  1.
         11    1    4    4    0    0  0.23084289180E+01  0.92596045769E+01 -0.15219529166E+01  0.96636153519E+01  0.00000000000E+00 0. -1.
        -12    1    4    4    0    0 -0.36174118953E+02  0.36806484278E+02 -0.42450831372E+03  0.42763371311E+03  0.00000000000E+00 0.  1.
</event>
<event>
12    1  0.8344842E-002  0.2302923E+03  0.7818608E-02  0.1128412E+00
         21   -1    0    0  503  502  0.00000000000E+00  0.00000000000E+00  0.67652085485E+02  0.67652085485E+02  0.00000000000E+00 0. -1.
         21   -1    0    0  501  503 -0.00000000000E+00 -0.00000000000E+00 -0.96379879165E+03  0.96379879165E+03  0.00000000000E+00 0. -1.
          6    2    1    2  501    0 -0.88432208670E+02 -0.12426897802E+03 -0.68412185376E+03  0.71841879366E+03  0.15760652863E+03 0.  0.
         24    2    3    3    0    0 -0.94270305998E+02 -0.44687148482E+02 -0.33176281580E+03  0.35710683343E+03  0.81085712079E+02 0.  0.
         -6    2    1    2    0  502  0.88432208670E+02  0.12426897802E+03 -0.21202485240E+03  0.31303208347E+03  0.17254423438E+03 0.  0.
        -24    2    5    5    0    0  0.10584347465E+03  0.11434489629E+03 -0.22761870577E+03  0.28720771815E+03  0.80002510707E+02 0.  0.
          5    1    3    3  501    0  0.58380973288E+01 -0.79581829540E+02 -0.35235903796E+03  0.36131196023E+03  0.47000000000E+01 0. -1.
        -11    1    4    4    0    0 -0.73167722643E+02 -0.56239369645E+02 -0.31378480316E+03  0.32707382198E+03  0.00000000000E+00 0.  1.
         12    1    4    4    0    0 -0.21102583356E+02  0.11552221163E+02 -0.17978012646E+02  0.30033011451E+02  0.00000000000E+00 0. -1.
         -5    1    5    5    0  502 -0.17411265985E+02  0.99240817360E+01  0.15593853361E+02  0.25824365320E+02  0.47000000000E+01 0.  1.
         13    1    6    6    0    0  0.99214326876E+02  0.85898798487E+02 -0.12771094761E+03  0.18311791932E+03  0.00000000000E+00 0. -1.
        -14    1    6    6    0    0  0.66291477791E+01  0.28446097798E+02 -0.99907758158E+02  0.10408979883E+03  0.00000000000E+00 0.  1.
</event>
<event>
12    1  0.8344842E-002  0.1953633E+03  0.7818608E-02  0.1154387E+00
         21   -1    0    0  501  502  0.00000000000E+00  0.00000000000E+00  0.87128449240E+02  0.87128449240E+02  0.00000000000E+00 0.  1.
         21   -1    0    0  502  503 -0.00000000000E+00 -0.00000000000E+00 -0.63507571022E+03  0.63507571022E+03  0.00000000000E+00 0. -1.
         -6    2    1    2    0  503  0.71322442340E+02 -0.55111005363E+02 -0.47710468386E+03  0.51439298003E+03  0.16984447252E+03 0.  0.
        -24    2    3    3    0    0  0.41522156037E+02 -0.27738410878E+02 -0.45955956231E+03  0.47003943133E+03  0.85138515415E+02 0.  0.
          6    2    1    2  501    0 -0.71322442340E+02  0.55111005363E+02 -0.70842577120E+02  0.20781117943E+03  0.17332830661E+03 0.  0.
         24    2    5    5    0    0 -0.98509858211E+01  0.37002711552E+02 -0.10274538941E+03  0.13607186174E+03  0.80577254416E+02 0.  0.
          5    1    5    5  501    0 -0.61471456519E+02  0.18108293810E+02  0.31902812287E+02  0.71739317693E+02  0.47000000000E+01 0. -1.
        -11    1    6    6    0    0 -0.39685882920E+02  0.43082284017E+02 -0.63327260426E+02  0.86263517273E+02  0.00000000000E+00 0.  1.
         12    1    6    6    0    0  0.29834897099E+02 -0.60795724645E+01 -0.39418128981E+02  0.49808344467E+02  0.00000000000E+00 0. -1.
         -5    1    3    3    0  503  0.29800286302E+02 -0.27372594484E+02 -0.17545121551E+02  0.44353548705E+02  0.47000000000E+01 0.  1.
         11    1    4    4    0    0 -0.26205150379E+02 -0.26494801570E+01 -0.13411536763E+03  0.13667721642E+03  0.00000000000E+00 0. -1.
        -12    1    4    4    0    0  0.67727306417E+02 -0.25088930721E+02 -0.32544419468E+03  0.33336221491E+03  0.00000000000E+00 0.  1.
</event>
<event>
12    1  0.8344842E-002  0.2424910E+03  0.7818608E-02  0.1118236E+00
         21   -1    0    0  503  502  0.00000000000E+00  0.00000000000E+00  0.21340175224E+03  0.21340175224E+03  0.00000000000E+00 0. -1.
         21   -1    0    0  501  503 -0.00000000000E+00 -0.00000000000E+00 -0.11442261125E+04  0.11442261125E+04  0.00000000000E+00 0.  1.
          6    2    1    2  501    0  0.98425031354E+02  0.13748186332E+03 -0.10572135550E+04  0.10846669549E+04  0.17381930999E+03 0.  0.
         24    2    3    3    0    0  0.10787303232E+03  0.60442899571E+02 -0.86206901728E+03  0.87460090033E+03  0.80459984459E+02 0.  0.
         -6    2    1    2    0  502 -0.98425031354E+02 -0.13748186332E+03  0.12638919475E+03  0.27296090987E+03  0.17304531264E+03 0.  0.
        -24    2    5    5    0    0 -0.97882443443E+02 -0.15202805002E+03  0.14829329638E+03  0.24624451758E+03  0.77148946604E+02 0.  0.
          5    1    3    3  501    0 -0.94480009687E+01  0.77038963753E+02 -0.19514453777E+03  0.21006605456E+03  0.47000000000E+01 0. -1.
        -11    1    4    4    0    0  0.89029153393E+02  0.49667820918E+02 -0.42740391826E+03  0.43939411914E+03  0.00000000000E+00 0.  1.
         12    1    4    4    0    0  0.18843878930E+02  0.10775078653E+02 -0.43466509901E+03  0.43520678119E+03  0.00000000000E+00 0. -1.
         -5    1    5    5    0  502 -0.54258791154E+00  0.14546186694E+02 -0.21904101623E+02  0.26716392288E+02  0.47000000000E+01 0.  1.
         13    1    6    6    0    0 -0.83904164661E+02 -0.81493421011E+02  0.57237105384E+02  0.13021970952E+03  0.00000000000E+00 0. -1.
        -14    1    6    6    0    0 -0.13978278781E+02 -0.70534629008E+02  0.91056190992E+02  0.11602480806E+03  0.00000000000E+00 0.  1.
</event>
<event>
12    1  0.8344842E-002  0.2216359E+03  0.7818608E-02  0.1132892E+00
         21   -1    0    0  503  502  0.00000000000E+00  0.00000000000E+00  0.94187456081E+03  0.94187456081E+03  0.00000000000E+00 0.  1.
         21   -1    0    0  501  503 -0.00000000000E+00 -0.00000000000E+00 -0.62852604331E+02  0.62852604331E+02  0.00000000000E+00 0. -1.
          6    2    1    2  501    0 -0.12901441011E+03  0.48573165014E+02  0.23051381320E+03  0.31977973465E+03  0.17354650742E+03 0.  0.
         24    2    3    3    0    0 -0.67916790234E+02 -0.26783588335E+02  0.18329891583E+03  0.21178484605E+03  0.76969328116E+02 0.  0.
         -6    2    1    2    0  502  0.12901441011E+03 -0.48573165014E+02  0.64850814327E+03  0.68494743049E+03  0.17200610533E+03 0.  0.
        -24    2    5    5    0    0  0.14705707495E+03 -0.30804282369E+02  0.63178786817E+03  0.65424028890E+03  0.79371015792E+02 0.  0.
          5    1    3    3  501    0 -0.61097619876E+02  0.75356753349E+02  0.47214897371E+02  0.10799488860E+03  0.47000000000E+01 0. -1.
        -13    1    4    4    0    0 -0.33240623974E+02 -0.32104066050E+02  0.31360368768E+02  0.55848749927E+02  0.00000000000E+00 0.  1.
         14    1    4    4    0    0 -0.34676166260E+02  0.53204777144E+01  0.15193854707E+03  0.15593609612E+03  0.00000000000E+00 0. -1.
         -5    1    5    5    0  502 -0.18042664844E+02 -0.17768882644E+02  0.16720275102E+02  0.30707141589E+02  0.47000000000E+01 0.  1.
         11    1    6    6    0    0  0.19887582797E+02 -0.26679890744E+02  0.24034761387E+03  0.24264028522E+03  0.00000000000E+00 0. -1.
        -12    1    6    6    0    0  0.12716949216E+03 -0.41243916252E+01  0.39144025430E+03  0.41160000368E+03  0.00000000000E+00 0.  1.
</event>
<event>
12    1  0.8344842E-002  0.1765589E+03  0.7818608E-02  0.1171219E+00
         21   -1    0    0  501  502  0.00000000000E+00  0.00000000000E+00  0.61053053738E+03  0.61053053738E+03  0.00000000000E+00 0.  1.
         21   -1    0    0  502  503 -0.00000000000E+00 -0.00000000000E+00 -0.80819681503E+03  0.80819681503E+03  0.00000000000E+00 0. -1.
         -6    2    1    2    0  503  0.43961691350E+02 -0.11907848385E+02 -0.78544363861E+03  0.80500487007E+03  0.17040159694E+03 0.  0.
        -24    2    3    3    0    0  0.22191761566E+02  0.58333539714E+02 -0.50641322857E+03  0.51640853923E+03  0.79549639738E+02 0.  0.
          6    2    1    2  501    0 -0.43961691350E+02  0.11907848385E+02  0.58777736096E+03  0.61372248234E+03  0.17058321172E+03 0.  0.
         24    2    5    5    0    0 -0.73517043458E+02  0.31348200858E+02  0.55122356732E+03  0.56263710311E+03  0.79533786832E+02 0.  0.
          5    1    5    5  501    0  0.29555352107E+02 -0.19440352472E+02  0.36553793640E+02  0.51085379238E+02  0.47000000000E+01 0. -1.
        -11    1    6    6    0    0 -0.20633354477E+02 -0.27014256281E+02  0.16745840729E+03  0.17087370638E+03  0.00000000000E+00 0.  1.
         12    1    6    6    0    0 -0.52883688981E+02  0.58362457139E+02  0.38376516003E+03  0.39176339672E+03  0.00000000000E+00 0. -1.
         -5    1    3    3    0  503  0.21769929784E+02 -0.70241388100E+02 -0.27903041004E+03  0.28859633084E+03  0.47000000000E+01 0.  1.
         11    1    4    4    0    0 -0.21197012554E+02  0.51350829857E+01 -0.25050114228E+03  0.25144881130E+03  0.00000000000E+00 0. -1.
        -12    1    4    4    0    0  0.43388774120E+02  0.53198456729E+02 -0.25591208629E+03  0.26495972793E+03  0.00000000000E+00 0.  1.
</event>
<event>
12    1  0.8344842E-002  0.2272336E+03  0.7818608E-02  0.1128844E+00
         21   -1    0    0  501  502  0.00000000000E+00  0.00000000000E+00  0.10716776613E+04  0.10716776613E+04  0.00000000000E+00 0.  1.
         21   -1    0    0  502  503 -0.00000000000E+00 -0.00000000000E+00 -0.48165210397E+02  0.48165210397E+02  0.00000000000E+00 0. -1.
         -6    2    1    2    0  503  0.39823981343E+02 -0.14425076700E+03  0.55213538285E+03  0.59655379251E+03  0.16920021602E+03 0.  0.
        -24    2    3    3    0    0  0.59468395046E+02 -0.22759709352E+02  0.22594071295E+03  0.24788341415E+03  0.79639731693E+02 0.  0.
          6    2    1    2  501    0 -0.39823981343E+02  0.14425076700E+03  0.47137706803E+03  0.52328907916E+03  0.17099966910E+03 0.  0.
         24    2    5    5    0    0  0.28013264933E+02  0.12099987532E+03  0.38526497038E+03  0.41112901805E+03  0.71918420737E+02 0.  0.
          5    1    5    5  501    0 -0.67837246275E+02  0.23250891681E+02  0.86112097654E+02  0.11216006111E+03  0.47000000000E+01 0. -1.
        -11    1    6    6    0    0 -0.21631431879E+02  0.24637338283E+02  0.12418500537E+03  0.12843999705E+03  0.00000000000E+00 0.  1.
         12    1    6    6    0    0  0.49644696812E+02  0.96362537035E+02  0.26107996500E+03  0.28268902100E+03  0.00000000000E+00 0. -1.
         -5    1    3    3    0  503 -0.19644413703E+02 -0.12149105765E+03  0.32619466990E+03  0.34867037836E+03  0.47000000000E+01 0.  1.
         13    1    4    4    0    0  0.47582992765E+02 -0.51499561379E+02  0.16972858328E+03  0.18364132978E+03  0.00000000000E+00 0. -1.
        -14    1    4    4    0    0  0.11885402281E+02  0.28739852026E+02  0.56212129669E+02  0.64242084367E+02  0.00000000000E+00 0.  1.
</event>
<event>
12    1  0.8344842E-002  0.4960906E+03  0.7818608E-02  0.1014827E+00
         21   -1    0    0  503  502  0.00000000000E+00  0.00000000000E+00  0.63231619911E+03  0.63231619911E+03  0.00000000000E+00 0.  1.
         21   -1    0    0  501  503 -0.00000000000E+00 -0.00000000000E+00 -0.62086132615E+03  0.62086132615E+03  0.00000000000E+00 0. -1.
          6    2    1    2  501    0 -0.45733719517E+03 -0.81500243061E+02 -0.37722980083E+03  0.62322401173E+03  0.17408689343E+03 0.  0.
         24    2    3    3    0    0 -0.33542269838E+03 -0.11346531595E+03 -0.23054775098E+03  0.42977473114E+03  0.78557555563E+02 0.  0.
         -6    2    1    2    0  502  0.45733719517E+03  0.81500243061E+02  0.38868467379E+03  0.62995351353E+03  0.17310705898E+03 0.  0.
        -24    2    5    5    0    0  0.24974279799E+03  0.54371753399E+02  0.13278964730E+03  0.29929395556E+03  0.81338974008E+02 0.  0.
          5    1    3    3  501    0 -0.12191449679E+03  0.31965072893E+02 -0.14668204985E+03  0.19344928059E+03  0.47000000000E+01 0. -1.
        -11    1    4    4    0    0 -0.29746200787E+03 -0.12193163545E+03 -0.21974732231E+03  0.38940962431E+03  0.00000000000E+00 0.  1.
         12    1    4    4    0    0 -0.37960690510E+02  0.84663194920E+01 -0.10800428668E+02  0.40365106826E+02  0.00000000000E+00 0. -1.
         -5    1    5    5    0  502  0.20759439718E+03  0.27128489662E+02  0.25589502649E+03  0.33065955797E+03  0.47000000000E+01 0.  1.
         11    1    6    6    0    0  0.44344662883E+02 -0.21414018043E+02  0.22263345387E+02  0.54043184980E+02  0.00000000000E+00 0. -1.
        -12    1    6    6    0    0  0.20539813510E+03  0.75785771442E+02  0.11052630191E+03  0.24525077058E+03  0.00000000000E+00 0.  1.
</event>
<event>
12    1  0.8344842E-002  0.2249115E+03  0.7818608E-02  0.1130401E+00
         21   -1    0    0  503  502  0.00000000000E+00  0.00000000000E+00  0.12113516615E+03  0.12113516615E+03  0.00000000000E+00 0. -1.
         21   -1    0    0  501  503 -0.00000000000E+00 -0.00000000000E+00 -0.56972139484E+03  0.56972139484E+03  0.00000000000E+00 0. -1.
          6    2    1    2  501    0 -0.14369804459E+03 -0.17836567090E+02 -0.40329766212E+03  0.46143067420E+03  0.17117824535E+03 0.  0.
         24    2    3    3    0    0 -0.83070942641E+02 -0.62336593436E+02 -0.32689022433E+03  0.35411765363E+03  0.88065097835E+02 0.  0.
         -6    2    1    2    0  502  0.14369804459E+03  0.17836567090E+02 -0.45288566571E+02  0.22942588679E+03  0.17209855351E+03 0.  0.
        -24    2    5    5    0    0  0.43665088828E+02  0.59102167892E+00  0.40590350962E+02  0.96379731067E+02  0.75726393552E+02 0.  0.
          5    1    3    3  501    0 -0.60627101949E+02  0.44500026347E+02 -0.76407437791E+02  0.10731302058E+03  0.47000000000E+01 0. -1.
        -13    1    4    4    0    0 -0.80667073397E+02 -0.81718269798E+02 -0.29687620962E+03  0.31830886916E+03  0.00000000000E+00 0.  1.
         14    1    4    4    0    0 -0.24038692440E+01  0.19381676362E+02 -0.30014014707E+02  0.35808784464E+02  0.00000000000E+00 0. -1.
         -5    1    5    5    0  502  0.10003295576E+03  0.17245545411E+02 -0.85878917532E+02  0.13304615572E+03  0.47000000000E+01 0.  1.
         13    1    6    6    0    0  0.63039927842E+02 -0.11699456561E+02  0.33641808941E+02  0.72406360874E+02  0.00000000000E+00 0. -1.
        -14    1    6    6    0    0 -0.19374839014E+02  0.12290478240E+02  0.69485420206E+01  0.23973370193E+02  0.00000000000E+00 0.  1.
</event>
<event>
12    1  0.8344842E-002  0.2678533E+03  0.7818608E-02  0.1102619E+00
         21   -1    0    0  501  502  0.00000000000E+00  0.00000000000E+00  0.27538987642E+03  0.27538987642E+03  0.00000000000E+00 0. -1.
         21   -1    0    0  502  503 -0.00000000000E+00 -0.00000000000E+00 -0.26965326995E+03  0.26965326995E+03  0.00000000000E+00 0. -1.
         -6    2    1    2    0  503 -0.16328166144E+03 -0.12397056016E+03  0.54900656907E+02  0.27342177742E+03  0.17238267166E+03 0.  0.
        -24    2    3    3    0    0 -0.51842563588E+02  0.52891579771E+01  0.61596915107E+01  0.95870322987E+02  0.80234347001E+02 0.  0.
          6    2    1    2  501    0  0.16328166144E+03  0.12397056016E+03 -0.49164050433E+02  0.27162136895E+03  0.17126430879E+03 0.  0.
         24    2    5    5    0    0  0.11355083759E+03  0.14340710198E+03 -0.72371630017E+02  0.21321233070E+03  0.82234150536E+02 0.  0.
          5    1    5    5  501    0  0.49730823855E+02 -0.19436541819E+02  0.23207579584E+02  0.58409038251E+02  0.47000000000E+01 0. -1.
        -11    1    6    6    0    0  0.23393330678E+02  0.94754828911E+02 -0.27741133200E+02  0.10146573803E+03  0.00000000000E+00 0.  1.
         12    1    6    6    0    0  0.90157506912E+02  0.48652273071E+02 -0.44630496817E+02  0.11174659267E+03  0.00000000000E+00 0. -1.
         -5    1    3    3    0  503 -0.11143909786E+03 -0.12925971814E+03  0.48740965396E+02  0.17755145444E+03  0.47000000000E+01 0.  1.
         11    1    4    4    0    0 -0.55397849140E+02 -0.25830804763E+02  0.15735236727E+02  0.63116953657E+02  0.00000000000E+00 0. -1.
        -12    1    4    4    0    0  0.35552855516E+01  0.31119962740E+02 -0.95755452165E+01  0.32753369331E+02  0.00000000000E+00 0.  1.
</event>
<event>
12    1  0.8344842E-002  0.1778174E+03  0.7818608E-02  0.1170258E+00
         21   -1    0    0  503  502  0.00000000000E+00  0.00000000000E+00  0.17700983510E+03  0.17700983510E+03  0.00000000000E+00 0. -1.
         21   -1    0    0  501  503 -0.00000000000E+00 -0.00000000000E+00 -0.28744203076E+03  0.28744203076E+03  0.00000000000E+00 0. -1.
          6    2    1    2  501    0  0.25108050533E+02  0.33090839427E+02 -0.19883569169E+03  0.26587136583E+03  0.17154163641E+03 0.  0.
         24    2    3    3    0    0 -0.96089514907E+01  0.47880066482E+02 -0.43505764888E+02  0.10595430099E+03  0.83359040331E+02 0.  0.
         -6    2    1    2    0  502 -0.25108050533E+02 -0.33090839427E+02  0.88403496034E+02  0.19858050003E+03  0.17289771261E+03 0.  0.
        -24    2    5    5    0    0  0.34568409166E+02 -0.39502614631E+02  0.99286312970E+02  0.13740112109E+03  0.79157214817E+02 0.  0.
          5    1    3    3  501    0  0.34717002024E+02 -0.14789227056E+02 -0.15532992681E+03  0.15991706484E+03  0.47000000000E+01 0. -1.
        -11    1    4    4    0    0  0.13753118687E+02  0.65606868808E+02 -0.26705352087E+02  0.72156672169E+02  0.00000000000E+00 0.  1.
         12    1    4    4    0    0 -0.23362070178E+02 -0.17726802326E+02 -0.16800412801E+02  0.33797628822E+02  0.00000000000E+00 0. -1.
         -5    1    5    5    0  502 -0.59676459699E+02  0.64117752043E+01 -0.10882816936E+02  0.61179378944E+02  0.47000000000E+01 0.  1.
         13    1    6    6    0    0 -0.17489149289E+02 -0.21728544746E+02  0.69406574321E+02  0.74801554520E+02  0.00000000000E+00 0. -1.
        -14    1    6    6    0    0  0.52057558454E+02 -0.17774069885E+02  0.29879738649E+02  0.62599566566E+02  0.00000000000E+00 0.  1.
</event>
<event>
12    1  0.8344842E-002  0.1847607E+03  0.7818608E-02  0.1164377E+00
         21   -1    0    0  503  502  0.00000000000E+00  0.00000000000E+00  0.14308945786E+03  0.14308945786E+03  0.00000000000E+00 0.  1.
         21   -1    0    0  501  503 -0.00000000000E+00 -0.00000000000E+00 -0.24546003424E+03  0.24546003424E+03  0.00000000000E+00 0.  1.
          6    2    1    2  501    0  0.12775614472E+02 -0.67252229340E+02 -0.96278392794E+02  0.20834120605E+03  0.17161133570E+03 0.  0.
         24    2    3    3    0    0  0.30970454971E+02 -0.64679017470E+02 -0.12632284225E+03  0.17281047873E+03  0.93613336143E+02 0.  0.
         -6    2    1    2    0  502 -0.12775614472E+02  0.67252229340E+02 -0.60921835876E+01  0.18020828605E+03  0.16658881410E+03 0.  0.
        -24    2    5    5    0    0 -0.18733570837E+01  0.10988886474E+03 -0.10107780267E+02  0.13576779875E+03  0.79067413608E+02 0.  0.
          5    1    3    3  501    0 -0.18194840499E+02 -0.25732118700E+01  0.30044449457E+02  0.35530727312E+02  0.47000000000E+01 0. -1.
        -13    1    4    4    0    0 -0.18942630539E+02  0.14237959934E+02 -0.17753966328E+02  0.29609898264E+02  0.00000000000E+00 0.  1.
         14    1    4    4    0    0  0.49913085510E+02 -0.78916977404E+02 -0.10856887592E+03  0.14320058047E+03  0.00000000000E+00 0. -1.
         -5    1    5    5    0  502 -0.10902257388E+02 -0.42636635404E+02  0.40155966798E+01  0.44440487300E+02  0.47000000000E+01 0.  1.
         11    1    6    6    0    0  0.38003045769E+02  0.54891166827E+02  0.18604736226E+01  0.66788719447E+02  0.00000000000E+00 0. -1.
        -12    1    6    6    0    0 -0.39876402852E+02  0.54997697917E+02 -0.11968253890E+02  0.68979079305E+02  0.00000000000E+00 0.  1.
</event>
<event>
12    1  0.8344842E-002  0.2597802E+03  0.7818608E-02  0.1107656E+00
         21   -1    0    0  503  502  0.00000000000E+00  0.00000000000E+00  0.42883044568E+03  0.42883044568E+03  0.00000000000E+00 0.  1.
         21   -1    0    0  501  503 -0.00000000000E+00 -0.00000000000E+00 -0.23037347051E+03  0.23037347051E+03  0.00000000000E+00 0. -1.
          6    2    1    2  501    0 -0.11092790501E+03  0.16025957594E+03 -0.88561172959E+02  0.27207971889E+03  0.16791712326E+03 0.  0.
         24    2    3    3    0    0 -0.12928697319E+03  0.86121239543E+02 -0.33720553408E+02  0.17793551109E+03  0.79949865837E+02 0.  0.
         -6    2    1    2    0  502  0.11092790501E+03 -0.16025957594E+03  0.28701814812E+03  0.38712419730E+03  0.17174863899E+03 0.  0.
        -24    2    5    5    0    0  0.12654834565E+03 -0.14635288541E+03  0.29708104292E+03  0.36344412003E+03  0.80005196538E+02 0.  0.
          5    1    3    3  501    0  0.18359068187E+02  0.74138336402E+02 -0.54840619551E+02  0.94144207798E+02  0.47000000000E+01 0. -1.
        -13    1    4    4    0    0 -0.72179213234E+02  0.32622133913E+02  0.21602522896E+02  0.82101835786E+02  0.00000000000E+00 0.  1.
         14    1    4    4    0    0 -0.57107759960E+02  0.53499105630E+02 -0.55323076304E+02  0.95833675306E+02  0.00000000000E+00 0. -1.
         -5    1    5    5    0  502 -0.15620440644E+02 -0.13906690536E+02 -0.10062894798E+02  0.23680077265E+02  0.47000000000E+01 0.  1.
         11    1    6    6    0    0  0.62638691801E+01  0.85469709048E+01  0.31948511452E+02  0.33659978502E+02  0.00000000000E+00 0. -1.
        -12    1    6    6    0    0  0.12028447647E+03 -0.15489985631E+03  0.26513253147E+03  0.32978414153E+03  0.00000000000E+00 0.  1.
</event>
<event>
12    1  0.8344842E-002  0.2274708E+03  0.7818608E-02  0.1128786E+00
         21   -1    0    0  501  502  0.00000000000E+00  0.00000000000E+00  0.72525774874E+03  0.72525774874E+03  0.00000000000E+00 0. -1.
         21   -1    0    0  502  503 -0.00000000000E+00 -0.00000000000E+00 -0.88621713089E+02  0.88621713089E+02  0.00000000000E+00 0.  1.
         -6    2    1    2    0  503 -0.38172469649E+02 -0.14287525608E+03  0.13656511720E+03  0.26531677350E+03  0.17283657838E+03 0.  0.
        -24    2    3    3    0    0  0.24349906530E+01 -0.12272657152E+02  0.13304836517E+02  0.81139707953E+02  0.79057486925E+02 0.  0.
          6    2    1    2  501    0  0.38172469649E+02  0.14287525608E+03  0.50007091845E+03  0.54856268833E+03  0.17023402511E+03 0.  0.
         24    2    5    5    0    0  0.23139304508E+02  0.13469576725E+03  0.50562775649E+03  0.52996514708E+03  0.80779031082E+02 0.  0.
          5    1    5    5  501    0  0.15033165141E+02  0.81794888324E+01 -0.55568380307E+01  0.18597541252E+02  0.47000000000E+01 0. -1.
        -13    1    6    6    0    0 -0.17652603847E+02  0.44518936458E+02  0.82287907896E+02  0.95209505365E+02  0.00000000000E+00 0.  1.
         14    1    6    6    0    0  0.40791908356E+02  0.90176830792E+02  0.42333984859E+03  0.43475564172E+03  0.00000000000E+00 0. -1.
         -5    1    3    3    0  503 -0.40607460302E+02 -0.13060259893E+03  0.12326028068E+03  0.18417706555E+03  0.47000000000E+01 0.  1.
         11    1    4    4    0    0  0.17148054145E+02  0.14962664475E+02  0.36115224593E+02  0.42687779710E+02  0.00000000000E+00 0. -1.
        -12    1    4    4    0    0 -0.14713063492E+02 -0.27235321627E+02 -0.22810388076E+02  0.38451928243E+02  0.00000000000E+00 0.  1.
</event>
<event>
12    1  0.8344842E-002  0.2171336E+03  0.7818608E-02  0.1136794E+00
         21   -1    0    0  503  502  0.00000000000E+00  0.00000000000E+00  0.74180085389E+02  0.74180085389E+02  0.00000000000E+00 0. -1.
         21   -1    0    0  501  503 -0.00000000000E+00 -0.00000000000E+00 -0.84000560183E+03  0.84000560183E+03  0.00000000000E+00 0.  1.
          6    2    1    2  501    0 -0.43444479002E+02 -0.11800211067E+03 -0.61204507594E+03  0.64811162620E+03  0.17215569740E+03 0.  0.
         24    2    3    3    0    0 -0.94581716476E+02 -0.76293670223E+02 -0.35438714460E+03  0.38209600514E+03  0.75104485090E+02 0.  0.
         -6    2    1    2    0  502  0.43444479002E+02  0.11800211067E+03 -0.15378044050E+03  0.26607406102E+03  0.17701712118E+03 0.  0.
        -24    2    5    5    0    0 -0.23386127138E+02  0.12593766916E+03 -0.11581563005E+03  0.18866140161E+03  0.75978002324E+02 0.  0.
          5    1    3    3  501    0  0.51137237473E+02 -0.41708440449E+02 -0.25765793135E+03  0.26601562106E+03  0.47000000000E+01 0. -1.
        -13    1    4    4    0    0 -0.55146813401E+02 -0.39961244897E+02 -0.29197951007E+03  0.29981678809E+03  0.00000000000E+00 0.  1.
         14    1    4    4    0    0 -0.39434903075E+02 -0.36332425326E+02 -0.62407634530E+02  0.82279217049E+02  0.00000000000E+00 0. -1.
         -5    1    5    5    0  502  0.66830606140E+02 -0.79355584842E+01 -0.37964810451E+02  0.77412659418E+02  0.47000000000E+01 0.  1.
         11    1    6    6    0    0  0.87435259523E+01  0.11447702047E+03 -0.88564270022E+02  0.14500023237E+03  0.00000000000E+00 0. -1.
        -12    1    6    6    0    0 -0.32129653091E+02  0.11460648687E+02 -0.27251360028E+02  0.43661169240E+02  0.00000000000E+00 0.  1.
</event>
<event>
12    1  0.8344842E-002  0.1726002E+03  0.7818608E-02  0.1175435E+00
         21   -1    0    0  501  502  0.00000000000E+00  0.00000000000E+00  0.56050550518E+03  0.56050550518E+03  0.00000000000E+00 0.  1.
         21   -1    0    0  502  503 -0.00000000000E+00 -0.00000000000E+00 -0.10730310056E+03  0.10730310056E+03  0.00000000000E+00 0.  1.
         -6    2    1    2    0  503  0.92327768451E+01  0.55674447274E+01 -0.10974547003E+02  0.17294877460E+03  0.17226316305E+03 0.  0.
        -24    2    3    3    0    0  0.39374175487E+02 -0.39229824021E+02 -0.46518496374E+02  0.10813549250E+03  0.80249669446E+02 0.  0.
          6    2    1    2  501    0 -0.92327768451E+01 -0.55674447274E+01  0.46417695162E+03  0.49485983114E+03  0.17120096217E+03 0.  0.
         24    2    5    5    0    0 -0.54428849710E+02 -0.38485486712E+01  0.42187354987E+03  0.43275260607E+03  0.79499779685E+02 0.  0.
          5    1    5    5  501    0  0.45196072865E+02 -0.17188960562E+01  0.42303401753E+02  0.62107225071E+02  0.47000000000E+01 0. -1.
        -11    1    6    6    0    0 -0.40522785480E+02  0.33660063789E+02  0.17842183040E+03  0.18603614058E+03  0.00000000000E+00 0.  1.
         12    1    6    6    0    0 -0.13906064230E+02 -0.37508612460E+02  0.24345171947E+03  0.24671646549E+03  0.00000000000E+00 0. -1.
         -5    1    3    3    0  503 -0.30141398642E+02  0.44797268748E+02  0.35543949371E+02  0.64813282098E+02  0.47000000000E+01 0.  1.
         11    1    4    4    0    0  0.91462710135E+01 -0.32764436595E+02  0.16602089489E+02  0.37852238431E+02  0.00000000000E+00 0. -1.
        -12    1    4    4    0    0  0.30227904473E+02 -0.64653874252E+01 -0.63120585863E+02  0.70283254073E+02  0.00000000000E+00 0.  1.
</event>
<event>
12    1  0.8344842E-002  0.2196275E+03  0.7818608E-02  0.1134241E+00
         21   -1    0    0  503  502  0.00000000000E+00  0.00000000000E+00  0.65444754145E+02  0.65444754145E+02  0.00000000000E+00 0.  1.
         21   -1    0    0  501  503 -0.00000000000E+00 -0.00000000000E+00 -0.10412522707E+04  0.10412522707E+04  0.00000000000E+00 0.  1.
          6    2    1    2  501    0  0.10954676660E+03 -0.81354754070E+02 -0.78735915690E+03  0.81730277043E+03  0.17155257653E+03 0.  0.
         24    2    3    3    0    0  0.47843945194E+02 -0.78138319751E+02 -0.69433097564E+03  0.70552658277E+03  0.85308939487E+02 0.  0.
         -6    2    1    2    0  502 -0.10954676660E+03  0.81354754070E+02 -0.18844835961E+03  0.28939425437E+03  0.17209636877E+03 0.  0.
        -24    2    5    5    0    0  0.62236366604E+01  0.47640033849E+02 -0.11624688824E+03  0.14877202605E+03  0.79444762145E+02 0.  0.
          5    1    3    3  501    0  0.61702821401E+02 -0.32164343198E+01 -0.93028181258E+02  0.11177618766E+03  0.47000000000E+01 0. -1.
        -11    1    4    4    0    0  0.51680465687E+02 -0.23262746429E+02 -0.19192558576E+03  0.20011860577E+03  0.00000000000E+00 0.  1.
         12    1    4    4    0    0 -0.38365204936E+01 -0.54875573321E+02 -0.50240538988E+03  0.50540797700E+03  0.00000000000E+00 0. -1.
         -5    1    5    5    0  502 -0.11577040326E+03  0.33714720222E+02 -0.72201471374E+02  0.14062222832E+03  0.47000000000E+01 0.  1.
         11    1    6    6    0    0  0.32152665990E+02 -0.65072533718E+01 -0.41634123498E+02  0.53005080098E+02  0.00000000000E+00 0. -1.
        -12    1    6    6    0    0 -0.25929029329E+02  0.54147287221E+02 -0.74612764738E+02  0.95766945953E+02  0.00000000000E+00 0.  1.
</event>
<event>
12    1  0.8344842E-002  0.2052495E+03  0.7818608E-02  0.1146477E+00
         21   -1    0    0  501  502  0.00000000000E+00  0.00000000000E+00  0.60735056865E+02  0.60735056865E+02  0.00000000000E+00 0. -1.
         21   -1    0    0  502  503 -0.00000000000E+00 -0.00000000000E+00 -0.95546510758E+03  0.95546510758E+03  0.00000000000E+00 0. -1.
         -6    2    1    2    0  503 -0.33670816726E+00  0.11212598452E+03 -0.72632295353E+03  0.75476645862E+03  0.17191574812E+03 0.  0.
        -24    2    3    3    0    0 -0.66043306675E+02  0.53189609147E+02 -0.43029709807E+03  0.44582592950E+03  0.80089412099E+02 0.  0.
          6    2    1    2  501    0  0.33670816726E+00 -0.11212598452E+03 -0.16840709719E+03  0.26143370583E+03  0.16557258947E+03 0.  0.
         24    2    5    5    0    0 -0.62647133694E+02 -0.57537977968E+02 -0.97610734871E+02  0.15197581570E+03  0.79583357097E+02 0.  0.
          5    1    5    5  501    0  0.62983841861E+02 -0.54588006550E+02 -0.70796362317E+02  0.10945789013E+03  0.47000000000E+01 0. -1.
        -13    1    6    6    0    0 -0.48059403400E+02 -0.74972572345E+02 -0.93035598656E+02  0.12878748183E+03  0.00000000000E+00 0.  1.
         14    1    6    6    0    0 -0.14587730294E+02  0.17434594377E+02 -0.45751362157E+01  0.23188333869E+02  0.00000000000E+00 0. -1.
         -5    1    3    3    0  503  0.65706598508E+02  0.58936375370E+02 -0.29602585546E+03  0.30894052911E+03  0.47000000000E+01 0.  1.
         11    1    4    4    0    0 -0.52933149874E+02  0.68440378297E+02 -0.25286627125E+03  0.26725896593E+03  0.00000000000E+00 0. -1.
        -12    1    4    4    0    0 -0.13110156802E+02 -0.15250769150E+02 -0.17743082682E+03  0.17856696357E+03  0.00000000000E+00 0.  1.
</event>
<event>
12    1  0.8344842E-002  0.1869614E+03  0.7818608E-02  0.1163875E+00
         21   -1    0    0  503  502  0.00000000000E+00  0.00000000000E+00  0.13403296922E+04  0.13403296922E+04  0.00000000000E+00 0.  1.
         21   -1    0    0  501  503 -0.00000000000E+00 -0.00000000000E+00 -0.34920527958E+02  0.34920527958E+02  0.00000000000E+00 0.  1.
          6    2    1    2  501    0  0.29934582303E+02  0.19027923517E+02  0.26409107016E+03  0.31728143527E+03  0.17223610173E+03 0.  0.
         24    2    3    3    0    0  0.80212235018E+02  0.15176016208E+02  0.11762100707E+03  0.16230321443E+03  0.76441598599E+02 0.  0.
         -6    2    1    2    0  502 -0.29934582303E+02 -0.19027923517E+02  0.10413180941E+04  0.10579687849E+04  0.18356588911E+03 0.  0.
        -24    2    5    5    0    0 -0.48169399004E+02 -0.19887289524E+02  0.10329382065E+04  0.10373396898E+04  0.79978110941E+02 0.  0.
          5    1    3    3  501    0 -0.50277652715E+02  0.38519073083E+01  0.14647006309E+03  0.15497822084E+03  0.47000000000E+01 0. -1.
        -11    1    4    4    0    0  0.16457157604E+02 -0.24886788344E+02  0.11052839492E+02  0.31817534966E+02  0.00000000000E+00 0.  1.
         12    1    4    4    0    0  0.63755077414E+02  0.40062804553E+02  0.10656816758E+03  0.13048567947E+03  0.00000000000E+00 0. -1.
         -5    1    5    5    0  502  0.18234816701E+02  0.85936600719E+00  0.83798875962E+01  0.20629095137E+02  0.47000000000E+01 0.  1.
         13    1    6    6    0    0 -0.10454976664E+01 -0.29718664015E+02  0.14091435043E+03  0.14401786769E+03  0.00000000000E+00 0. -1.
        -14    1    6    6    0    0 -0.47123901337E+02  0.98313744915E+01  0.89202385607E+03  0.89332182207E+03  0.00000000000E+00 0.  1.
</event>
<event>
12    1  0.8344842E-002  0.1831941E+03  0.7818608E-02  0.1164828E+00
         21   -1    0    0  501  502  0.00000000000E+00  0.00000000000E+00  0.12607063419E+04  0.12607063419E+04  0.00000000000E+00 0. -1.
         21   -1    0    0  502  503 -0.00000000000E+00 -0.00000000000E+00 -0.40775637004E+02  0.40775637004E+02  0.00000000000E+00 0. -1.
         -6    2    1    2    0  503  0.49495988666E+02  0.37328157371E+02  0.22550364766E+03  0.29032162457E+03  0.17202181943E+03 0.  0.
        -24    2    3    3    0    0  0.78899591228E+02  0.72985713515E+02  0.14440451452E+03  0.19685937257E+03  0.79679915165E+02 0.  0.
          6    2    1    2  501    0 -0.49495988666E+02 -0.37328157371E+02  0.99442705729E+03  0.10111603544E+04  0.17238574704E+03 0.  0.
         24    2    5    5    0    0  0.22258384635E+02 -0.20268385765E+02  0.77453956665E+03  0.77918551861E+03  0.79449914716E+02 0.  0.
          5    1    5    5  501    0 -0.71754373302E+02 -0.17059771606E+02  0.21988749064E+03  0.23197483578E+03  0.47000000000E+01 0. -1.
        -13    1    6    6    0    0  0.41866825690E+02 -0.58132500135E+01  0.21498001385E+03  0.21909594091E+03  0.00000000000E+00 0.  1.
         14    1    6    6    0    0 -0.19608441055E+02 -0.14455135751E+02  0.55955955280E+03  0.56008957769E+03  0.00000000000E+00 0. -1.
         -5    1    3    3    0  503 -0.29403602562E+02 -0.35657556144E+02  0.81099133132E+02  0.93462251998E+02  0.47000000000E+01 0.  1.
         13    1    4    4    0    0 -0.14646447313E+02  0.11586499420E+02  0.38511733653E+02  0.42800923082E+02  0.00000000000E+00 0. -1.
        -14    1    4    4    0    0  0.93546038541E+02  0.61399214095E+02  0.10589278087E+03  0.15405844949E+03  0.00000000000E+00 0.  1.
</event>
<event>
12    1  0.8344842E-002  0.3766449E+03  0.7818608E-02  0.1052187E+00
         21   -1    0    0  503  502  0.00000000000E+00  0.00000000000E+00  0.40835026587E+03  0.40835026587E+03  0.00000000000E+00 0. -1.
         21   -1    0    0  501  503 -0.00000000000E+00 -0.00000000000E+00 -0.35016418725E+03  0.35016418725E+03  0.00000000000E+00 0.  1.
          6    2    1    2  501    0  0.13748466025E+03  0.30560966565E+03  0.63163275604E+02  0.38183667567E+03  0.17178576180E+03 0.  0.
         24    2    3    3    0    0  0.11202131117E+03  0.31698251642E+03  0.44817193272E+02  0.34812625268E+03  0.78464113591E+02 0.  0.
         -6    2    1    2    0  502 -0.13748466025E+03 -0.30560966565E+03 -0.49771969846E+01  0.37667777745E+03  0.17193625561E+03 0.  0.
        -24    2    5    5    0    0 -0.98650429039E+02 -0.22479865916E+03  0.60575400240E+02  0.26551236338E+03  0.81000565927E+02 0.  0.
          5    1    3    3  501    0  0.25463349079E+02 -0.11372850770E+02  0.18346082332E+02  0.33710422986E+02  0.47000000000E+01 0. -1.
        -11    1    4    4    0    0  0.10380535489E+03  0.26440419841E+03  0.94099049901E+01  0.28420710433E+03  0.00000000000E+00 0.  1.
         12    1    4    4    0    0  0.82159562775E+01  0.52578318013E+02  0.35407288282E+02  0.63919148352E+02  0.00000000000E+00 0. -1.
         -5    1    5    5    0  502 -0.38834231210E+02 -0.80811006485E+02 -0.65552597224E+02  0.11116541407E+03  0.47000000000E+01 0.  1.
         13    1    6    6    0    0 -0.47234566510E+02 -0.17234744984E+03  0.15588881115E+02  0.17938160707E+03  0.00000000000E+00 0. -1.
        -14    1    6    6    0    0 -0.51415862529E+02 -0.52451209319E+02  0.44986519125E+02  0.86130756304E+02  0.00000000000E+00 0.  1.
</event>
<event>
12    1  0.8344842E-002  0.1934157E+03  0.7818608E-02  0.1155432E+00
         21   -1    0    0  501  502  0.00000000000E+00  0.00000000000E+00  0.69258919078E+02  0.69258919078E+02  0.00000000000E+00 0.  1.
         21   -1    0    0  502  503 -0.00000000000E+00 -0.00000000000E+00 -0.60170619088E+03  0.60170619088E+03  0.00000000000E+00 0.  1.
         -6    2    1    2    0  503 -0.30846903184E+02  0.81400397128E+02 -0.15878207331E+03  0.25024263074E+03  0.17271963220E+03 0.  0.
        -24    2    3    3    0    0  0.14881811588E+02  0.38688256172E+01 -0.18461377563E+02  0.83466590526E+02  0.79933804768E+02 0.  0.
          6    2    1    2  501    0  0.30846903184E+02 -0.81400397128E+02 -0.37366519850E+03  0.42072247922E+03  0.17263883649E+03 0.  0.
         24    2    5    5    0    0  0.11071918433E+02 -0.10791058272E+03 -0.18420469915E+03  0.22833949979E+03  0.80251322315E+02 0.  0.
          5    1    5    5  501    0  0.19774984751E+02  0.26510185593E+02 -0.18946049935E+03  0.19238297943E+03  0.47000000000E+01 0. -1.
        -13    1    6    6    0    0 -0.24946853847E+02 -0.88157802305E+02 -0.14522047811E+03  0.17170652547E+03  0.00000000000E+00 0.  1.
         14    1    6    6    0    0  0.36018772279E+02 -0.19752780416E+02 -0.38984221036E+02  0.56632974321E+02  0.00000000000E+00 0. -1.
         -5    1    3    3    0  503 -0.45728714772E+02  0.77531571511E+02 -0.14032069574E+03  0.16677604021E+03  0.47000000000E+01 0.  1.
         13    1    4    4    0    0  0.47720964915E+02  0.76971471691E+01 -0.10924334641E+02  0.49556812391E+02  0.00000000000E+00 0. -1.
        -14    1    4    4    0    0 -0.32839153327E+02 -0.38283215519E+01 -0.75370429217E+01  0.33909778135E+02  0.00000000000E+00 0.  1.
</event>
<event>
12    1  0.8344842E-002  0.1887442E+03  0.7818608E-02  0.1160005E+00
         21   -1    0    0  501  502  0.00000000000E+00  0.00000000000E+00  0.15107408715E+03  0.15107408715E+03  0.00000000000E+00 0.  1.
         21   -1    0    0  502  503 -0.00000000000E+00 -0.00000000000E+00 -0.77998684051E+03  0.77998684051E+03  0.00000000000E+00 0.  1.
         -6    2    1    2    0  503 -0.52309633163E+02 -0.54215835589E+02 -0.70364382486E+03  0.72806066360E+03  0.17111996687E+03 0.  0.
        -24    2    3    3    0    0  0.16228822815E+02  0.25841912868E+02 -0.34120995696E+03  0.35058594705E+03  0.74532492144E+02 0.  0.
          6    2    1    2  501    0  0.52309633163E+02  0.54215835589E+02  0.74731071498E+02  0.20300026406E+03  0.17305698371E+03 0.  0.
         24    2    5    5    0    0  0.10334987539E+03  0.31921264549E+02  0.55787799489E+02  0.14398253979E+03  0.76931978522E+02 0.  0.
          5    1    5    5  501    0 -0.51040242222E+02  0.22294571040E+02  0.18943272009E+02  0.59017724273E+02  0.47000000000E+01 0. -1.
        -11    1    6    6    0    0  0.83762738443E+02 -0.10140982108E+02  0.23940137302E+02  0.87704994405E+02  0.00000000000E+00 0.  1.
         12    1    6    6    0    0  0.19587136942E+02  0.42062246658E+02  0.31847662188E+02  0.56277545383E+02  0.00000000000E+00 0. -1.
         -5    1    3    3    0  503 -0.68538455979E+02 -0.80057748457E+02 -0.36243386790E+03  0.37747471655E+03  0.47000000000E+01 0.  1.
         11    1    4    4    0    0  0.13360423044E+02  0.88556743688E+01 -0.32919056927E+03  0.32958057402E+03  0.00000000000E+00 0. -1.
        -12    1    4    4    0    0  0.28683997719E+01  0.16986238499E+02 -0.12019387691E+02  0.21005373028E+02  0.00000000000E+00 0.  1.
</event>
<event>
12    1  0.8344842E-002  0.1934368E+03  0.7818608E-02  0.1156886E+00
         21   -1    0    0  503  502  0.00000000000E+00  0.00000000000E+00  0.41489938044E+02  0.41489938044E+02  0.00000000000E+00 0.  1.
         21   -1    0    0  501  503 -0.00000000000E+00 -0.00000000000E+00 -0.88776472976E+03  0.88776472976E+03  0.00000000000E+00 0.  1.
          6    2    1    2  501    0  0.63702393756E+02 -0.51503389241E+02 -0.35243686105E+03  0.39888339123E+03  0.16788574896E+03 0.  0.
         24    2    3    3    0    0 -0.20913771303E+02  0.21636626425E+01 -0.20114916280E+03  0.21736175206E+03  0.79643444789E+02 0.  0.
         -6    2    1    2    0  502 -0.63702393756E+02  0.51503389241E+02 -0.49383793067E+03  0.53037127657E+03  0.17523468598E+03 0.  0.
        -24    2    5    5    0    0 -0.28015744921E+02  0.51507314897E+02 -0.48272495504E+03  0.49269999908E+03  0.79322263104E+02 0.  0.
          5    1    3    3  501    0  0.84616165059E+02 -0.53667051883E+02 -0.15128769825E+03  0.18152163917E+03  0.47000000000E+01 0. -1.
        -11    1    4    4    0    0  0.22235966868E+01 -0.32289305185E+02 -0.13837127711E+03  0.14210613618E+03  0.00000000000E+00 0.  1.
         12    1    4    4    0    0 -0.23137367990E+02  0.34452967827E+02 -0.62777885687E+02  0.75255615877E+02  0.00000000000E+00 0. -1.
         -5    1    5    5    0  502 -0.35686648834E+02 -0.39256558454E-02 -0.11112975629E+02  0.37671277490E+02  0.47000000000E+01 0.  1.
         13    1    6    6    0    0  0.16859419019E+02 -0.11137882995E+02 -0.70698304363E+02  0.73529196154E+02  0.00000000000E+00 0. -1.
        -14    1    6    6    0    0 -0.44875163940E+02  0.62645197892E+02 -0.41202665067E+03  0.41917080292E+03  0.00000000000E+00 0.  1.
</event>
<event>
12    1  0.8344842E-002  0.2181549E+03  0.7818608E-02  0.1135373E+00
         21   -1    0    0  503  502  0.00000000000E+00  0.00000000000E+00  0.92301951812E+02  0.92301951812E+02  0.00000000000E+00 0.  1.
         21   -1    0    0  501  503 -0.00000000000E+00 -0.00000000000E+00 -0.82324099127E+03  0.82324099127E+03  0.00000000000E+00 0.  1.
          6    2    1    2  501    0 -0.12896820640E+03 -0.35025308052E+02 -0.64561480902E+03  0.68129565453E+03  0.17171405531E+03 0.  0.
         24    2    3    3    0    0 -0.10112935726E+03 -0.85739106566E+02 -0.40140734813E+03  0.43028516703E+03  0.80244155801E+02 0.  0.
         -6    2    1    2    0  502  0.12896820640E+03  0.35025308052E+02 -0.85324230432E+02  0.23424728854E+03  0.17242968835E+03 0.  0.
        -24    2    5    5    0    0  0.11688486778E+03  0.84244309824E+02 -0.66370329770E+02  0.17993469739E+03  0.84925253000E+02 0.  0.
          5    1    3    3  501    0 -0.27838849143E+02  0.50713798513E+02 -0.24420746089E+03  0.25101048750E+03  0.47000000000E+01 0. -1.
        -13    1    4    4    0    0 -0.81573526513E+02 -0.28254325255E+02 -0.16517684043E+03  0.18637579172E+03  0.00000000000E+00 0.  1.
         14    1    4    4    0    0 -0.19555830746E+02 -0.57484781310E+02 -0.23623050770E+03  0.24390937532E+03  0.00000000000E+00 0. -1.
         -5    1    5    5    0  502  0.12083338622E+02 -0.49219001772E+02 -0.18953900662E+02  0.54312591155E+02  0.47000000000E+01 0.  1.
         11    1    6    6    0    0  0.63007836295E+02  0.93282717260E+02 -0.42647777175E+02  0.12037643321E+03  0.00000000000E+00 0. -1.
        -12    1    6    6    0    0  0.53877031485E+02 -0.90384074360E+01 -0.23722552595E+02  0.59558264181E+02  0.00000000000E+00 0.  1.
</event>
<event>
12    1  0.8344842E-002  0.2454740E+03  0.7818608E-02  0.1116684E+00
         21   -1    0    0  503  502  0.00000000000E+00  0.00000000000E+00  0.12981169128E+03  0.12981169128E+03  0.00000000000E+00 0. -1.
         21   -1    0    0  501  503 -0.00000000000E+00 -0.00000000000E+00 -0.46045736800E+03  0.46045736800E+03  0.00000000000E+00 0. -1.
          6    2    1    2  501    0  0.33785910074E+02  0.17167305499E+03 -0.14543262458E+03  0.28276078489E+03  0.16789844444E+03 0.  0.
         24    2    3    3    0    0  0.21855528775E+02  0.32111691960E+02 -0.13084951682E+02  0.89997446642E+02  0.80121779454E+02 0.  0.
         -6    2    1    2    0  502 -0.33785910074E+02 -0.17167305499E+03 -0.18521305214E+03  0.30750827439E+03  0.17217531358E+03 0.  0.
        -24    2    5    5    0    0 -0.30840099423E+02 -0.18776991307E+03 -0.11461964824E+03  0.23489074679E+03  0.76337062948E+02 0.  0.
          5    1    3    3  501    0  0.11930381298E+02  0.13956136303E+03 -0.13234767290E+03  0.19276333824E+03  0.47000000000E+01 0. -1.
        -11    1    4    4    0    0 -0.30074288616E+02  0.15709858750E+02 -0.10335956075E+02  0.35469627651E+02  0.00000000000E+00 0.  1.
         12    1    4    4    0    0  0.51929817392E+02  0.16401833210E+02 -0.27489956065E+01  0.54527818990E+02  0.00000000000E+00 0. -1.
         -5    1    5    5    0  502 -0.29458106511E+01  0.16096858074E+02 -0.70593403903E+02  0.72617527600E+02  0.47000000000E+01 0.  1.
         13    1    6    6    0    0 -0.36790649722E+02 -0.17169071203E+03 -0.12436515779E+03  0.21516957260E+03  0.00000000000E+00 0. -1.
        -14    1    6    6    0    0  0.59505502993E+01 -0.16079201040E+02  0.97455095472E+01  0.19721174186E+02  0.00000000000E+00 0.  1.
</event>
<event>
12    1  0.8344842E-002  0.2556431E+03  0.7818608E-02  0.1110300E+00
         21   -1    0    0  503  502  0.00000000000E+00  0.00000000000E+00  0.16099422464E+03  0.16099422464E+03  0.00000000000E+00 0.  1.
         21   -1    0    0  501  503 -0.00000000000E+00 -0.00000000000E+00 -0.98726011161E+03  0.98726011161E+03  0.00000000000E+00 0. -1.
          6    2    1    2  501    0 -0.13953317345E+03  0.12538481506E+03 -0.85675175672E+03  0.89407883896E+03  0.17367365747E+03 0.  0.
         24    2    3    3    0    0 -0.77664703941E+02  0.13832810576E+03 -0.47609041160E+03  0.50817679704E+03  0.80094356541E+02 0.  0.
         -6    2    1    2    0  502  0.13953317345E+03 -0.12538481506E+03  0.30485869751E+02  0.25417549728E+03  0.16877481099E+03 0.  0.
        -24    2    5    5    0    0  0.69500184355E+02 -0.93147762349E+02  0.79989133095E+02  0.16243395701E+03  0.80496880202E+02 0.  0.
          5    1    3    3  501    0 -0.61868469508E+02 -0.12943290698E+02 -0.38066134512E+03  0.38590204192E+03  0.47000000000E+01 0. -1.
        -11    1    4    4    0    0 -0.70040163234E+02  0.92681908621E+02 -0.22890421697E+03  0.25669573662E+03  0.00000000000E+00 0.  1.
         12    1    4    4    0    0 -0.76245407069E+01  0.45646197139E+02 -0.24718619463E+03  0.25148106042E+03  0.00000000000E+00 0. -1.
         -5    1    5    5    0  502  0.70032989095E+02 -0.32237052714E+02 -0.49503263344E+02  0.91741540269E+02  0.47000000000E+01 0.  1.
         11    1    6    6    0    0 -0.10149802055E+01 -0.68994600316E+01 -0.14670500872E+02  0.16243655050E+02  0.00000000000E+00 0. -1.
        -12    1    6    6    0    0  0.70515164560E+02 -0.86248302317E+02  0.94659633968E+02  0.14619030196E+03  0.00000000000E+00 0.  1.
</event>
<event>
12    1  0.8344842E-002  0.2344488E+03  0.7818608E-02  0.1123720E+00
         21   -1    0    0  503  502  0.00000000000E+00  0.00000000000E+00  0.17591127714E+03  0.17591127714E+03  0.00000000000E+00 0.  1.
         21   -1    0    0  501  503 -0.00000000000E+00 -0.00000000000E+00 -0.31423661274E+03  0.31423661274E+03  0.00000000000E+00 0. -1.
          6    2    1    2  501    0 -0.66227408613E+02 -0.14556068059E+03 -0.93688666673E+02  0.25247536623E+03  0.17144171868E+03 0.  0.
         24    2    3    3    0    0 -0.28517649052E+02 -0.76730364390E+02  0.18342092723E+02  0.11560820638E+03  0.79548852227E+02 0.  0.
         -6    2    1    2    0  502  0.66227408613E+02  0.14556068059E+03 -0.44636668930E+02  0.23767252365E+03  0.17006414937E+03 0.  0.
        -24    2    5    5    0    0  0.78239685821E+01  0.35590091817E+02 -0.61951191901E+02  0.11186960275E+03  0.85726242895E+02 0.  0.
          5    1    3    3  501    0 -0.37709759561E+02 -0.68830316196E+02 -0.11203075940E+03  0.13686715985E+03  0.47000000000E+01 0. -1.
        -11    1    4    4    0    0 -0.45606235859E+02 -0.31850026538E+02  0.33881592761E+02  0.65133058178E+02  0.00000000000E+00 0.  1.
         12    1    4    4    0    0  0.17088586807E+02 -0.44880337853E+02 -0.15539500038E+02  0.50475148204E+02  0.00000000000E+00 0. -1.
         -5    1    5    5    0  502  0.58403440030E+02  0.10997058877E+03  0.17314522971E+02  0.12580292090E+03  0.47000000000E+01 0.  1.
         13    1    6    6    0    0 -0.35197197915E+02 -0.50117824294E+00 -0.13497594189E+02  0.37699853708E+02  0.00000000000E+00 0. -1.
        -14    1    6    6    0    0  0.43021166497E+02  0.36091270060E+02 -0.48453597712E+02  0.74169749039E+02  0.00000000000E+00 0.  1.
</event>
<event>
12    1  0.8344842E-002  0.1797388E+03  0.7818608E-02  0.1169683E+00
         21   -1    0    0  503  502  0.00000000000E+00  0.00000000000E+00  0.31149549749E+03  0.31149549749E+03  0.00000000000E+00 0. -1.
         21   -1    0    0  501  503 -0.00000000000E+00 -0.00000000000E+00 -0.10029022736E+03  0.10029022736E+03  0.00000000000E+00 0. -1.
          6    2    1    2  501    0  0.33613363319E+02 -0.15140486944E+02  0.91682400425E+02  0.19593450945E+03  0.16919094807E+03 0.  0.
         24    2    3    3    0    0  0.23632257609E+02 -0.69153462647E+02  0.31618694133E+02  0.11440682809E+03  0.82149227011E+02 0.  0.
         -6    2    1    2    0  502 -0.33613363319E+02  0.15140486944E+02  0.11952286970E+03  0.21585121540E+03  0.17591741889E+03 0.  0.
        -24    2    5    5    0    0 -0.71797409480E+02  0.53975423727E+02  0.58387926705E+02  0.13384057614E+03  0.80224282249E+02 0.  0.
          5    1    3    3  501    0  0.99811057098E+01  0.54012975703E+02  0.60063706292E+02  0.81527681367E+02  0.47000000000E+01 0. -1.
        -13    1    4    4    0    0 -0.10210992876E+00 -0.65659937686E+02 -0.99525508623E+01  0.66410022678E+02  0.00000000000E+00 0.  1.
         14    1    4    4    0    0  0.23734367538E+02 -0.34935249606E+01  0.41571244995E+02  0.47996805409E+02  0.00000000000E+00 0. -1.
         -5    1    5    5    0  502  0.38184046161E+02 -0.38834936783E+02  0.61134942999E+02  0.82010639259E+02  0.47000000000E+01 0.  1.
         11    1    6    6    0    0 -0.25594262922E+02  0.28702797387E+02 -0.16863592425E+02  0.41991637523E+02  0.00000000000E+00 0. -1.
        -12    1    6    6    0    0 -0.46203146558E+02  0.25272626339E+02  0.75251519130E+02  0.91848938618E+02  0.00000000000E+00 0.  1.
</event>
<event>
12    1  0.8344842E-002  0.1765845E+03  0.7818608E-02  0.1171465E+00
         21   -1    0    0  503  502  0.00000000000E+00  0.00000000000E+00  0.19167471406E+03  0.19167471406E+03  0.00000000000E+00 0. -1.
         21   -1    0    0  501  503 -0.00000000000E+00 -0.00000000000E+00 -0.22071352413E+03  0.22071352413E+03  0.00000000000E+00 0. -1.
          6    2    1    2  501    0  0.28849702546E+02 -0.14745190392E+02 -0.12126181416E+03  0.21317189710E+03  0.17230236262E+03 0.  0.
         24    2    3    3    0    0 -0.40310074267E+02 -0.30524254385E+02 -0.33630385117E+02  0.10032948067E+03  0.79864696179E+02 0.  0.
         -6    2    1    2    0  502 -0.28849702546E+02  0.14745190392E+02  0.92223004086E+02  0.19921634109E+03  0.17358669908E+03 0.  0.
        -24    2    5    5    0    0 -0.63583094038E+02  0.26592584373E+02  0.55801819705E+01  0.10500467593E+03  0.79024478134E+02 0.  0.
          5    1    3    3  501    0  0.69159776813E+02  0.15779063993E+02 -0.87631429045E+02  0.11284241643E+03  0.47000000000E+01 0. -1.
        -11    1    4    4    0    0 -0.88450676456E+00  0.23443792910E+02  0.37391671388E+01  0.23756581175E+02  0.00000000000E+00 0.  1.
         12    1    4    4    0    0 -0.39425567503E+02 -0.53968047295E+02 -0.37369552256E+02  0.76572899498E+02  0.00000000000E+00 0. -1.
         -5    1    5    5    0  502  0.34733391492E+02 -0.11847393981E+02  0.86642822115E+02  0.94211665163E+02  0.47000000000E+01 0.  1.
         13    1    6    6    0    0 -0.35371723950E+02 -0.11290428504E+02 -0.28460585364E+02  0.46782876678E+02  0.00000000000E+00 0. -1.
        -14    1    6    6    0    0 -0.28211370088E+02  0.37883012877E+02  0.34040767335E+02  0.58221799248E+02  0.00000000000E+00 0.  1.
</event>
<event>
12    1  0.8344842E-002  0.1813891E+03  0.7818608E-02  0.1166639E+00
         21   -1    0    0  501  502  0.00000000000E+00  0.00000000000E+00  0.42934418783E+03  0.42934418783E+03  0.00000000000E+00 0.  1.
         21   -1    0    0  502  503 -0.00000000000E+00 -0.00000000000E+00 -0.88519352047E+02  0.88519352047E+02  0.00000000000E+00 0. -1.
         -6    2    1    2    0  503  0.13977524414E+02 -0.56482464248E+02  0.26680299131E+03  0.32262338179E+03  0.17180328970E+03 0.  0.
        -24    2    3    3    0    0  0.17556343561E+02 -0.45751862385E+01  0.25647114820E+03  0.26936917596E+03  0.80331473081E+02 0.  0.
          6    2    1    2  501    0 -0.13977524414E+02  0.56482464248E+02  0.74021844479E+02  0.19524015809E+03  0.17103755703E+03 0.  0.
         24    2    5    5    0    0 -0.10103352514E+02  0.27470722392E+02  0.11610572131E+03  0.14376362885E+03  0.79565847816E+02 0.  0.
          5    1    5    5  501    0 -0.38741719003E+01  0.29011741856E+02 -0.42083876830E+02  0.51476529239E+02  0.47000000000E+01 0. -1.
        -11    1    6    6    0    0 -0.27713348555E+02  0.42058186408E+02  0.10857398670E+03  0.11968805838E+03  0.00000000000E+00 0.  1.
         12    1    6    6    0    0  0.17609996042E+02 -0.14587464016E+02  0.75317346103E+01  0.24075570466E+02  0.00000000000E+00 0. -1.
         -5    1    3    3    0  503 -0.35788191474E+01 -0.51907278009E+02  0.10331843102E+02  0.53254205831E+02  0.47000000000E+01 0.  1.
         11    1    4    4    0    0 -0.13082962321E+02 -0.35724783061E+02  0.13592240661E+03  0.14114646523E+03  0.00000000000E+00 0. -1.
        -12    1    4    4    0    0  0.30639305882E+02  0.31149596822E+02  0.12054874159E+03  0.12822271073E+03  0.00000000000E+00 0.  1.
</event>
<event>
12    1  0.8344842E-002  0.2113955E+03  0.7818608E-02  0.1140649E+00
         21   -1    0    0  503  502  0.00000000000E+00  0.00000000000E+00  0.11923026215E+03  0.11923026215E+03  0.00000000000E+00 0.  1.
         21   -1    0    0  501  503 -0.00000000000E+00 -0.00000000000E+00 -0.11571437831E+04  0.11571437831E+04  0.00000000000E+00 0. -1.
          6    2    1    2  501    0 -0.62819718896E+01  0.12174145211E+03 -0.10438888112E+04  0.10648941486E+04  0.17156705173E+03 0.  0.
         24    2    3    3    0    0 -0.53565106795E+02  0.69909496480E+02 -0.40300749132E+03  0.42016691740E+03  0.79803772208E+02 0.  0.
         -6    2    1    2    0  502  0.62819718896E+01 -0.12174145211E+03  0.59752902375E+01  0.21147989667E+03  0.17270668276E+03 0.  0.
        -24    2    5    5    0    0 -0.11768698598E+02 -0.68070197177E+01  0.41258750664E+02  0.89813290591E+02  0.78608554727E+02 0.  0.
          5    1    3    3  501    0  0.47283134905E+02  0.51831955634E+02 -0.64088131989E+03  0.64472723120E+03  0.47000000000E+01 0. -1.
        -13    1    4    4    0    0 -0.21213954606E+02  0.21420860616E+02 -0.29643986651E+02  0.42280623034E+02  0.00000000000E+00 0.  1.
         14    1    4    4    0    0 -0.32351152189E+02  0.48488635864E+02 -0.37336350467E+03  0.37788629437E+03  0.00000000000E+00 0. -1.
         -5    1    5    5    0  502  0.18050670487E+02 -0.11493443240E+03 -0.35283460426E+02  0.12166660608E+03  0.47000000000E+01 0.  1.
         11    1    6    6    0    0 -0.85353008093E+01  0.16760864946E+02  0.57836505616E+02  0.60818083952E+02  0.00000000000E+00 0. -1.
        -12    1    6    6    0    0 -0.32333977884E+01 -0.23567884664E+02 -0.16577754952E+02  0.28995206639E+02  0.00000000000E+00 0.  1.
</event>
<event>
12    1  0.8344842E-002  0.1782687E+03  0.7818608E-02  0.1169721E+00
         21   -1    0    0  501  502  0.00000000000E+00  0.00000000000E+00  0.69297753704E+02  0.69297753704E+02  0.00000000000E+00 0. -1.
         21   -1    0    0  502  503 -0.00000000000E+00 -0.00000000000E+00 -0.66680618868E+03  0.66680618868E+03  0.00000000000E+00 0. -1.
         -6    2    1    2    0  503  0.49212753270E+02 -0.10778116355E+01 -0.50615427973E+03  0.53663011942E+03  0.17133789252E+03 0.  0.
        -24    2    3    3    0    0  0.87785965245E+02 -0.30998759261E+02 -0.28806383017E+03  0.31309334397E+03  0.79870977304E+02 0.  0.
          6    2    1    2  501    0 -0.49212753270E+02  0.10778116355E+01 -0.91354155242E+02  0.19947382296E+03  0.17035600255E+03 0.  0.
         24    2    5    5    0    0  0.13973945871E+02  0.45019797591E+01 -0.73912217272E+02  0.13366656595E+03  0.11040016307E+03 0.  0.
          5    1    5    5  501    0 -0.63186699141E+02 -0.34241681236E+01 -0.17441937970E+02  0.65807257014E+02  0.47000000000E+01 0. -1.
        -11    1    6    6    0    0  0.10321421069E+02 -0.42126523143E+02  0.31873816972E+01  0.43489482488E+02  0.00000000000E+00 0.  1.
         12    1    6    6    0    0  0.36525248012E+01  0.46628502902E+02 -0.77099598969E+02  0.90177083461E+02  0.00000000000E+00 0. -1.
         -5    1    3    3    0  503 -0.38573211975E+02  0.29920947625E+02 -0.21809044956E+03  0.22353677545E+03  0.47000000000E+01 0.  1.
         13    1    4    4    0    0  0.88836983865E+01 -0.39086377488E+02 -0.13319071038E+03  0.13909144594E+03  0.00000000000E+00 0. -1.
        -14    1    4    4    0    0  0.78902266858E+02  0.80876182276E+01 -0.15487311979E+03  0.17400189803E+03  0.00000000000E+00 0.  1.
</event>
<event>
12    1  0.8344842E-002  0.2379336E+03  0.7818608E-02  0.1121708E+00
         21   -1    0    0  501  502  0.00000000000E+00  0.00000000000E+00  0.13891599019E+03  0.13891599019E+03  0.00000000000E+00 0. -1.
         21   -1    0    0  502  503 -0.00000000000E+00 -0.00000000000E+00 -0.41733165766E+03  0.41733165766E+03  0.00000000000E+00 0. -1.
         -6    2    1    2    0  503 -0.38709225894E+02  0.15984644563E+03 -0.19307916638E+03  0.30641794318E+03  0.17193923653E+03 0.  0.
        -24    2    3    3    0    0  0.14176528375E+02  0.16164346343E+02 -0.86733390410E+02  0.11994284369E+03  0.80008403875E+02 0.  0.
          6    2    1    2  501    0  0.38709225894E+02 -0.15984644563E+03 -0.85336501095E+02  0.24982970467E+03  0.16758064497E+03 0.  0.
         24    2    5    5    0    0 -0.36244194359E+02 -0.13529561780E+03 -0.72360047918E+02  0.16975950615E+03  0.62958459104E+02 0.  0.
          5    1    5    5  501    0  0.74953420253E+02 -0.24550827837E+02 -0.12976453177E+02  0.80070198528E+02  0.47000000000E+01 0. -1.
        -11    1    6    6    0    0 -0.17980984008E+01 -0.68946511044E+02 -0.50335828958E+01  0.69153391094E+02  0.00000000000E+00 0.  1.
         12    1    6    6    0    0 -0.34446095958E+02 -0.66349106753E+02 -0.67326465022E+02  0.10060611505E+03  0.00000000000E+00 0. -1.
         -5    1    3    3    0  503 -0.52885754269E+02  0.14368209929E+03 -0.10634577597E+03  0.18647509949E+03  0.47000000000E+01 0.  1.
         11    1    4    4    0    0 -0.18285363585E+02  0.10013164020E+01  0.69924219813E+01  0.19602324381E+02  0.00000000000E+00 0. -1.
        -12    1    4    4    0    0  0.32461891960E+02  0.15163029941E+02 -0.93725812391E+02  0.10034051931E+03  0.00000000000E+00 0.  1.
</event>
<event>
12    1  0.8344842E-002  0.1756503E+03  0.7818608E-02  0.1172091E+00
         21   -1    0    0  503  502  0.00000000000E+00  0.00000000000E+00  0.56250503331E+02  0.56250503331E+02  0.00000000000E+00 0. -1.
         21   -1    0    0  501  503 -0.00000000000E+00 -0.00000000000E+00 -0.95490559935E+03  0.95490559935E+03  0.00000000000E+00 0.  1.
          6    2    1    2  501    0 -0.73436484489E+00 -0.36715443042E+02 -0.77924052340E+03  0.79879209832E+03  0.17176862340E+03 0.  0.
         24    2    3    3    0    0  0.20234581865E+02 -0.72835234784E+02 -0.70441115966E+03  0.71296751117E+03  0.80082335179E+02 0.  0.
         -6    2    1    2    0  502  0.73436484489E+00  0.36715443042E+02 -0.11941457262E+03  0.21236400436E+03  0.17172672227E+03 0.  0.
        -24    2    5    5    0    0  0.27512877744E+02 -0.28574606315E+02 -0.19467139670E+02  0.89924392093E+02  0.78319602901E+02 0.  0.
          5    1    3    3  501    0 -0.20968946710E+02  0.36119791742E+02 -0.74829363744E+02  0.85824587152E+02  0.47000000000E+01 0. -1.
        -11    1    4    4    0    0  0.41860433522E+02 -0.71273528288E+02 -0.63192700322E+03  0.63730993177E+03  0.00000000000E+00 0.  1.
         12    1    4    4    0    0 -0.21625851657E+02 -0.15617064963E+01 -0.72484156433E+02  0.75657579402E+02  0.00000000000E+00 0. -1.
         -5    1    5    5    0  502 -0.26778512900E+02  0.65290049357E+02 -0.99947432948E+02  0.12243961226E+03  0.47000000000E+01 0.  1.
         13    1    6    6    0    0  0.83661021703E+01  0.26929048138E+02 -0.43022029616E+00  0.28201957178E+02  0.00000000000E+00 0. -1.
        -14    1    6    6    0    0  0.19146775574E+02 -0.55503654454E+02 -0.19036919374E+02  0.61722434915E+02  0.00000000000E+00 0.  1.
</event>
<event>
12    1  0.8344842E-002  0.2369961E+03  0.7818608E-02  0.1121933E+00
         21   -1    0    0  503  502  0.00000000000E+00  0.00000000000E+00  0.18399149348E+03  0.18399149348E+03  0.00000000000E+00 0.  1.
         21   -1    0    0  501  503 -0.00000000000E+00 -0.00000000000E+00 -0.48998294021E+03  0.48998294021E+03  0.00000000000E+00 0. -1.
          6    2    1    2  501    0  0.16170259617E+03  0.10284140614E+02 -0.36056848446E+03  0.43148206738E+03  0.17295562819E+03 0.  0.
         24    2    3    3    0    0  0.18654688249E+03 -0.27091864676E+01 -0.33885929583E+03  0.39571275116E+03  0.83401918461E+02 0.  0.
         -6    2    1    2    0  502 -0.16170259617E+03 -0.10284140614E+02  0.54577037735E+02  0.24249236631E+03  0.17196046497E+03 0.  0.
        -24    2    5    5    0    0 -0.13110255319E+03 -0.48191287277E+02 -0.93012709031E+01  0.16201974542E+03  0.81569630632E+02 0.  0.
          5    1    3    3  501    0 -0.24844286318E+02  0.12993327081E+02 -0.21709188631E+02  0.35769316212E+02  0.47000000000E+01 0. -1.
        -11    1    4    4    0    0  0.30234830299E+02  0.32140743809E+02 -0.77925571159E+02  0.89552035244E+02  0.00000000000E+00 0.  1.
         12    1    4    4    0    0  0.15631205219E+03 -0.34849930277E+02 -0.26093372467E+03  0.30616071592E+03  0.00000000000E+00 0. -1.
         -5    1    5    5    0  502 -0.30600042981E+02  0.37907146663E+02  0.63878308638E+02  0.80472620891E+02  0.47000000000E+01 0.  1.
         11    1    6    6    0    0 -0.96073477274E+01  0.19902919161E+02 -0.50939257144E+01  0.22679845693E+02  0.00000000000E+00 0. -1.
        -12    1    6    6    0    0 -0.12149520547E+03 -0.68094206438E+02 -0.42073451887E+01  0.13933989972E+03  0.00000000000E+00 0.  1.
</event>
<event>
12    1  0.8344842E-002  0.3643180E+03  0.7818608E-02  0.1056937E+00
         21   -1    0    0  501  502  0.00000000000E+00  0.00000000000E+00  0.17081705097E+03  0.17081705097E+03  0.00000000000E+00 0. -1.
         21   -1    0    0  502  503 -0.00000000000E+00 -0.00000000000E+00 -0.10732449517E+04  0.10732449517E+04  0.00000000000E+00 0.  1.
         -6    2    1    2    0  503  0.16617312224E+03 -0.27430552317E+03 -0.77837906266E+03  0.85920391303E+03  0.17175672439E+03 0.  0.
        -24    2    3    3    0    0  0.62374395412E+02 -0.16848783866E+03 -0.57652532108E+03  0.60872720545E+03  0.76737525603E+02 0.  0.
          6    2    1    2  501    0 -0.16617312224E+03  0.27430552317E+03 -0.12404883809E+03  0.38485808967E+03  0.17283115563E+03 0.  0.
         24    2    5    5    0    0 -0.48789710441E+02  0.20891706810E+03 -0.63753321705E+02  0.23750764102E+03  0.79489724651E+02 0.  0.
          5    1    5    5  501    0 -0.11738341180E+03  0.65388455066E+02 -0.60295516390E+02  0.14735044865E+03  0.47000000000E+01 0. -1.
        -11    1    6    6    0    0  0.20988673771E+02  0.33606465732E+02 -0.16995392371E+02  0.43113365996E+02  0.00000000000E+00 0.  1.
         12    1    6    6    0    0 -0.69778384212E+02  0.17531060237E+03 -0.46757929334E+02  0.19439427502E+03  0.00000000000E+00 0. -1.
         -5    1    3    3    0  503  0.10379872683E+03 -0.10581768451E+03 -0.20185374159E+03  0.25047670757E+03  0.47000000000E+01 0.  1.
         11    1    4    4    0    0  0.41688296548E+02 -0.16784615497E+03 -0.48565408557E+03  0.51552898720E+03  0.00000000000E+00 0. -1.
        -12    1    4    4    0    0  0.20686098864E+02 -0.64168369505E+00 -0.90871235502E+02  0.93198218255E+02  0.00000000000E+00 0.  1.
</event>
<event>
12    1  0.8344842E-002  0.2951654E+03  0.7818608E-02  0.1087813E+00
         21   -1    0    0  503  502  0.00000000000E+00  0.00000000000E+00  0.26250073139E+03  0.26250073139E+03  0.00000000000E+00 0. -1.
         21   -1    0    0  501  503 -0.00000000000E+00 -0.00000000000E+00 -0.35802045020E+03  0.35802045020E+03  0.00000000000E+00 0.  1.
          6    2    1    2  501    0  0.17390630518E+03 -0.16602046920E+03  0.37789961457E+02  0.29757464060E+03  0.17122028608E+03 0.  0.
         24    2    3    3    0    0  0.40801970093E+02 -0.11305788195E+03 -0.38274700222E+01  0.14832350904E+03  0.86823547345E+02 0.  0.
         -6    2    1    2    0  502 -0.17390630518E+03  0.16602046920E+03 -0.13330968027E+03  0.32294654100E+03  0.16946031487E+03 0.  0.
        -24    2    5    5    0    0 -0.15156568690E+03  0.75270931031E+02 -0.40541630564E+02  0.19117938671E+03  0.79171103266E+02 0.  0.
          5    1    3    3  501    0  0.13310433509E+03 -0.52962587252E+02  0.41617431480E+02  0.14925113155E+03  0.47000000000E+01 0. -1.
        -13    1    4    4    0    0 -0.12948532961E+02  0.43952400020E+01 -0.12951001315E+02  0.18833774863E+02  0.00000000000E+00 0.  1.
         14    1    4    4    0    0  0.53750503054E+02 -0.11745312195E+03  0.91235312927E+01  0.12948973418E+03  0.00000000000E+00 0. -1.
         -5    1    5    5    0  502 -0.22340618283E+02  0.90749538171E+02 -0.92768049701E+02  0.13176715429E+03  0.47000000000E+01 0.  1.
         13    1    6    6    0    0 -0.11679990671E+03  0.90613396867E+02 -0.40124984753E+02  0.15317643520E+03  0.00000000000E+00 0. -1.
        -14    1    6    6    0    0 -0.34765780188E+02 -0.15342465836E+02 -0.41664581149E+00  0.38002951514E+02  0.00000000000E+00 0.  1.
</event>
<event>
12    1  0.8344842E-002  0.1790615E+03  0.7818608E-02  0.1169277E+00
         21   -1    0    0  503  502  0.00000000000E+00  0.00000000000E+00  0.48438434808E+03  0.48438434808E+03  0.00000000000E+00 0. -1.
         21   -1    0    0  501  503 -0.00000000000E+00 -0.00000000000E+00 -0.68505531008E+02  0.68505531008E+02  0.00000000000E+00 0.  1.
          6    2    1    2  501    0  0.14841032505E+02 -0.42467906991E+02  0.26856569685E+03  0.32278561340E+03  0.17331831791E+03 0.  0.
         24    2    3    3    0    0 -0.27543936777E+02  0.12463432119E+02  0.23013858822E+03  0.24333329868E+03  0.73029575274E+02 0.  0.
         -6    2    1    2    0  502 -0.14841032505E+02  0.42467906991E+02  0.14731312022E+03  0.23010426568E+03  0.17094747242E+03 0.  0.
        -24    2    5    5    0    0  0.43702275998E+02 -0.16578490669E+02  0.93918342942E+02  0.13117556263E+03  0.78750478163E+02 0.  0.
          5    1    3    3  501    0  0.42384969282E+02 -0.54931339110E+02  0.38427108636E+02  0.79452314727E+02  0.47000000000E+01 0. -1.
        -13    1    4    4    0    0  0.78585970341E+01  0.21402575457E+01 -0.19157355040E+01  0.83670958061E+01  0.00000000000E+00 0.  1.
         14    1    4    4    0    0 -0.35402533811E+02  0.10323174573E+02  0.23205432372E+03  0.23496620287E+03  0.00000000000E+00 0. -1.
         -5    1    5    5    0  502 -0.58543308503E+02  0.59046397660E+02  0.53394777276E+02  0.98928703051E+02  0.47000000000E+01 0.  1.
         11    1    6    6    0    0  0.23699155914E+02  0.29560488952E+02  0.58381724037E+02  0.69598119225E+02  0.00000000000E+00 0. -1.
        -12    1    6    6    0    0  0.20003120084E+02 -0.46138979621E+02  0.35536618905E+02  0.61577443409E+02  0.00000000000E+00 0.  1.
</event>
<event>
12    1  0.8344842E-002  0.2019109E+03  0.7818608E-02  0.1148613E+00
         21   -1    0    0  503  502  0.00000000000E+00  0.00000000000E+00  0.24312240771E+03  0.24312240771E+03  0.00000000000E+00 0.  1.
         21   -1    0    0  501  503 -0.00000000000E+00 -0.00000000000E+00 -0.16817413714E+03  0.16817413714E+03  0.00000000000E+00 0.  1.
          6    2    1    2  501    0  0.72382150082E+02 -0.76967790432E+02  0.13276220327E+02  0.20234687845E+03  0.17206041026E+03 0.  0.
         24    2    3    3    0    0  0.29842272558E+02 -0.18984064168E+01 -0.46120692396E+02  0.97489180419E+02  0.80516190007E+02 0.  0.
         -6    2    1    2    0  502 -0.72382150082E+02  0.76967790432E+02  0.61672050244E+02  0.20894966640E+03  0.16939098232E+03 0.  0.
        -24    2    5    5    0    0 -0.28889777780E+02  0.10315519419E+03  0.78869795311E+02  0.15514242711E+03  0.79831790212E+02 0.  0.
          5    1    3    3  501    0  0.42539877524E+02 -0.75069384016E+02  0.59396912723E+02  0.10485769804E+03  0.47000000000E+01 0. -1.
        -13    1    4    4    0    0  0.48763507699E+01 -0.35231255572E+02 -0.42889317566E+02  0.55718163352E+02  0.00000000000E+00 0.  1.
         14    1    4    4    0    0  0.24965921788E+02  0.33332849155E+02 -0.32313748304E+01  0.41771017067E+02  0.00000000000E+00 0. -1.
         -5    1    5    5    0  502 -0.43492372302E+02 -0.26187403759E+02 -0.17197745068E+02  0.53807239285E+02  0.47000000000E+01 0.  1.
         13    1    6    6    0    0  0.79607330635E+01  0.19078327276E+02 -0.13678942381E+02  0.24788491427E+02  0.00000000000E+00 0. -1.
        -14    1    6    6    0    0 -0.36850510843E+02  0.84076866915E+02  0.92548737692E+02  0.13035393568E+03  0.00000000000E+00 0.  1.
</event>
<event>
12    1  0.8344842E-002  0.2247808E+03  0.7818608E-02  0.1130587E+00
         21   -1    0    0  503  502  0.00000000000E+00  0.00000000000E+00  0.26897021814E+02  0.26897021814E+02  0.00000000000E+00 0.  1.
         21   -1    0    0  501  503 -0.00000000000E+00 -0.00000000000E+00 -0.22100608079E+04  0.22100608079E+04  0.00000000000E+00 0.  1.
          6    2    1    2  501    0 -0.11468637236E+03  0.89739563052E+02 -0.15288214036E+04  0.15450833090E+04  0.16965080211E+03 0.  0.
         24    2    3    3    0    0 -0.19074269314E+02 -0.96059381112E+01 -0.52074324298E+03  0.52760855716E+03  0.82104583774E+02 0.  0.
         -6    2    1    2    0  502  0.11468637236E+03 -0.89739563052E+02 -0.65434238253E+03  0.69187452070E+03  0.17123155559E+03 0.  0.
        -24    2    5    5    0    0  0.76218917096E+02 -0.71696637221E+02 -0.62793145619E+03  0.64162594542E+03  0.80225987370E+02 0.  0.
          5    1    3    3  501    0 -0.95612103050E+02  0.99345501163E+02 -0.10080781606E+04  0.10174747519E+04  0.47000000000E+01 0. -1.
        -13    1    4    4    0    0 -0.43670797979E+02  0.16864631622E+02 -0.23750846563E+03  0.24207813954E+03  0.00000000000E+00 0.  1.
         14    1    4    4    0    0  0.24596528665E+02 -0.26470569733E+02 -0.28323477735E+03  0.28553041762E+03  0.00000000000E+00 0. -1.
         -5    1    5    5    0  502  0.38467455268E+02 -0.18042925831E+02 -0.26410926343E+02  0.50248575279E+02  0.47000000000E+01 0.  1.
         13    1    6    6    0    0 -0.31708096528E+01  0.17271392283E+01 -0.20682613233E+03  0.20685764684E+03  0.00000000000E+00 0. -1.
        -14    1    6    6    0    0  0.79389726749E+02 -0.73423776450E+02 -0.42110532386E+03  0.43476829858E+03  0.00000000000E+00 0.  1.
</event>
<event>
12    1  0.8344842E-002  0.3328726E+03  0.7818608E-02  0.1069922E+00
         21   -1    0    0  503  502  0.00000000000E+00  0.00000000000E+00  0.17148314167E+04  0.17148314167E+04  0.00000000000E+00 0.  1.
         21   -1    0    0  501  503 -0.00000000000E+00 -0.00000000000E+00 -0.22184816337E+03  0.22184816337E+03  0.00000000000E+00 0. -1.
          6    2    1    2  501    0  0.28516503538E+03  0.58321502424E+01 -0.69092895293E+02  0.33953022945E+03  0.17074494765E+03 0.  0.
         24    2    3    3    0    0  0.20647294660E+03  0.67593528206E+02 -0.36546382740E+02  0.23422933618E+03  0.79547351310E+02 0.  0.
         -6    2    1    2    0  502 -0.28516503538E+03 -0.58321502424E+01  0.15620761487E+04  0.15971493507E+04  0.17161306110E+03 0.  0.
        -24    2    5    5    0    0 -0.19819650267E+03 -0.63214035843E+02  0.92810332059E+03  0.95465433651E+03  0.81922283543E+02 0.  0.
          5    1    3    3  501    0  0.78692088773E+02 -0.61761377964E+02 -0.32546512553E+02  0.10530089327E+03  0.47000000000E+01 0. -1.
        -13    1    4    4    0    0  0.14086669342E+03  0.83109980336E+02 -0.32020972997E+02  0.16666144383E+03  0.00000000000E+00 0.  1.
         14    1    4    4    0    0  0.65606253183E+02 -0.15516452130E+02 -0.45254097423E+01  0.67567892351E+02  0.00000000000E+00 0. -1.
         -5    1    5    5    0  502 -0.86968532712E+02  0.57381885601E+02  0.63397282808E+03  0.64249501416E+03  0.47000000000E+01 0.  1.
         11    1    6    6    0    0  0.57494545105E+01  0.27657584180E-01  0.66792318193E+01  0.88130091232E+01  0.00000000000E+00 0. -1.
        -12    1    6    6    0    0 -0.20394595718E+03 -0.63241693427E+02  0.92142408877E+03  0.94584132739E+03  0.00000000000E+00 0.  1.
</event>
<event>
12    1  0.8344842E-002  0.1832696E+03  0.7818608E-02  0.1164776E+00
         21   -1    0    0  503  502  0.00000000000E+00  0.00000000000E+00  0.16768135095E+03  0.16768135095E+03  0.00000000000E+00 0.  1.
         21   -1    0    0  501  503 -0.00000000000E+00 -0.00000000000E+00 -0.24926403837E+03  0.24926403837E+03  0.00000000000E+00 0.  1.
          6    2    1    2  501    0  0.54926109382E+02 -0.31626985522E+02  0.52074739947E+02  0.19011496075E+03  0.17150736444E+03 0.  0.
         24    2    3    3    0    0  0.95473559529E+02 -0.48190984840E+02  0.58738810184E+02  0.14556205266E+03  0.79375637099E+02 0.  0.
         -6    2    1    2    0  502 -0.54926109382E+02  0.31626985522E+02 -0.13365742736E+03  0.22683042857E+03  0.17196101806E+03 0.  0.
        -24    2    5    5    0    0 -0.17882658213E+02 -0.38621220332E+01  0.31808624323E+01  0.80616538728E+02  0.78448728348E+02 0.  0.
          5    1    3    3  501    0 -0.40547450148E+02  0.16563999319E+02 -0.66640702367E+01  0.44552908087E+02  0.47000000000E+01 0. -1.
        -13    1    4    4    0    0  0.20023790630E+02  0.19203253026E+02  0.28957777233E+02  0.40103241518E+02  0.00000000000E+00 0.  1.
         14    1    4    4    0    0  0.75449768900E+02 -0.67394237867E+02  0.29781032951E+02  0.10545881115E+03  0.00000000000E+00 0. -1.
         -5    1    5    5    0  502 -0.37043451169E+02  0.35489107555E+02 -0.13683828979E+03  0.14621388984E+03  0.47000000000E+01 0.  1.
         13    1    6    6    0    0  0.23039849039E+02  0.16300427503E+02  0.17002440234E+02  0.32948771668E+02  0.00000000000E+00 0. -1.
        -14    1    6    6    0    0 -0.40922507252E+02 -0.20162549536E+02 -0.13821577801E+02  0.47667767060E+02  0.00000000000E+00 0.  1.
</event>
<event>
12    1  0.8344842E-002  0.2014427E+03  0.7818608E-02  0.1148582E+00
         21   -1    0    0  501  502  0.00000000000E+00  0.00000000000E+00  0.93062936766E+03  0.93062936766E+03  0.00000000000E+00 0.  1.
         21   -1    0    0  502  503 -0.00000000000E+00 -0.00000000000E+00 -0.45152956232E+02  0.45152956232E+02  0.00000000000E+00 0. -1.
         -6    2    1    2    0  503 -0.95343076998E+02  0.44207079380E+02  0.35101342975E+03  0.40470926329E+03  0.17185631128E+03 0.  0.
        -24    2    3    3    0    0 -0.56881383448E+02  0.49223887386E+02  0.34863159703E+03  0.36556551078E+03  0.80222623705E+02 0.  0.
          6    2    1    2  501    0  0.95343076998E+02 -0.44207079380E+02  0.53446298168E+03  0.57107306061E+03  0.17154939104E+03 0.  0.
         24    2    5    5    0    0  0.31872809716E+02 -0.50118450328E+02  0.14058620212E+03  0.17204370503E+03  0.79415496924E+02 0.  0.
          5    1    5    5  501    0  0.63470267282E+02  0.59113709477E+01  0.39387677956E+03  0.39902935558E+03  0.47000000000E+01 0. -1.
        -13    1    6    6    0    0 -0.12693797592E+02 -0.50542971074E+02  0.94598922878E+02  0.10800315103E+03  0.00000000000E+00 0.  1.
         14    1    6    6    0    0  0.44566607309E+02  0.42452074660E+00  0.45987279244E+02  0.64040554004E+02  0.00000000000E+00 0. -1.
         -5    1    3    3    0  503 -0.38461693550E+02 -0.50168080055E+01  0.23818327233E+01  0.39143752508E+02  0.47000000000E+01 0.  1.
         13    1    4    4    0    0  0.19725488808E+02  0.10180053858E+02  0.48081309912E+02  0.52957915066E+02  0.00000000000E+00 0. -1.
        -14    1    4    4    0    0 -0.76606872256E+02  0.39043833527E+02  0.30055028711E+03  0.31260759571E+03  0.00000000000E+00 0.  1.
</event>
<event>
12    1  0.8344842E-002  0.2641162E+03  0.7818608E-02  0.1104713E+00
         21   -1    0    0  501  502  0.00000000000E+00  0.00000000000E+00  0.16914096515E+03  0.16914096515E+03  0.00000000000E+00 0.  1.
         21   -1    0    0  502  503 -0.00000000000E+00 -0.00000000000E+00 -0.52683411058E+03  0.52683411058E+03  0.00000000000E+00 0.  1.
         -6    2    1    2    0  503  0.12553204578E+03 -0.15610888963E+03 -0.34111377280E+03  0.43133902374E+03  0.17194902579E+03 0.  0.
        -24    2    3    3    0    0  0.11179250274E+02 -0.35848488300E+02 -0.17542548091E+03  0.19678876039E+03  0.80880325878E+02 0.  0.
          6    2    1    2  501    0 -0.12553204578E+03  0.15610888963E+03 -0.16579372624E+02  0.26463605199E+03  0.17213100964E+03 0.  0.
         24    2    5    5    0    0 -0.47487233228E+02  0.21259660553E+02 -0.45054091965E+02  0.10618035790E+03  0.80854107594E+02 0.  0.
          5    1    5    5  501    0 -0.78044812550E+02  0.13484922907E+03  0.28474719341E+02  0.15845569409E+03  0.47000000000E+01 0. -1.
        -11    1    6    6    0    0 -0.62486953483E+02  0.21246388311E+02 -0.56841488626E+02  0.87103290414E+02  0.00000000000E+00 0.  1.
         12    1    6    6    0    0  0.14999720255E+02  0.13272241258E-01  0.11787396661E+02  0.19077067487E+02  0.00000000000E+00 0. -1.
         -5    1    3    3    0  503  0.11435279550E+03 -0.12026040133E+03 -0.16568829189E+03  0.23455026335E+03  0.47000000000E+01 0.  1.
         11    1    4    4    0    0  0.20579523399E+02 -0.11471952198E+02 -0.46363559775E+01  0.24012877115E+02  0.00000000000E+00 0. -1.
        -12    1    4    4    0    0 -0.94002731254E+01 -0.24376536102E+02 -0.17078912493E+03  0.17277588328E+03  0.00000000000E+00 0.  1.
</event>
<event>
12    1  0.8344842E-002  0.1793440E+03  0.7818608E-02  0.1169588E+00
         21   -1    0    0  503  502  0.00000000000E+00  0.00000000000E+00  0.10590764585E+04  0.10590764585E+04  0.00000000000E+00 0.  1.
         21   -1    0    0  501  503 -0.00000000000E+00 -0.00000000000E+00 -0.30304717499E+02  0.30304717499E+02  0.00000000000E+00 0. -1.
          6    2    1    2  501    0 -0.15179667369E+02 -0.45231775420E+02  0.59161397342E+03  0.61686539056E+03  0.16804606725E+03 0.  0.
         24    2    3    3    0    0 -0.62578336210E+02 -0.22016889718E+02  0.50499084149E+03  0.51532120456E+03  0.78354337983E+02 0.  0.
         -6    2    1    2    0  502  0.15179667369E+02  0.45231775420E+02  0.43715776753E+03  0.47251578539E+03  0.17288122489E+03 0.  0.
        -24    2    5    5    0    0 -0.15899293676E+02 -0.11777385241E+02  0.91746006266E+02  0.12102279678E+03  0.76404799147E+02 0.  0.
          5    1    3    3  501    0  0.47398668841E+02 -0.23214885702E+02  0.86623131928E+02  0.10154418600E+03  0.47000000000E+01 0. -1.
        -11    1    4    4    0    0 -0.31198150057E+02  0.24577550641E+02  0.30553049654E+03  0.30810106276E+03  0.00000000000E+00 0.  1.
         12    1    4    4    0    0 -0.31380186153E+02 -0.46594440359E+02  0.19946034496E+03  0.20722014180E+03  0.00000000000E+00 0. -1.
         -5    1    5    5    0  502  0.31078961045E+02  0.57009160661E+02  0.34541176127E+03  0.35149298861E+03  0.47000000000E+01 0.  1.
         13    1    6    6    0    0  0.86492856252E+01  0.29437390293E+02  0.40752906664E+02  0.51011464306E+02  0.00000000000E+00 0. -1.
        -14    1    6    6    0    0 -0.24548579301E+02 -0.41214775534E+02  0.50993099601E+02  0.70011332475E+02  0.00000000000E+00 0.  1.
</event>
<event>
12    1  0.8344842E-002  0.1844733E+03  0.7818608E-02  0.1163545E+00
         21   -1    0    0  503  502  0.00000000000E+00  0.00000000000E+00  0.39505541905E+02  0.39505541905E+02  0.00000000000E+00 0. -1.
         21   -1    0    0  501  503 -0.00000000000E+00 -0.00000000000E+00 -0.86328875924E+03  0.86328875924E+03  0.00000000000E+00 0. -1.
          6    2    1    2  501    0  0.32464288321E+02  0.55386863579E+02 -0.43318433164E+03  0.47082453766E+03  0.17293190976E+03 0.  0.
         24    2    3    3    0    0 -0.37726101367E+02  0.69009003829E+02 -0.28236741688E+03  0.30385123055E+03  0.80054424352E+02 0.  0.
         -6    2    1    2    0  502 -0.32464288321E+02 -0.55386863579E+02 -0.39059888569E+03  0.43196976348E+03  0.17294147098E+03 0.  0.
        -24    2    5    5    0    0 -0.75392488639E+02 -0.51811011258E+02 -0.35605628054E+03  0.37655407371E+03  0.81538256563E+02 0.  0.
          5    1    3    3  501    0  0.70190389688E+02 -0.13622140249E+02 -0.15081691476E+03  0.16697330711E+03  0.47000000000E+01 0. -1.
        -13    1    4    4    0    0 -0.55854537803E+02  0.48922792990E+02 -0.25407966922E+03  0.26470671955E+03  0.00000000000E+00 0.  1.
         14    1    4    4    0    0  0.18128436436E+02  0.20086210839E+02 -0.28287747664E+02  0.39144510999E+02  0.00000000000E+00 0. -1.
         -5    1    5    5    0  502  0.42928200318E+02 -0.35758523212E+01 -0.34542605152E+02  0.55415689774E+02  0.47000000000E+01 0.  1.
         11    1    6    6    0    0 -0.36379144654E+02  0.18617097560E+02 -0.14549141542E+03  0.15112177357E+03  0.00000000000E+00 0. -1.
        -12    1    6    6    0    0 -0.39013343985E+02 -0.70428108819E+02 -0.21056486512E+03  0.22543230014E+03  0.00000000000E+00 0.  1.
</event>
<event>
12    1  0.8344842E-002  0.1951027E+03  0.7818608E-02  0.1154105E+00
         21   -1    0    0  501  502  0.00000000000E+00  0.00000000000E+00  0.10141616573E+03  0.10141616573E+03  0.00000000000E+00 0. -1.
         21   -1    0    0  502  503 -0.00000000000E+00 -0.00000000000E+00 -0.86172579099E+03  0.86172579099E+03  0.00000000000E+00 0. -1.
         -6    2    1    2    0  503 -0.43531544446E+02  0.81379096877E+02 -0.74217691568E+03  0.76719849404E+03  0.17102456640E+03 0.  0.
        -24    2    3    3    0    0  0.20791194502E+02  0.96797533132E+02 -0.46088088265E+03  0.47819210809E+03  0.80339704091E+02 0.  0.
          6    2    1    2  501    0  0.43531544446E+02 -0.81379096877E+02 -0.18132709578E+02  0.19594346268E+03  0.17189384120E+03 0.  0.
         24    2    5    5    0    0  0.13086610819E+02 -0.11954307370E+03 -0.27739597241E+02  0.14596581367E+03  0.77940539221E+02 0.  0.
          5    1    5    5  501    0  0.30444933627E+02  0.38163976819E+02  0.96068876628E+01  0.49977649012E+02  0.47000000000E+01 0. -1.
        -13    1    6    6    0    0 -0.71918481316E+00  0.25132613145E+00 -0.25343252171E+02  0.25354700200E+02  0.00000000000E+00 0.  1.
         14    1    6    6    0    0  0.13805795632E+02 -0.11979439983E+03 -0.23963450701E+01  0.12061111347E+03  0.00000000000E+00 0. -1.
         -5    1    3    3    0  503 -0.64322738948E+02 -0.15418436255E+02 -0.28129603303E+03  0.28900638595E+03  0.47000000000E+01 0.  1.
         11    1    4    4    0    0  0.75109899337E+01  0.86493008077E+02 -0.44970033149E+03  0.45800419601E+03  0.00000000000E+00 0. -1.
        -12    1    4    4    0    0  0.13280204568E+02  0.10304525055E+02 -0.11180551164E+02  0.20187912083E+02  0.00000000000E+00 0.  1.
</event>
<event>
12    1  0.8344842E-002  0.2103290E+03  0.7818608E-02  0.1141567E+00
         21   -1    0    0  503  502  0.00000000000E+00  0.00000000000E+00  0.21356854628E+03  0.21356854628E+03  0.00000000000E+00 0.  1.
         21   -1    0    0  501  503 -0.00000000000E+00 -0.00000000000E+00 -0.23071723337E+03  0.23071723337E+03  0.00000000000E+00 0. -1.
          6    2    1    2  501    0 -0.46966462890E+02  0.10758406656E+03 -0.81537288007E+02  0.22558066924E+03  0.17452257443E+03 0.  0.
         24    2    3    3    0    0 -0.77901035154E+02  0.29437281479E+02 -0.12942040466E+02  0.11699307434E+03  0.81146523115E+02 0.  0.
         -6    2    1    2    0  502  0.46966462890E+02 -0.10758406656E+03  0.64388600909E+02  0.21870511041E+03  0.17293308931E+03 0.  0.
        -24    2    5    5    0    0  0.37440415578E+02 -0.92077809318E+02  0.11056803704E+03  0.16884711293E+03  0.80024677725E+02 0.  0.
          5    1    3    3  501    0  0.30934572265E+02  0.78146785086E+02 -0.68595247541E+02  0.10858759490E+03  0.47000000000E+01 0. -1.
        -11    1    4    4    0    0 -0.44733396171E+02  0.31875755291E+02  0.30072074708E+02  0.62621643108E+02  0.00000000000E+00 0.  1.
         12    1    4    4    0    0 -0.33167638984E+02 -0.24384738126E+01 -0.43014115174E+02  0.54371431234E+02  0.00000000000E+00 0. -1.
         -5    1    5    5    0  502  0.95260473117E+01 -0.15506257247E+02 -0.46179436126E+02  0.49857997474E+02  0.47000000000E+01 0.  1.
         13    1    6    6    0    0 -0.88527626789E+01  0.77583663125E+01 -0.13984364636E+01  0.11854082817E+02  0.00000000000E+00 0. -1.
        -14    1    6    6    0    0  0.46293178257E+02 -0.99836175630E+02  0.11196647350E+03  0.15699303012E+03  0.00000000000E+00 0.  1.
</event>
<event>
12    1  0.8344842E-002  0.2042498E+03  0.7818608E-02  0.1146794E+00
         21   -1    0    0  503  502  0.00000000000E+00  0.00000000000E+00  0.41363866883E+03  0.41363866883E+03  0.00000000000E+00 0.  1.
         21   -1    0    0  501  503 -0.00000000000E+00 -0.00000000000E+00 -0.10542587781E+03  0.10542587781E+03  0.00000000000E+00 0. -1.
          6    2    1    2  501    0  0.43333204469E+02 -0.95915870041E+02  0.91278472074E+02  0.22110736675E+03  0.17169475075E+03 0.  0.
         24    2    3    3    0    0 -0.28310446199E+02 -0.36632545793E+02  0.90267769829E+02  0.12799218682E+03  0.78040405190E+02 0.  0.
         -6    2    1    2    0  502 -0.43333204469E+02  0.95915870041E+02  0.21693431895E+03  0.29795717989E+03  0.17504388471E+03 0.  0.
        -24    2    5    5    0    0 -0.25210621261E+02  0.18455109828E+02  0.25895986831E+02  0.90963625078E+02  0.81410149553E+02 0.  0.
          5    1    3    3  501    0  0.71643650668E+02 -0.59283324248E+02  0.10107022449E+01  0.93115179933E+02  0.47000000000E+01 0. -1.
        -13    1    4    4    0    0 -0.51059391268E+02 -0.21288542281E+02  0.32808020055E+02  0.64316635866E+02  0.00000000000E+00 0.  1.
         14    1    4    4    0    0  0.22748945069E+02 -0.15344003512E+02  0.57459749774E+02  0.63675550957E+02  0.00000000000E+00 0. -1.
         -5    1    5    5    0  502 -0.18122583209E+02  0.77460760213E+02  0.19103833212E+03  0.20699355481E+03  0.47000000000E+01 0.  1.
         11    1    6    6    0    0  0.28476735140E+02  0.15505268299E+02  0.16497676693E+02  0.36380092435E+02  0.00000000000E+00 0. -1.
        -12    1    6    6    0    0 -0.53687356401E+02  0.29498415293E+01  0.93983101379E+01  0.54583532643E+02  0.00000000000E+00 0.  1.
</event>
<event>
12    1  0.8344842E-002  0.3161952E+03  0.7818608E-02  0.1078734E+00
         21   -1    0    0  501  502  0.00000000000E+00  0.00000000000E+00  0.11160389768E+03  0.11160389768E+03  0.00000000000E+00 0. -1.
         21   -1    0    0  502  503 -0.00000000000E+00 -0.00000000000E+00 -0.96052761532E+03  0.96052761532E+03  0.00000000000E+00 0.  1.
         -6    2    1    2    0  503 -0.38639808765E+02  0.25006691429E+03 -0.60056937995E+03  0.67872155881E+03  0.18961244106E+03 0.  0.
        -24    2    3    3    0    0 -0.28348194815E+02  0.12552377461E+03 -0.48572211742E+03  0.50893082092E+03  0.80776029838E+02 0.  0.
          6    2    1    2  501    0  0.38639808765E+02 -0.25006691429E+03 -0.24835433768E+03  0.39340995420E+03  0.17048465788E+03 0.  0.
         24    2    5    5    0    0  0.72187337559E+02 -0.24597628305E+03 -0.20471191350E+03  0.33801211001E+03  0.81424047163E+02 0.  0.
          5    1    5    5  501    0 -0.33547528794E+02 -0.40906312363E+01 -0.43642424183E+02  0.55397844188E+02  0.47000000000E+01 0. -1.
        -11    1    6    6    0    0  0.52198011111E+02 -0.70642634026E+02 -0.98804491217E+02  0.13220189708E+03  0.00000000000E+00 0.  1.
         12    1    6    6    0    0  0.19989326448E+02 -0.17533364903E+03 -0.10590742228E+03  0.20581021293E+03  0.00000000000E+00 0. -1.
         -5    1    3    3    0  503 -0.10291613950E+02  0.12454313968E+03 -0.11484726254E+03  0.16979073788E+03  0.47000000000E+01 0.  1.
         11    1    4    4    0    0 -0.15081758970E+02  0.39542200652E+02 -0.30974680751E+03  0.31262458292E+03  0.00000000000E+00 0. -1.
        -12    1    4    4    0    0 -0.13266435845E+02  0.85981573962E+02 -0.17597530991E+03  0.19630623800E+03  0.00000000000E+00 0.  1.
</event>
<event>
12    1  0.8344842E-002  0.2045770E+03  0.7818608E-02  0.1145982E+00
         21   -1    0    0  501  502  0.00000000000E+00  0.00000000000E+00  0.13012108438E+03  0.13012108438E+03  0.00000000000E+00 0. -1.
         21   -1    0    0  502  503 -0.00000000000E+00 -0.00000000000E+00 -0.60762127885E+03  0.60762127885E+03  0.00000000000E+00 0. -1.
         -6    2    1    2    0  503  0.31915835086E+02  0.10650762759E+03 -0.49190433705E+03  0.53265889028E+03  0.17144422218E+03 0.  0.
        -24    2    3    3    0    0 -0.32677391842E+02  0.18449196414E+02 -0.28965377677E+03  0.30275901773E+03  0.79721563147E+02 0.  0.
          6    2    1    2  501    0 -0.31915835086E+02 -0.10650762759E+03  0.14404142585E+02  0.20508347295E+03  0.17172436137E+03 0.  0.
         24    2    5    5    0    0  0.32100344505E+02 -0.86828417136E+02  0.46900940567E+02  0.13049477104E+03  0.79117513247E+02 0.  0.
          5    1    5    5  501    0 -0.64016179591E+02 -0.19679210459E+02 -0.32496797982E+02  0.74588701911E+02  0.47000000000E+01 0. -1.
        -11    1    6    6    0    0 -0.24379090138E+02 -0.25035717917E+02  0.86257495413E+00  0.34955274897E+02  0.00000000000E+00 0.  1.
         12    1    6    6    0    0  0.56479434644E+02 -0.61792699219E+02  0.46038365613E+02  0.95539496140E+02  0.00000000000E+00 0. -1.
         -5    1    3    3    0  503  0.64593226928E+02  0.88058431181E+02 -0.20225056028E+03  0.22989987256E+03  0.47000000000E+01 0.  1.
         13    1    4    4    0    0 -0.66180893664E+01  0.47902673787E+02 -0.17441379242E+03  0.18099347019E+03  0.00000000000E+00 0. -1.
        -14    1    4    4    0    0 -0.26059302476E+02 -0.29453477374E+02 -0.11523998435E+03  0.12176554754E+03  0.00000000000E+00 0.  1.
</event>
<event>
12    1  0.8344842E-002  0.1814466E+03  0.7818608E-02  0.1166786E+00
         21   -1    0    0  501  502  0.00000000000E+00  0.00000000000E+00  0.30562491169E+03  0.30562491169E+03  0.00000000000E+00 0.  1.
         21   -1    0    0  502  503 -0.00000000000E+00 -0.00000000000E+00 -0.38544943534E+03  0.38544943534E+03  0.00000000000E+00 0.  1.
         -6    2    1    2    0  503  0.41505864815E+02  0.40592035456E+02 -0.33375276055E+03  0.37988651753E+03  0.17190814661E+03 0.  0.
        -24    2    3    3    0    0  0.87947790754E+00  0.66596612787E+02 -0.31022978425E+03  0.32601480167E+03  0.74881570222E+02 0.  0.
          6    2    1    2  501    0 -0.41505864815E+02 -0.40592035456E+02  0.25392823690E+03  0.31118782950E+03  0.17025823203E+03 0.  0.
         24    2    5    5    0    0 -0.69435253445E+01 -0.81607648546E+02  0.21893926916E+03  0.24697604171E+03  0.79716627849E+02 0.  0.
          5    1    5    5  501    0 -0.34562339470E+02  0.41015613091E+02  0.34988967746E+02  0.64211787787E+02  0.47000000000E+01 0. -1.
        -11    1    6    6    0    0  0.34643351902E+02 -0.36476645409E+02  0.72967641789E+02  0.88628348961E+02  0.00000000000E+00 0.  1.
         12    1    6    6    0    0 -0.41586877247E+02 -0.45131003137E+02  0.14597162737E+03  0.15834769275E+03  0.00000000000E+00 0. -1.
         -5    1    3    3    0  503  0.40626386907E+02 -0.26004577332E+02 -0.23522976299E+02  0.53871715856E+02  0.47000000000E+01 0.  1.
         13    1    4    4    0    0  0.20470770462E+02 -0.23873840516E+01 -0.27699443667E+02  0.34525515569E+02  0.00000000000E+00 0. -1.
        -14    1    4    4    0    0 -0.19591292554E+02  0.68983996839E+02 -0.28253034058E+03  0.29148928610E+03  0.00000000000E+00 0.  1.
</event>
<event>
12    1  0.8344842E-002  0.1748006E+03  0.7818608E-02  0.1173071E+00
         21   -1    0    0  501  502  0.00000000000E+00  0.00000000000E+00  0.12481698635E+04  0.12481698635E+04  0.00000000000E+00 0. -1.
         21   -1    0    0  502  503 -0.00000000000E+00 -0.00000000000E+00 -0.29943988572E+02  0.29943988572E+02  0.00000000000E+00 0. -1.
         -6    2    1    2    0  503  0.16517403660E+02 -0.28304363740E+02  0.33341874747E+03  0.37620536797E+03  0.17113870426E+03 0.  0.
        -24    2    3    3    0    0  0.23198219708E+02  0.39121264226E+02  0.26186671932E+03  0.27755126850E+03  0.79949341754E+02 0.  0.
          6    2    1    2  501    0 -0.16517403660E+02  0.28304363740E+02  0.88480712748E+03  0.90190848413E+03  0.17170119180E+03 0.  0.
         24    2    5    5    0    0 -0.33782375371E+02 -0.43091394940E+02  0.38704764561E+03  0.39873652009E+03  0.78656311074E+02 0.  0.
          5    1    5    5  501    0  0.17264971712E+02  0.71395758679E+02  0.49775948187E+03  0.50317196404E+03  0.47000000000E+01 0. -1.
        -13    1    6    6    0    0  0.87650219707E+01 -0.50677600866E+02  0.24109967559E+03  0.24652403211E+03  0.00000000000E+00 0.  1.
         14    1    6    6    0    0 -0.42547397342E+02  0.75862059265E+01  0.14594797003E+03  0.15221248797E+03  0.00000000000E+00 0. -1.
         -5    1    3    3    0  503 -0.66808160484E+01 -0.67425627966E+02  0.71552028146E+02  0.98654099466E+02  0.47000000000E+01 0.  1.
         11    1    4    4    0    0  0.13695305541E+02 -0.17449849808E+02  0.23242689058E+02  0.32129133926E+02  0.00000000000E+00 0. -1.
        -12    1    4    4    0    0  0.95029141665E+01  0.56571114034E+02  0.23862403027E+03  0.24542213458E+03  0.00000000000E+00 0.  1.
</event>
<event>
12    1  0.8344842E-002  0.2659962E+03  0.7818608E-02  0.1103646E+00
         21   -1    0    0  501  502  0.00000000000E+00  0.00000000000E+00  0.60333915279E+03  0.60333915279E+03  0.00000000000E+00 0.  1.
         21   -1    0    0  502  503 -0.00000000000E+00 -0.00000000000E+00 -0.11718659442E+03  0.11718659442E+03  0.00000000000E+00 0. -1.
         -6    2    1    2    0  503 -0.19621106994E+03 -0.50666748600E+02  0.23378491413E+03  0.35386046134E+03  0.17174381108E+03 0.  0.
        -24    2    3    3    0    0 -0.48445283613E+02 -0.49670388974E+02  0.45780942516E+02  0.11468833988E+03  0.79015362820E+02 0.  0.
          6    2    1    2  501    0  0.19621106994E+03  0.50666748600E+02  0.25236764424E+03  0.36666528587E+03  0.17230235235E+03 0.  0.
         24    2    5    5    0    0  0.93716084866E+02  0.11282405388E+02  0.21865861325E+03  0.25170991529E+03  0.81463458521E+02 0.  0.
          5    1    5    5  501    0  0.10249498507E+03  0.39384343212E+02  0.33709030989E+02  0.11495537058E+03  0.47000000000E+01 0. -1.
        -11    1    6    6    0    0  0.91196238328E+02  0.33639322319E+02  0.20041884939E+03  0.22274665672E+03  0.00000000000E+00 0.  1.
         12    1    6    6    0    0  0.25198465370E+01 -0.22356916931E+02  0.18239763864E+02  0.28963258571E+02  0.00000000000E+00 0. -1.
         -5    1    3    3    0  503 -0.14776578633E+03 -0.99635962568E+00  0.18800397161E+03  0.23917212146E+03  0.47000000000E+01 0.  1.
         13    1    4    4    0    0  0.13549317467E+02 -0.35873565116E+02  0.31416001018E+02  0.49572792920E+02  0.00000000000E+00 0. -1.
        -14    1    4    4    0    0 -0.61994601080E+02 -0.13796823858E+02  0.14364941497E+02  0.65115546960E+02  0.00000000000E+00 0.  1.
</event>
<event>
12    1  0.8344842E-002  0.2110710E+03  0.7818608E-02  0.1141313E+00
         21   -1    0    0  503  502  0.00000000000E+00  0.00000000000E+00  0.75398751399E+03  0.75398751399E+03  0.00000000000E+00 0.  1.
         21   -1    0    0  501  503 -0.00000000000E+00 -0.00000000000E+00 -0.10234585747E+03  0.10234585747E+03  0.00000000000E+00 0.  1.
          6    2    1    2  501    0  0.22425013292E+02  0.12001742474E+03  0.43469451898E+02  0.21257534811E+03  0.16849813623E+03 0.  0.
         24    2    3    3    0    0 -0.38939568203E+02  0.11794550987E+03  0.41814347501E+02  0.15097393527E+03  0.74948356909E+02 0.  0.
         -6    2    1    2    0  502 -0.22425013292E+02 -0.12001742474E+03  0.60817220462E+03  0.64375802336E+03  0.17217403608E+03 0.  0.
        -24    2    5    5    0    0  0.30267786174E+02 -0.67231607294E+02  0.19239923370E+03  0.22132207912E+03  0.80806990268E+02 0.  0.
          5    1    3    3  501    0  0.61364581495E+02  0.20719148659E+01  0.16551043968E+01  0.61601412839E+02  0.47000000000E+01 0. -1.
        -13    1    4    4    0    0  0.24878499568E+01  0.58128794137E+02 -0.13314643142E+02  0.59686060578E+02  0.00000000000E+00 0.  1.
         14    1    4    4    0    0 -0.41427418159E+02  0.59816715735E+02  0.55128990643E+02  0.91287874693E+02  0.00000000000E+00 0. -1.
         -5    1    5    5    0  502 -0.52692799466E+02 -0.52785817445E+02  0.41577297092E+03  0.42243594424E+03  0.47000000000E+01 0.  1.
         11    1    6    6    0    0  0.23731233391E+02  0.14041571409E+02  0.55741088758E+02  0.62188472741E+02  0.00000000000E+00 0. -1.
        -12    1    6    6    0    0  0.65365527833E+01 -0.81273178702E+02  0.13665814495E+03  0.15913360638E+03  0.00000000000E+00 0.  1.
</event>
<event>
12    1  0.8344842E-002  0.2116070E+03  0.7818608E-02  0.1140387E+00
         21   -1    0    0  503  502  0.00000000000E+00  0.00000000000E+00  0.73376912417E+02  0.73376912417E+02  0.00000000000E+00 0. -1.
         21   -1    0    0  501  503 -0.00000000000E+00 -0.00000000000E+00 -0.18476397881E+04  0.18476397881E+04  0.00000000000E+00 0. -1.
          6    2    1    2  501    0  0.25249388352E+02 -0.11734050840E+03 -0.16738947301E+04  0.16872169695E+04  0.17427337193E+03 0.  0.
         24    2    3    3    0    0 -0.53420764145E+02 -0.51478992885E+02 -0.77885596526E+03  0.78630453608E+03  0.78449627665E+02 0.  0.
         -6    2    1    2    0  502 -0.25249388352E+02  0.11734050840E+03 -0.10036814557E+03  0.23379973101E+03  0.17373031702E+03 0.  0.
        -24    2    5    5    0    0 -0.41158332241E+02  0.32766053176E+02 -0.11226419767E+03  0.14679663320E+03  0.78602664632E+02 0.  0.
          5    1    3    3  501    0  0.78670152497E+02 -0.65861515514E+02 -0.89503876484E+03  0.90091243341E+03  0.47000000000E+01 0. -1.
        -11    1    4    4    0    0 -0.36147274106E+02  0.31009272825E+01 -0.13121343227E+03  0.13613671798E+03  0.00000000000E+00 0.  1.
         12    1    4    4    0    0 -0.17273490038E+02 -0.54579920167E+02 -0.64764253300E+03  0.65016781810E+03  0.00000000000E+00 0. -1.
         -5    1    5    5    0  502  0.15908943889E+02  0.84574455223E+02  0.11896052106E+02  0.87003097805E+02  0.47000000000E+01 0.  1.
         13    1    6    6    0    0 -0.23556349277E+02  0.40888768695E+01  0.53194648899E+01  0.24493207467E+02  0.00000000000E+00 0. -1.
        -14    1    6    6    0    0 -0.17601982964E+02  0.28677176306E+02 -0.11758366256E+03  0.12230342574E+03  0.00000000000E+00 0.  1.
</event>
<event>
12    1  0.8344842E-002  0.2880446E+03  0.7818608E-02  0.1092418E+00
         21   -1    0    0  503  502  0.00000000000E+00  0.00000000000E+00  0.16580708793E+03  0.16580708793E+03  0.00000000000E+00 0. -1.
         21   -1    0    0  501  503 -0.00000000000E+00 -0.00000000000E+00 -0.90573001676E+03  0.90573001676E+03  0.00000000000E+00 0. -1.
          6    2    1    2  501    0  0.17966807310E+03 -0.14549592874E+03 -0.73152983251E+03  0.78337029951E+03  0.15837755060E+03 0.  0.
         24    2    3    3    0    0  0.99823957953E+02 -0.10921159804E+03 -0.61069408492E+03  0.63398822805E+03  0.84272250640E+02 0.  0.
         -6    2    1    2    0  502 -0.17966807310E+03  0.14549592874E+03 -0.83930963212E+01  0.28816680518E+03  0.17181379972E+03 0.  0.
        -24    2    5    5    0    0 -0.14804688797E+03  0.32495293961E+02 -0.96725823786E+01  0.17072418134E+03  0.77970264067E+02 0.  0.
          5    1    3    3  501    0  0.79844115142E+02 -0.36284330697E+02 -0.12083574760E+03  0.14938207146E+03  0.47000000000E+01 0. -1.
        -11    1    4    4    0    0 -0.68337192083E+01 -0.42575040379E+02 -0.12298272290E+03  0.13032299841E+03  0.00000000000E+00 0.  1.
         12    1    4    4    0    0  0.10665767716E+03 -0.66636557662E+02 -0.48771136202E+03  0.50366522965E+03  0.00000000000E+00 0. -1.
         -5    1    5    5    0  502 -0.31621185125E+02  0.11300063478E+03  0.12794860573E+01  0.11744262384E+03  0.47000000000E+01 0.  1.
         11    1    6    6    0    0 -0.10868870085E+03  0.21715182040E+02  0.28930844929E+02  0.11455032349E+03  0.00000000000E+00 0. -1.
        -12    1    6    6    0    0 -0.39358187124E+02  0.10780111922E+02 -0.38603427308E+02  0.56173857857E+02  0.00000000000E+00 0.  1.
</event>
<event>
12    1  0.8344842E-002  0.2000390E+03  0.7818608E-02  0.1150972E+00
         21   -1    0    0  503  502  0.00000000000E+00  0.00000000000E+00  0.24771151048E+03  0.24771151048E+03  0.00000000000E+00 0.  1.
         21   -1    0    0  501  503 -0.00000000000E+00 -0.00000000000E+00 -0.67241719999E+03  0.67241719999E+03  0.00000000000E+00 0.  1.
          6    2    1    2  501    0 -0.90242637771E+02 -0.14283354157E+01 -0.61446618410E+03  0.64440306426E+03  0.17187450076E+03 0.  0.
         24    2    3    3    0    0 -0.72265434733E+02  0.21802644222E+02 -0.60251574760E+03  0.61234434974E+03  0.79010937231E+02 0.  0.
         -6    2    1    2    0  502  0.90242637771E+02  0.14283354157E+01  0.18976049459E+03  0.27572564621E+03  0.17852118322E+03 0.  0.
        -24    2    5    5    0    0  0.67817325416E+02  0.50517652295E+02  0.18830532456E+03  0.22153281287E+03  0.80415602330E+02 0.  0.
          5    1    3    3  501    0 -0.17977203038E+02 -0.23230979637E+02 -0.11950436498E+02  0.32058714517E+02  0.47000000000E+01 0. -1.
        -11    1    4    4    0    0 -0.38435965854E+02  0.11156036237E+02 -0.88759393917E+02  0.97365346116E+02  0.00000000000E+00 0.  1.
         12    1    4    4    0    0 -0.33829468879E+02  0.10646607984E+02 -0.51375635368E+03  0.51497900362E+03  0.00000000000E+00 0. -1.
         -5    1    5    5    0  502  0.22425312355E+02 -0.49089316879E+02  0.14551700266E+01  0.54192833343E+02  0.47000000000E+01 0.  1.
         11    1    6    6    0    0 -0.94748711548E+01  0.35972147782E+02  0.48494788071E+02  0.61118843817E+02  0.00000000000E+00 0. -1.
        -12    1    6    6    0    0  0.77292196570E+02  0.14545504513E+02  0.13981053649E+03  0.16041396905E+03  0.00000000000E+00 0.  1.
</event>
<event>
12    1  0.8344842E-002  0.1724721E+03  0.7818608E-02  0.1175359E+00
         21   -1    0    0  503  502  0.00000000000E+00  0.00000000000E+00  0.11848940950E+03  0.11848940950E+03  0.00000000000E+00 0.  1.
         21   -1    0    0  501  503 -0.00000000000E+00 -0.00000000000E+00 -0.36579723192E+03  0.36579723192E+03  0.00000000000E+00 0.  1.
          6    2    1    2  501    0  0.10882647590E+02  0.11525856188E+01 -0.25942880504E+03  0.31138914514E+03  0.17187243629E+03 0.  0.
         24    2    3    3    0    0  0.51336775363E+01 -0.15306306029E+02 -0.27502358667E+03  0.28753054113E+03  0.82311610424E+02 0.  0.
         -6    2    1    2    0  502 -0.10882647590E+02 -0.11525856188E+01  0.12120982608E+02  0.17289749628E+03  0.17212456399E+03 0.  0.
        -24    2    5    5    0    0 -0.67423752517E+02 -0.18998810888E+02 -0.15398905357E+02  0.10736263123E+03  0.79891746010E+02 0.  0.
          5    1    3    3  501    0  0.57489700535E+01  0.16458891648E+02  0.15594781634E+02  0.23858604007E+02  0.47000000000E+01 0. -1.
        -11    1    4    4    0    0 -0.38644821364E+02 -0.83978283656E+01 -0.13220549515E+03  0.13799361829E+03  0.00000000000E+00 0.  1.
         12    1    4    4    0    0  0.43778498901E+02 -0.69084776636E+01 -0.14281809152E+03  0.14953692285E+03  0.00000000000E+00 0. -1.
         -5    1    5    5    0  502  0.56541104928E+02  0.17846225269E+02  0.27519887964E+02  0.65534865044E+02  0.47000000000E+01 0.  1.
         13    1    6    6    0    0 -0.23286245455E+02 -0.15515164980E+02  0.31995590064E+02  0.42505145045E+02  0.00000000000E+00 0. -1.
        -14    1    6    6    0    0 -0.44137507063E+02 -0.34836459074E+01 -0.47394495421E+02  0.64857486189E+02  0.00000000000E+00 0.  1.
</event>
<event>
12    1  0.8344842E-002  0.1745616E+03  0.7818608E-02  0.1173901E+00
         21   -1    0    0  501  502  0.00000000000E+00  0.00000000000E+00  0.67547841119E+03  0.67547841119E+03  0.00000000000E+00 0.  1.
         21   -1    0    0  502  503 -0.00000000000E+00 -0.00000000000E+00 -0.44653832542E+02  0.44653832542E+02  0.00000000000E+00 0.  1.
         -6    2    1    2    0  503  0.85314065006E+01  0.34781863260E+02  0.28428334111E+03  0.33210828503E+03  0.16791763470E+03 0.  0.
        -24    2    3    3    0    0 -0.22123425160E+02  0.45928892304E+02  0.28338583284E+03  0.29914056625E+03  0.81108809824E+02 0.  0.
          6    2    1    2  501    0 -0.85314065006E+01 -0.34781863260E+02  0.34654123753E+03  0.38802395870E+03  0.17084847176E+03 0.  0.
         24    2    5    5    0    0 -0.68221418961E+02 -0.33488458902E+02  0.26987755371E+03  0.29074096481E+03  0.76946577165E+02 0.  0.
          5    1    5    5  501    0  0.59690012460E+02 -0.12934043578E+01  0.76663683820E+02  0.97282993884E+02  0.47000000000E+01 0. -1.
        -11    1    6    6    0    0 -0.15641712826E+02  0.70047331670E+01  0.52589565673E+01  0.17927244380E+02  0.00000000000E+00 0.  1.
         12    1    6    6    0    0 -0.52579706135E+02 -0.40493192069E+02  0.26461859715E+03  0.27281372043E+03  0.00000000000E+00 0. -1.
         -5    1    3    3    0  503  0.30654831660E+02 -0.11147029044E+02  0.89750826940E+00  0.32967718783E+02  0.47000000000E+01 0.  1.
         13    1    4    4    0    0 -0.38346780216E+02  0.21035029270E+02  0.62607982072E+02  0.76372163964E+02  0.00000000000E+00 0. -1.
        -14    1    4    4    0    0  0.16223355057E+02  0.24893863034E+02  0.22077785077E+03  0.22276840229E+03  0.00000000000E+00 0.  1.
</event>
<event>
12    1  0.8344842E-002  0.1944842E+03  0.7818608E-02  0.1154682E+00
         21   -1    0    0  501  502  0.00000000000E+00  0.00000000000E+00  0.63446024760E+03  0.63446024760E+03  0.00000000000E+00 0.  1.
         21   -1    0    0  502  503 -0.00000000000E+00 -0.00000000000E+00 -0.62994207404E+02  0.62994207404E+02  0.00000000000E+00 0. -1.
         -6    2    1    2    0  503  0.53009883979E+02 -0.71320446792E+02  0.20228489474E+03  0.28061231414E+03  0.17299548629E+03 0.  0.
        -24    2    3    3    0    0  0.54247031285E+02  0.58091284242E+01  0.17389446425E+03  0.19828000912E+03  0.78097317132E+02 0.  0.
          6    2    1    2  501    0 -0.53009883979E+02  0.71320446792E+02  0.36918114546E+03  0.41684214087E+03  0.17194766154E+03 0.  0.
         24    2    5    5    0    0 -0.36476201584E+02  0.57538275161E+02  0.37846616495E+03  0.39293372194E+03  0.80740977459E+02 0.  0.
          5    1    5    5  501    0 -0.16533682395E+02  0.13782171631E+02 -0.92850194879E+01  0.23908418921E+02  0.47000000000E+01 0. -1.
        -13    1    6    6    0    0  0.44653075763E+01 -0.17336335474E+02  0.39114621305E+02  0.43016753705E+02  0.00000000000E+00 0.  1.
         14    1    6    6    0    0 -0.40941509161E+02  0.74874610635E+02  0.33935154364E+03  0.34991696824E+03  0.00000000000E+00 0. -1.
         -5    1    3    3    0  503 -0.12371473062E+01 -0.77129575217E+02  0.28390430487E+02  0.82332305019E+02  0.47000000000E+01 0.  1.
         13    1    4    4    0    0  0.32506129815E+02 -0.77493577754E+01  0.13810313981E+02  0.36158343349E+02  0.00000000000E+00 0. -1.
        -14    1    4    4    0    0  0.21740901470E+02  0.13558486200E+02  0.16008415027E+03  0.16212166577E+03  0.00000000000E+00 0.  1.
</event>
<event>
12    1  0.8344842E-002  0.1937795E+03  0.7818608E-02  0.1155161E+00
         21   -1    0    0  501  502  0.00000000000E+00  0.00000000000E+00  0.19740939929E+03  0.19740939929E+03  0.00000000000E+00 0.  1.
         21   -1    0    0  502  503 -0.00000000000E+00 -0.00000000000E+00 -0.21575436134E+03  0.21575436134E+03  0.00000000000E+00 0.  1.
         -6    2    1    2    0  503 -0.64066163291E+02  0.62892927851E+02 -0.80653270245E+02  0.20989387082E+03  0.17172796323E+03 0.  0.
        -24    2    3    3    0    0 -0.26946192741E+02 -0.30668180547E+02 -0.23782066672E+02  0.94187358415E+02  0.81480287117E+02 0.  0.
          6    2    1    2  501    0  0.64066163291E+02 -0.62892927851E+02  0.62308308192E+02  0.20326988981E+03  0.17139524258E+03 0.  0.
         24    2    5    5    0    0  0.78936050469E+02 -0.93180337133E+01  0.86760113648E+02  0.14234892776E+03  0.80113507590E+02 0.  0.
          5    1    5    5  501    0 -0.14869887178E+02 -0.53574894138E+02 -0.24451805456E+02  0.60920962046E+02  0.47000000000E+01 0. -1.
        -13    1    6    6    0    0  0.33892936738E+02 -0.29938967134E+02  0.80611482075E+02  0.92429886704E+02  0.00000000000E+00 0.  1.
         14    1    6    6    0    0  0.45043113731E+02  0.20620933421E+02  0.61486315722E+01  0.49919041056E+02  0.00000000000E+00 0. -1.
         -5    1    3    3    0  503 -0.37119970550E+02  0.93561108398E+02 -0.56871203572E+02  0.11570651241E+03  0.47000000000E+01 0.  1.
         13    1    4    4    0    0  0.54473963494E+01 -0.22870606660E+02 -0.47695499356E+02  0.53175176866E+02  0.00000000000E+00 0. -1.
        -14    1    4    4    0    0 -0.32393589091E+02 -0.77975738873E+01  0.23913432683E+02  0.41012181549E+02  0.00000000000E+00 0.  1.
</event>
<event>
12    1  0.8344842E-002  0.1827193E+03  0.7818608E-02  0.1165687E+00
         21   -1    0    0  501  502  0.00000000000E+00  0.00000000000E+00  0.22364886779E+03  0.22364886779E+03  0.00000000000E+00 0.  1.
         21   -1    0    0  502  503 -0.00000000000E+00 -0.00000000000E+00 -0.45577851638E+03  0.45577851638E+03  0.00000000000E+00 0.  1.
         -6    2    1    2    0  503  0.56070051529E+02 -0.18229541167E+02 -0.39561433264E+03  0.43577176683E+03  0.17294555713E+03 0.  0.
        -24    2    3    3    0    0  0.87111274767E+02  0.32992257427E+02 -0.28389359198E+03  0.30892207592E+03  0.78488306019E+02 0.  0.
          6    2    1    2  501    0 -0.56070051529E+02  0.18229541167E+02  0.16348468405E+03  0.24365561733E+03  0.17077661166E+03 0.  0.
         24    2    5    5    0    0 -0.18916650450E+02  0.59389816373E+02  0.48925094181E+02  0.11629576064E+03  0.85123728471E+02 0.  0.
          5    1    5    5  501    0 -0.37153401079E+02 -0.41160275206E+02  0.11455958987E+03  0.12735985669E+03  0.47000000000E+01 0. -1.
        -11    1    6    6    0    0 -0.35407991743E+02  0.17581004074E+02  0.58246917070E+02  0.70395461016E+02  0.00000000000E+00 0.  1.
         12    1    6    6    0    0  0.16491341292E+02  0.41808812300E+02 -0.93218228887E+01  0.45900299623E+02  0.00000000000E+00 0. -1.
         -5    1    3    3    0  503 -0.31041223238E+02 -0.51221798594E+02 -0.11172074066E+03  0.12684969091E+03  0.47000000000E+01 0.  1.
         13    1    4    4    0    0  0.10916296338E+02  0.16977441525E+02 -0.71161880985E+01  0.21401849909E+02  0.00000000000E+00 0. -1.
        -14    1    4    4    0    0  0.76194978429E+02  0.16014815902E+02 -0.27677740388E+03  0.28752022601E+03  0.00000000000E+00 0.  1.
</event>
<event>
12    1  0.8344842E-002  0.1774859E+03  0.7818608E-02  0.1170261E+00
         21   -1    0    0  501  502  0.00000000000E+00  0.00000000000E+00  0.56112476709E+03  0.56112476709E+03  0.00000000000E+00 0.  1.
         21   -1    0    0  502  503 -0.00000000000E+00 -0.00000000000E+00 -0.12407138406E+03  0.12407138406E+03  0.00000000000E+00 0.  1.
         -6    2    1    2    0  503 -0.41908860921E+02 -0.63027709474E+01 -0.34985164383E+02  0.18089301793E+03  0.17234339170E+03 0.  0.
        -24    2    3    3    0    0  0.11782853754E+02  0.52764706202E+02  0.34985990020E+01  0.92152626188E+02  0.74544727884E+02 0.  0.
          6    2    1    2  501    0  0.41908860921E+02  0.63027709474E+01  0.47203854741E+03  0.50430313322E+03  0.17235191440E+03 0.  0.
         24    2    5    5    0    0  0.28950339222E+02  0.61271555998E+02  0.39808970098E+03  0.41113654854E+03  0.77236816361E+02 0.  0.
          5    1    5    5  501    0  0.12958521700E+02 -0.54968785051E+02  0.73948846424E+02  0.93166584686E+02  0.47000000000E+01 0. -1.
        -13    1    6    6    0    0  0.29526918441E+01  0.66430338121E+02  0.18864770650E+03  0.20002416199E+03  0.00000000000E+00 0.  1.
         14    1    6    6    0    0  0.25997647378E+02 -0.51587821227E+01  0.20944199448E+03  0.21111238655E+03  0.00000000000E+00 0. -1.
         -5    1    3    3    0  503 -0.53691714676E+02 -0.59067477149E+02 -0.38483763385E+02  0.88740391738E+02  0.47000000000E+01 0.  1.
         13    1    4    4    0    0 -0.14934723738E+02  0.53938655204E+02  0.21455800461E+02  0.59939768700E+02  0.00000000000E+00 0. -1.
        -14    1    4    4    0    0  0.26717577493E+02 -0.11739490023E+01 -0.17957201459E+02  0.32212857488E+02  0.00000000000E+00 0.  1.
</event>
<event>
12    1  0.8344842E-002  0.1754522E+03  0.7818608E-02  0.1172738E+00
         21   -1    0    0  503  502  0.00000000000E+00  0.00000000000E+00  0.11971017304E+03  0.11971017304E+03  0.00000000000E+00 0.  1.
         21   -1    0    0  501  503 -0.00000000000E+00 -0.00000000000E+00 -0.30231101627E+03  0.30231101627E+03  0.00000000000E+00 0.  1.
          6    2    1    2  501    0  0.87377658493E+01  0.92285848065E+01 -0.17563471361E+03  0.24825599152E+03  0.17499134084E+03 0.  0.
         24    2    3    3    0    0 -0.40261817409E+02  0.50810671394E+02 -0.15245371615E+03  0.17977623007E+03  0.69818472203E+02 0.  0.
         -6    2    1    2    0  502 -0.87377658493E+01 -0.92285848065E+01 -0.69661296214E+01  0.17376519780E+03  0.17315975766E+03 0.  0.
        -24    2    5    5    0    0 -0.66927242555E+02 -0.31010547357E+01  0.12354749421E+02  0.11196755876E+03  0.88855062008E+02 0.  0.
          5    1    3    3  501    0  0.48999583259E+02 -0.41582086587E+02 -0.23180997455E+02  0.68479761445E+02  0.47000000000E+01 0. -1.
        -11    1    4    4    0    0  0.73488120270E+01  0.27877503318E+02 -0.10454185183E+03  0.10844426686E+03  0.00000000000E+00 0.  1.
         12    1    4    4    0    0 -0.47610629436E+02  0.22933168076E+02 -0.47911864322E+02  0.71331963215E+02  0.00000000000E+00 0. -1.
         -5    1    5    5    0  502  0.58189476706E+02 -0.61275300708E+01 -0.19320879042E+02  0.61797639041E+02  0.47000000000E+01 0.  1.
         11    1    6    6    0    0 -0.27457525956E+02  0.18249656652E+02 -0.34062883491E+02  0.47405123471E+02  0.00000000000E+00 0. -1.
        -12    1    6    6    0    0 -0.39469716598E+02 -0.21350711387E+02  0.46417632912E+02  0.64562435287E+02  0.00000000000E+00 0.  1.
</event>
<event>
12    1  0.8344842E-002  0.2584929E+03  0.7818608E-02  0.1108091E+00
         21   -1    0    0  501  502  0.00000000000E+00  0.00000000000E+00  0.81124678176E+02  0.81124678176E+02  0.00000000000E+00 0.  1.
         21   -1    0    0  502  503 -0.00000000000E+00 -0.00000000000E+00 -0.88455541019E+03  0.88455541019E+03  0.00000000000E+00 0.  1.
         -6    2    1    2    0  503  0.10812063674E+03  0.16117169344E+03 -0.52907784317E+03  0.58873433790E+03  0.17034779024E+03 0.  0.
        -24    2    3    3    0    0  0.12933043981E+03  0.16108108326E+03 -0.39332891079E+03  0.45125806141E+03  0.79074192244E+02 0.  0.
          6    2    1    2  501    0 -0.10812063674E+03 -0.16117169344E+03 -0.27435288885E+03  0.37694575047E+03  0.17074016610E+03 0.  0.
         24    2    5    5    0    0 -0.48757824679E+02 -0.14953014866E+03 -0.25949703541E+03  0.31447771543E+03  0.82588929553E+02 0.  0.
          5    1    5    5  501    0 -0.59362812059E+02 -0.11641544778E+02 -0.14855853436E+02  0.62468035039E+02  0.47000000000E+01 0. -1.
        -11    1    6    6    0    0 -0.14410175609E+02 -0.48513979298E+02 -0.24152589383E+02  0.56076794864E+02  0.00000000000E+00 0.  1.
         12    1    6    6    0    0 -0.34347649070E+02 -0.10101616937E+03 -0.23534444603E+03  0.25840092056E+03  0.00000000000E+00 0. -1.
         -5    1    3    3    0  503 -0.21209803068E+02  0.90610178448E-01 -0.13574893238E+03  0.13747627649E+03  0.47000000000E+01 0.  1.
         13    1    4    4    0    0  0.96923895790E+02  0.61988345435E+02 -0.17682703601E+03  0.21096112724E+03  0.00000000000E+00 0. -1.
        -14    1    4    4    0    0  0.32406544015E+02  0.99092737829E+02 -0.21650187478E+03  0.24029693417E+03  0.00000000000E+00 0.  1.
</event>
<event>
12    1  0.8344842E-002  0.2999893E+03  0.7818608E-02  0.1085686E+00
         21   -1    0    0  501  502  0.00000000000E+00  0.00000000000E+00  0.89763866389E+03  0.89763866389E+03  0.00000000000E+00 0. -1.
         21   -1    0    0  502  503 -0.00000000000E+00 -0.00000000000E+00 -0.13709470209E+03  0.13709470209E+03  0.00000000000E+00 0.  1.
         -6    2    1    2    0  503 -0.16178008769E+01  0.24192029253E+03  0.10948497701E+03  0.31934389263E+03  0.17738522021E+03 0.  0.
        -24    2    3    3    0    0 -0.35220788146E+02  0.22266971523E+03  0.13302970025E+03  0.27377867045E+03  0.80221900035E+02 0.  0.
          6    2    1    2  501    0  0.16178008769E+01 -0.24192029253E+03  0.65105898478E+03  0.71538947335E+03  0.17139501654E+03 0.  0.
         24    2    5    5    0    0  0.30639244038E+02 -0.21107662727E+03  0.39453115777E+03  0.45534680016E+03  0.78700496232E+02 0.  0.
          5    1    5    5  501    0 -0.29021443161E+02 -0.30843665269E+02  0.25652782701E+03  0.26004267319E+03  0.47000000000E+01 0. -1.
        -13    1    6    6    0    0  0.22431388354E+02 -0.61192687009E+02  0.59602785789E+02  0.88318764714E+02  0.00000000000E+00 0.  1.
         14    1    6    6    0    0  0.82078556845E+01 -0.14988394026E+03  0.33492837198E+03  0.36702803544E+03  0.00000000000E+00 0. -1.
         -5    1    3    3    0  503  0.33602987269E+02  0.19250577301E+02 -0.23544723241E+02  0.45565222180E+02  0.47000000000E+01 0.  1.
         11    1    4    4    0    0 -0.22732082128E+02  0.20725813976E+03  0.14173713287E+03  0.25211524922E+03  0.00000000000E+00 0. -1.
        -12    1    4    4    0    0 -0.12488706017E+02  0.15411575470E+02 -0.87074326203E+01  0.21663421228E+02  0.00000000000E+00 0.  1.
</event>
<event>
12    1  0.8344842E-002  0.1863850E+03  0.7818608E-02  0.1161906E+00
         21   -1    0    0  501  502  0.00000000000E+00  0.00000000000E+00  0.17505875571E+04  0.17505875571E+04  0.00000000000E+00 0.  1.
         21   -1    0    0  502  503 -0.00000000000E+00 -0.00000000000E+00 -0.21059024407E+02  0.21059024407E+02  0.00000000000E+00 0.  1.
         -6    2    1    2    0  503  0.31659466012E+02 -0.61859711779E+02  0.64500989421E+03  0.67122845210E+03  0.17228152993E+03 0.  0.
        -24    2    3    3    0    0  0.75701426245E+02 -0.26969657229E+02  0.56572870223E+03  0.57394223741E+03  0.53876330710E+02 0.  0.
          6    2    1    2  501    0 -0.31659466012E+02  0.61859711779E+02  0.10845186385E+04  0.11004181294E+04  0.17294634015E+03 0.  0.
         24    2    5    5    0    0 -0.78519207684E+02  0.59754985139E+02  0.93855796453E+03  0.94703340525E+03  0.79027170312E+02 0.  0.
          5    1    5    5  501    0  0.46859741672E+02  0.21047266401E+01  0.14596067400E+03  0.15338472420E+03  0.47000000000E+01 0. -1.
        -11    1    6    6    0    0 -0.61581010861E+01  0.18785629595E+02  0.51559774724E+03  0.51597660707E+03  0.00000000000E+00 0.  1.
         12    1    6    6    0    0 -0.72361106598E+02  0.40969355544E+02  0.42296021729E+03  0.43105679817E+03  0.00000000000E+00 0. -1.
         -5    1    3    3    0  503 -0.44041960232E+02 -0.34890054550E+02  0.79281191981E+02  0.97286214694E+02  0.47000000000E+01 0.  1.
         11    1    4    4    0    0  0.21944956724E+02 -0.12877066596E+02  0.35816830381E+03  0.35907093147E+03  0.00000000000E+00 0. -1.
        -12    1    4    4    0    0  0.53756469521E+02 -0.14092590633E+02  0.20756039842E+03  0.21487130594E+03  0.00000000000E+00 0.  1.
</event>
<event>
12    1  0.8344842E-002  0.1987322E+03  0.7818608E-02  0.1152617E+00
         21   -1    0    0  503  502  0.00000000000E+00  0.00000000000E+00  0.37040606347E+03  0.37040606347E+03  0.00000000000E+00 0. -1.
         21   -1    0    0  501  503 -0.00000000000E+00 -0.00000000000E+00 -0.13226364231E+03  0.13226364231E+03  0.00000000000E+00 0.  1.
          6    2    1    2  501    0 -0.81602339338E+01 -0.83133225282E+02  0.12727479408E+01  0.19873624075E+03  0.18032401653E+03 0.  0.
         24    2    3    3    0    0  0.14083097737E+02  0.24978390205E+02 -0.90698387357E+01  0.87777030650E+02  0.82463880069E+02 0.  0.
         -6    2    1    2    0  502  0.81602339338E+01  0.83133225282E+02  0.23686967322E+03  0.30393346502E+03  0.17114492837E+03 0.  0.
        -24    2    5    5    0    0  0.18117526610E+02  0.55358135468E+02  0.25209548675E+03  0.27039962108E+03  0.78556048198E+02 0.  0.
          5    1    3    3  501    0 -0.22243331671E+02 -0.10811161549E+03  0.10342586676E+02  0.11095921010E+03  0.47000000000E+01 0. -1.
        -13    1    4    4    0    0 -0.67835630306E+01 -0.28539527487E+02 -0.76576154871E+01  0.30317658741E+02  0.00000000000E+00 0.  1.
         14    1    4    4    0    0  0.20866660767E+02  0.53517917693E+02 -0.14122232486E+01  0.57459371910E+02  0.00000000000E+00 0. -1.
         -5    1    5    5    0  502 -0.99572926761E+01  0.27775089814E+02 -0.15225813535E+02  0.33533843940E+02  0.47000000000E+01 0.  1.
         13    1    6    6    0    0  0.10385862957E+02  0.49017036201E+02  0.60548059585E+02  0.78591370434E+02  0.00000000000E+00 0. -1.
        -14    1    6    6    0    0  0.77316636531E+01  0.63410992672E+01  0.19154742717E+03  0.19180825065E+03  0.00000000000E+00 0.  1.
</event>
<event>
12    1  0.8344842E-002  0.1962041E+03  0.7818608E-02  0.1153102E+00
         21   -1    0    0  501  502  0.00000000000E+00  0.00000000000E+00  0.65455854891E+03  0.65455854891E+03  0.00000000000E+00 0.  1.
         21   -1    0    0  502  503 -0.00000000000E+00 -0.00000000000E+00 -0.89906331387E+02  0.89906331387E+02  0.00000000000E+00 0. -1.
         -6    2    1    2    0  503  0.64104716512E+02 -0.69446136165E+02  0.62576052217E+02  0.20541335846E+03  0.17130880017E+03 0.  0.
        -24    2    3    3    0    0  0.21083778732E+02  0.27106969571E+02  0.36293562293E+02  0.96389679419E+02  0.82428357436E+02 0.  0.
          6    2    1    2  501    0 -0.64104716512E+02  0.69446136165E+02  0.50207616530E+03  0.53905152183E+03  0.17194152180E+03 0.  0.
         24    2    5    5    0    0  0.43862728241E+01 -0.93240202363E+01  0.13491124747E+03  0.15730825726E+03  0.80241300874E+02 0.  0.
          5    1    5    5  501    0 -0.68490989336E+02  0.78770156401E+02  0.36716491784E+03  0.38174326458E+03  0.47000000000E+01 0. -1.
        -13    1    6    6    0    0 -0.16647808241E+01  0.25850028209E+02  0.11186149054E+03  0.11482155077E+03  0.00000000000E+00 0.  1.
         14    1    6    6    0    0  0.60510536482E+01 -0.35174048445E+02  0.23049756921E+02  0.42486706490E+02  0.00000000000E+00 0. -1.
         -5    1    3    3    0  503  0.43020937781E+02 -0.96553105736E+02  0.26282489924E+02  0.10902367904E+03  0.47000000000E+01 0.  1.
         11    1    4    4    0    0  0.27780110498E+02  0.52385333693E+02  0.11593137765E+02  0.60418197330E+02  0.00000000000E+00 0. -1.
        -12    1    4    4    0    0 -0.66963317658E+01 -0.25278364122E+02  0.24700424529E+02  0.35971482089E+02  0.00000000000E+00 0.  1.
</event>
<event>
12    1  0.8344842E-002  0.4113011E+03  0.7818608E-02  0.1040642E+00
         21   -1    0    0  503  502  0.00000000000E+00  0.00000000000E+00  0.38218443011E+03  0.38218443011E+03  0.00000000000E+00 0.  1.
         21   -1    0    0  501  503 -0.00000000000E+00 -0.00000000000E+00 -0.63552013588E+03  0.63552013588E+03  0.00000000000E+00 0.  1.
          6    2    1    2  501    0 -0.12221139659E+03 -0.35340864009E+03 -0.41253510405E+03  0.57666820132E+03  0.15009233823E+03 0.  0.
         24    2    3    3    0    0 -0.56771219189E+02 -0.20586256052E+03 -0.16582406401E+03  0.28181113477E+03  0.79482893291E+02 0.  0.
         -6    2    1    2    0  502  0.12221139659E+03  0.35340864009E+03  0.15919939827E+03  0.44103636467E+03  0.17127560889E+03 0.  0.
        -24    2    5    5    0    0 -0.39661334095E+01  0.17392052867E+03  0.91271117405E+02  0.21131241607E+03  0.77835980143E+02 0.  0.
          5    1    3    3  501    0 -0.65440177406E+02 -0.14754607957E+03 -0.24671104004E+03  0.29485706655E+03  0.47000000000E+01 0. -1.
        -13    1    4    4    0    0 -0.16167570210E+02 -0.15114979865E+03 -0.14620066228E+03  0.21090823979E+03  0.00000000000E+00 0.  1.
         14    1    4    4    0    0 -0.40603648979E+02 -0.54712761870E+02 -0.19623401722E+02  0.70902894984E+02  0.00000000000E+00 0. -1.
         -5    1    5    5    0  502  0.12617753000E+03  0.17948811142E+03  0.67928280869E+02  0.22972394860E+03  0.47000000000E+01 0.  1.
         13    1    6    6    0    0  0.10798910966E+01 -0.77983554728E+01 -0.54656832246E-01  0.78729600679E+01  0.00000000000E+00 0. -1.
        -14    1    6    6    0    0 -0.50460245060E+01  0.18171888414E+03  0.91325774238E+02  0.20343945600E+03  0.00000000000E+00 0.  1.
</event>
<event>
12    1  0.8344842E-002  0.2518151E+03  0.7818608E-02  0.1112200E+00
         21   -1    0    0  503  502  0.00000000000E+00  0.00000000000E+00  0.17562305340E+04  0.17562305340E+04  0.00000000000E+00 0.  1.
         21   -1    0    0  501  503 -0.00000000000E+00 -0.00000000000E+00 -0.38765801716E+02  0.38765801716E+02  0.00000000000E+00 0.  1.
          6    2    1    2  501    0  0.98290159131E+02  0.15531615793E+03  0.62254402244E+03  0.67154442148E+03  0.17212433251E+03 0.  0.
         24    2    3    3    0    0  0.10602529876E+03  0.17480725315E+03  0.60567665731E+03  0.64422532221E+03  0.79894385536E+02 0.  0.
         -6    2    1    2    0  502 -0.98290159131E+02 -0.15531615793E+03  0.10949207099E+04  0.11234519143E+04  0.17178119360E+03 0.  0.
        -24    2    5    5    0    0 -0.11281322191E+03 -0.14753694994E+03  0.70985533214E+03  0.73800558784E+03  0.79143417179E+02 0.  0.
          5    1    3    3  501    0 -0.77351396314E+01 -0.19491095222E+02  0.16867365133E+02  0.27319099264E+02  0.47000000000E+01 0. -1.
        -11    1    4    4    0    0 -0.50285409062E+01  0.15755781332E+02  0.14361679715E+02  0.21904079831E+02  0.00000000000E+00 0.  1.
         12    1    4    4    0    0  0.11105383967E+03  0.15905147182E+03  0.59131497760E+03  0.62232124238E+03  0.00000000000E+00 0. -1.
         -5    1    5    5    0  502  0.14523062776E+02 -0.77792079827E+01  0.38506537772E+03  0.38544632641E+03  0.47000000000E+01 0.  1.
         13    1    6    6    0    0 -0.29733705111E+01 -0.26711762765E+02  0.37695775405E+02  0.46296119552E+02  0.00000000000E+00 0. -1.
        -14    1    6    6    0    0 -0.10983985140E+03 -0.12082518718E+03  0.67215955674E+03  0.69170946829E+03  0.00000000000E+00 0.  1.
</event>
<event>
12    1  0.8344842E-002  0.2301591E+03  0.7818608E-02  0.1126547E+00
         21   -1    0    0  501  502  0.00000000000E+00  0.00000000000E+00  0.17579095763E+04  0.17579095763E+04  0.00000000000E+00 0.  1.
         21   -1    0    0  502  503 -0.00000000000E+00 -0.00000000000E+00 -0.30157578171E+02  0.30157578171E+02  0.00000000000E+00 0.  1.
         -6    2    1    2    0  503 -0.15089196635E+03 -0.25510292218E+02  0.89539093632E+03  0.92447109316E+03  0.17176353728E+03 0.  0.
        -24    2    3    3    0    0 -0.26831814465E+02 -0.33670454707E+02  0.27648996847E+03  0.29318826627E+03  0.87515775851E+02 0.  0.
          6    2    1    2  501    0  0.15089196635E+03  0.25510292218E+02  0.83236106178E+03  0.86359606128E+03  0.17191294124E+03 0.  0.
         24    2    5    5    0    0  0.15106821243E+03  0.62705882960E+02  0.76421291157E+03  0.78581557908E+03  0.82043388224E+02 0.  0.
          5    1    5    5  501    0 -0.17624607835E+00 -0.37195590743E+02  0.68148150212E+02  0.77780482196E+02  0.47000000000E+01 0. -1.
        -13    1    6    6    0    0  0.11552260488E+03  0.60868894452E+01  0.45717856569E+03  0.47158749282E+03  0.00000000000E+00 0.  1.
         14    1    6    6    0    0  0.35545607548E+02  0.56618993515E+02  0.30703434588E+03  0.31422808626E+03  0.00000000000E+00 0. -1.
         -5    1    3    3    0  503 -0.12406015188E+03  0.81601624888E+01  0.61890096784E+03  0.63128282690E+03  0.47000000000E+01 0.  1.
         13    1    4    4    0    0 -0.46397993509E+02 -0.50458274798E+02  0.23036327010E+03  0.24034568336E+03  0.00000000000E+00 0. -1.
        -14    1    4    4    0    0  0.19566179043E+02  0.16787820091E+02  0.46126698369E+02  0.52842582906E+02  0.00000000000E+00 0.  1.
</event>
<event>
12    1  0.8344842E-002  0.1965078E+03  0.7818608E-02  0.1155961E+00
         21   -1    0    0  501  502  0.00000000000E+00  0.00000000000E+00  0.72359613440E+02  0.72359613440E+02  0.00000000000E+00 0.  1.
         21   -1    0    0  502  503 -0.00000000000E+00 -0.00000000000E+00 -0.55270926512E+03  0.55270926512E+03  0.00000000000E+00 0. -1.
         -6    2    1    2    0  503 -0.71010893109E+02 -0.16333687528E+02 -0.33271262541E+03  0.37928032283E+03  0.16687281353E+03 0.  0.
        -24    2    3    3    0    0 -0.41344559512E+02 -0.40756379943E+01 -0.33502667488E+03  0.34675654764E+03  0.79191205487E+02 0.  0.
          6    2    1    2  501    0  0.71010893109E+02  0.16333687528E+02 -0.14763702628E+03  0.24578855573E+03  0.18249927756E+03 0.  0.
         24    2    5    5    0    0  0.14513698020E+02  0.73322268559E+02 -0.11559486858E+03  0.15925289088E+03  0.80078131317E+02 0.  0.
          5    1    5    5  501    0  0.56497195088E+02 -0.56988581031E+02 -0.32042157695E+02  0.86535664847E+02  0.47000000000E+01 0. -1.
        -13    1    6    6    0    0 -0.32204471805E+02  0.17215946139E+02 -0.39731990211E+02  0.53964320173E+02  0.00000000000E+00 0.  1.
         14    1    6    6    0    0  0.46718169825E+02  0.56106322420E+02 -0.75862878369E+02  0.10528857071E+03  0.00000000000E+00 0. -1.
         -5    1    3    3    0  503 -0.29666333597E+02 -0.12258049534E+02  0.23140494743E+01  0.32523775187E+02  0.47000000000E+01 0.  1.
         11    1    4    4    0    0 -0.54274562134E+02  0.22817763003E+02 -0.24210790950E+03  0.24916383816E+03  0.00000000000E+00 0. -1.
        -12    1    4    4    0    0  0.12930002622E+02 -0.26893400997E+02 -0.92918765380E+02  0.97592709485E+02  0.00000000000E+00 0.  1.
</event>
<event>
12    1  0.8344842E-002  0.2371907E+03  0.7818608E-02  0.1122237E+00
         21   -1    0    0  503  502  0.00000000000E+00  0.00000000000E+00  0.17368030812E+04  0.17368030812E+04  0.00000000000E+00 0. -1.
         21   -1    0    0  501  503 -0.00000000000E+00 -0.00000000000E+00 -0.89850148612E+02  0.89850148612E+02  0.00000000000E+00 0.  1.
          6    2    1    2  501    0 -0.12169701783E+03  0.10290959834E+03  0.92324551016E+02  0.25452552444E+03  0.17566692999E+03 0.  0.
         24    2    3    3    0    0 -0.12987719121E+01  0.63285414461E+02  0.89121616842E+01  0.10271798094E+03  0.80404144740E+02 0.  0.
         -6    2    1    2    0  502  0.12169701783E+03 -0.10290959834E+03  0.15546283815E+04  0.15721277053E+04  0.17121789519E+03 0.  0.
        -24    2    5    5    0    0  0.89531251237E+02 -0.11936351639E+03  0.14723479326E+04  0.14821414273E+04  0.81677915462E+02 0.  0.
          5    1    3    3  501    0 -0.12039824592E+03  0.39624183876E+02  0.83412389331E+02  0.15180754349E+03  0.47000000000E+01 0. -1.
        -11    1    4    4    0    0 -0.96630138419E-02 -0.17256623541E+02 -0.10041856215E+02  0.19965721266E+02  0.00000000000E+00 0.  1.
         12    1    4    4    0    0 -0.12891088983E+01  0.80542038003E+02  0.18954017899E+02  0.82752259678E+02  0.00000000000E+00 0. -1.
         -5    1    5    5    0  502  0.32165766592E+02  0.16453918049E+02  0.82280448976E+02  0.89986278084E+02  0.47000000000E+01 0.  1.
         13    1    6    6    0    0  0.67060156447E+01 -0.49551398599E+02  0.24672863838E+03  0.25174457839E+03  0.00000000000E+00 0. -1.
        -14    1    6    6    0    0  0.82825235593E+02 -0.69812117788E+02  0.12256192942E+04  0.12303968489E+04  0.00000000000E+00 0.  1.
</event>
<event>
12    1  0.8344842E-002  0.1967834E+03  0.7818608E-02  0.1152553E+00
         21   -1    0    0  501  502  0.00000000000E+00  0.00000000000E+00  0.34928212347E+02  0.34928212347E+02  0.00000000000E+00 0.  1.
         21   -1    0    0  502  503 -0.00000000000E+00 -0.00000000000E+00 -0.19556693532E+04  0.19556693532E+04  0.00000000000E+00 0.  1.
         -6    2    1    2    0  503  0.93607619179E+02  0.20660485256E+02 -0.16165528965E+04  0.16284860940E+04  0.17185589620E+03 0.  0.
        -24    2    3    3    0    0 -0.66700044220E+01 -0.26907040568E+02 -0.73140426241E+03  0.73639390942E+03  0.80964911955E+02 0.  0.
          6    2    1    2  501    0 -0.93607619179E+02 -0.20660485256E+02 -0.30418824434E+03  0.36211147156E+03  0.17147882616E+03 0.  0.
         24    2    5    5    0    0 -0.12515819303E+03  0.50878692510E+01 -0.19297806437E+03  0.24358632402E+03  0.80020648752E+02 0.  0.
          5    1    5    5  501    0  0.31550573851E+02 -0.25748354507E+02 -0.11121017997E+03  0.11852514754E+03  0.47000000000E+01 0. -1.
        -13    1    6    6    0    0 -0.45287534303E+02  0.26702230391E+02 -0.29311114918E+02  0.60192286290E+02  0.00000000000E+00 0.  1.
         14    1    6    6    0    0 -0.79870658727E+02 -0.21614361140E+02 -0.16366694945E+03  0.18339403773E+03  0.00000000000E+00 0. -1.
         -5    1    3    3    0  503  0.10027762360E+03  0.47567525824E+02 -0.88514863409E+03  0.89209218455E+03  0.47000000000E+01 0.  1.
         11    1    4    4    0    0 -0.24947420861E+02  0.64971351903E+00 -0.61162894169E+03  0.61213785885E+03  0.00000000000E+00 0. -1.
        -12    1    4    4    0    0  0.18277416439E+02 -0.27556754087E+02 -0.11977532073E+03  0.12425605057E+03  0.00000000000E+00 0.  1.
</event>
<event>
12    1  0.8344842E-002  0.3555584E+03  0.7818608E-02  0.1060467E+00
         21   -1    0    0  501  502  0.00000000000E+00  0.00000000000E+00  0.53167224818E+03  0.53167224818E+03  0.00000000000E+00 0.  1.
         21   -1    0    0  502  503 -0.00000000000E+00 -0.00000000000E+00 -0.27071316530E+03  0.27071316530E+03  0.00000000000E+00 0.  1.
         -6    2    1    2    0  503 -0.27500646562E+03 -0.14193476537E+03 -0.11173167538E+02  0.35463798844E+03  0.17282716632E+03 0.  0.
        -24    2    3    3    0    0 -0.65723599873E+02 -0.33060631406E+02  0.24207844533E+02  0.11604460849E+03  0.86416054603E+02 0.  0.
          6    2    1    2  501    0  0.27500646562E+03  0.14193476537E+03  0.27213225041E+03  0.44774742504E+03  0.17506501982E+03 0.  0.
         24    2    5    5    0    0  0.23344101971E+03  0.13468846032E+03  0.28750537511E+03  0.40259636532E+03  0.82394184425E+02 0.  0.
          5    1    5    5  501    0  0.41565445913E+02  0.72463050504E+01 -0.15373124701E+02  0.45151059721E+02  0.47000000000E+01 0. -1.
        -13    1    6    6    0    0  0.11821752111E+03  0.24830099990E+02  0.10163548560E+03  0.15786604478E+03  0.00000000000E+00 0.  1.
         14    1    6    6    0    0  0.11522349860E+03  0.10985836033E+03  0.18586988951E+03  0.24473032054E+03  0.00000000000E+00 0. -1.
         -5    1    3    3    0  503 -0.20928286575E+03 -0.10887413396E+03 -0.35381012070E+02  0.23859337995E+03  0.47000000000E+01 0.  1.
         13    1    4    4    0    0 -0.69701551015E+02 -0.74194259288E+01  0.44566372605E+02  0.83063323207E+02  0.00000000000E+00 0. -1.
        -14    1    4    4    0    0  0.39779511418E+01 -0.25641205477E+02 -0.20358528072E+02  0.32981285282E+02  0.00000000000E+00 0.  1.
</event>
<event>
12    1  0.8344842E-002  0.2081954E+03  0.7818608E-02  0.1143310E+00
         21   -1    0    0  503  502  0.00000000000E+00  0.00000000000E+00  0.36290061171E+03  0.36290061171E+03  0.00000000000E+00 0. -1.
         21   -1    0    0  501  503 -0.00000000000E+00 -0.00000000000E+00 -0.11887961161E+03  0.11887961161E+03  0.00000000000E+00 0. -1.
          6    2    1    2  501    0 -0.10876040385E+03 -0.37132926130E+02  0.13392408084E+03  0.24626663188E+03  0.17176703671E+03 0.  0.
         24    2    3    3    0    0  0.44002385419E+01 -0.73677453920E+01  0.91221772178E+02  0.12161963378E+03  0.79976733048E+02 0.  0.
         -6    2    1    2    0  502  0.10876040385E+03  0.37132926130E+02  0.11009691926E+03  0.23551359144E+03  0.17360195987E+03 0.  0.
        -24    2    5    5    0    0  0.14526061375E+03  0.18187963732E+02  0.86815643966E+02  0.18802375356E+03  0.79903241074E+02 0.  0.
          5    1    3    3  501    0 -0.11316064240E+03 -0.29765180738E+02  0.42702308667E+02  0.12464699811E+03  0.47000000000E+01 0. -1.
        -13    1    4    4    0    0  0.25741628429E+02 -0.41524991174E+01 -0.17909272192E+01  0.26135839443E+02  0.00000000000E+00 0.  1.
         14    1    4    4    0    0 -0.21341389887E+02 -0.32152462747E+01  0.93012699397E+02  0.95483794332E+02  0.00000000000E+00 0. -1.
         -5    1    5    5    0  502 -0.36500209892E+02  0.18944962398E+02  0.23281275294E+02  0.47489837879E+02  0.47000000000E+01 0.  1.
         13    1    6    6    0    0  0.48191386486E+02  0.22193469675E+02  0.72474195016E+02  0.89819089123E+02  0.00000000000E+00 0. -1.
        -14    1    6    6    0    0  0.97069227260E+02 -0.40055059430E+01  0.14341448950E+02  0.98204664435E+02  0.00000000000E+00 0.  1.
</event>
<event>
12    1  0.8344842E-002  0.2288098E+03  0.7818608E-02  0.1127688E+00
         21   -1    0    0  501  502  0.00000000000E+00  0.00000000000E+00  0.60323036857E+03  0.60323036857E+03  0.00000000000E+00 0. -1.
         21   -1    0    0  502  503 -0.00000000000E+00 -0.00000000000E+00 -0.86466030485E+02  0.86466030485E+02  0.00000000000E+00 0.  1.
         -6    2    1    2    0  503 -0.40433337416E+02 -0.14586698901E+03  0.27191270158E+03  0.35537368056E+03  0.17158642806E+03 0.  0.
        -24    2    3    3    0    0 -0.25206695590E+02 -0.78578900263E+01  0.73143990731E+02  0.11286707769E+03  0.81803483466E+02 0.  0.
          6    2    1    2  501    0  0.40433337416E+02  0.14586698901E+03  0.24485163650E+03  0.33432271849E+03  0.17002153672E+03 0.  0.
         24    2    5    5    0    0 -0.14920999908E+02  0.15280079008E+03  0.16710849451E+03  0.23851944932E+03  0.73454483040E+02 0.  0.
          5    1    5    5  501    0  0.55354337325E+02 -0.69338010742E+01  0.77743141990E+02  0.95803269175E+02  0.47000000000E+01 0. -1.
        -11    1    6    6    0    0  0.77830465341E+01  0.93370447500E+02  0.52404793807E+02  0.10735398779E+03  0.00000000000E+00 0.  1.
         12    1    6    6    0    0 -0.22704046443E+02  0.59430342581E+02  0.11470370070E+03  0.13116546153E+03  0.00000000000E+00 0. -1.
         -5    1    3    3    0  503 -0.15226641826E+02 -0.13800909898E+03  0.19876871085E+03  0.24250660287E+03  0.47000000000E+01 0.  1.
         13    1    4    4    0    0 -0.41445669169E+02 -0.20042209009E+02  0.79263409424E+02  0.91663088036E+02  0.00000000000E+00 0. -1.
        -14    1    4    4    0    0  0.16238973578E+02  0.12184318983E+02 -0.61194186933E+01  0.21203989650E+02  0.00000000000E+00 0.  1.
</event>
<event>
12    1  0.8344842E-002  0.1819481E+03  0.7818608E-02  0.1167508E+00
         21   -1    0    0  503  502  0.00000000000E+00  0.00000000000E+00  0.89849689755E+02  0.89849689755E+02  0.00000000000E+00 0. -1.
         21   -1    0    0  501  503 -0.00000000000E+00 -0.00000000000E+00 -0.35630789071E+03  0.35630789071E+03  0.00000000000E+00 0. -1.
          6    2    1    2  501    0  0.40846976500E+02 -0.41969716940E+02 -0.14184408978E+03  0.22562691222E+03  0.16540201052E+03 0.  0.
         24    2    3    3    0    0  0.84877431763E+02 -0.45266918316E+02 -0.77079055657E+02  0.14710206155E+03  0.80278037937E+02 0.  0.
         -6    2    1    2    0  502 -0.40846976500E+02  0.41969716940E+02 -0.12461411118E+03  0.22053066825E+03  0.17226481447E+03 0.  0.
        -24    2    5    5    0    0  0.36803473102E+02  0.45058500516E+02 -0.95997046515E+02  0.13758394259E+03  0.79555918809E+02 0.  0.
          5    1    3    3  501    0 -0.44030455263E+02  0.32972013760E+01 -0.64765034122E+02  0.78524850668E+02  0.47000000000E+01 0. -1.
        -11    1    4    4    0    0  0.18427462550E+02  0.20825748753E+02 -0.34083453109E+02  0.43988236644E+02  0.00000000000E+00 0.  1.
         12    1    4    4    0    0  0.66449969213E+02 -0.66092667068E+02 -0.42995602548E+02  0.10311382491E+03  0.00000000000E+00 0. -1.
         -5    1    5    5    0  502 -0.77650449602E+02 -0.30887835767E+01 -0.28617064660E+02  0.82946725657E+02  0.47000000000E+01 0.  1.
         13    1    6    6    0    0  0.95349404373E+01  0.45225286448E+02 -0.98948600353E+01  0.47266794672E+02  0.00000000000E+00 0. -1.
        -14    1    6    6    0    0  0.27268532665E+02 -0.16678593179E+00 -0.86102186480E+02  0.90317147917E+02  0.00000000000E+00 0.  1.
</event>
<event>
12    1  0.8344842E-002  0.2155829E+03  0.7818608E-02  0.1137263E+00
         21   -1    0    0  501  502  0.00000000000E+00  0.00000000000E+00  0.43987666362E+02  0.43987666362E+02  0.00000000000E+00 0.  1.
         21   -1    0    0  502  503 -0.00000000000E+00 -0.00000000000E+00 -0.13017806083E+04  0.13017806083E+04  0.00000000000E+00 0.  1.
         -6    2    1    2    0  503 -0.12691689629E+03 -0.27130147928E+02 -0.33592702059E+03  0.39903030433E+03  0.17185539595E+03 0.  0.
        -24    2    3    3    0    0 -0.35757420796E+02 -0.62283929812E+02 -0.21699964579E+03  0.24504443214E+03  0.88317871341E+02 0.  0.
          6    2    1    2  501    0  0.12691689629E+03  0.27130147928E+02 -0.92186592136E+03  0.94673797034E+03  0.17213966435E+03 0.  0.
         24    2    5    5    0    0  0.92621734758E+02  0.58609893141E+02 -0.85154740023E+03  0.86227545276E+03  0.79825285901E+02 0.  0.
          5    1    5    5  501    0  0.34295161535E+02 -0.31479745213E+02 -0.70318521121E+02  0.84462517581E+02  0.47000000000E+01 0. -1.
        -13    1    6    6    0    0  0.49007731476E+02 -0.13665922939E+02 -0.34856147949E+03  0.35225504989E+03  0.00000000000E+00 0.  1.
         14    1    6    6    0    0  0.43614003282E+02  0.72275816080E+02 -0.50298592075E+03  0.51002040287E+03  0.00000000000E+00 0. -1.
         -5    1    3    3    0  503 -0.91159475497E+02  0.35153781885E+02 -0.11892737480E+03  0.15398587218E+03  0.47000000000E+01 0.  1.
         11    1    4    4    0    0  0.96866717212E+01 -0.99783359441E+01 -0.14297859884E+03  0.14365332757E+03  0.00000000000E+00 0. -1.
        -12    1    4    4    0    0 -0.45444092517E+02 -0.52305593868E+02 -0.74021046950E+02  0.10139110457E+03  0.00000000000E+00 0.  1.
</event>
<event>
12    1  0.8344842E-002  0.1851994E+03  0.7818608E-02  0.1163564E+00
         21   -1    0    0  501  502  0.00000000000E+00  0.00000000000E+00  0.51353124066E+03  0.51353124066E+03  0.00000000000E+00 0.  1.
         21   -1    0    0  502  503 -0.00000000000E+00 -0.00000000000E+00 -0.65834393601E+02  0.65834393601E+02  0.00000000000E+00 0.  1.
         -6    2    1    2    0  503  0.63713972495E+02  0.27036594578E+02  0.23766095876E+03  0.30129979196E+03  0.17178005001E+03 0.  0.
        -24    2    3    3    0    0  0.18863934655E+01  0.73337497496E+02  0.13611320077E+03  0.17362653598E+03  0.78977361025E+02 0.  0.
          6    2    1    2  501    0 -0.63713972495E+02 -0.27036594578E+02  0.21003588829E+03  0.27806584229E+03  0.16856776246E+03 0.  0.
         24    2    5    5    0    0 -0.41221693807E+02 -0.17380154899E+02  0.22954262015E+03  0.24641537601E+03  0.77649373759E+02 0.  0.
          5    1    5    5  501    0 -0.22492278688E+02 -0.96564396785E+01 -0.19506731859E+02  0.31650466279E+02  0.47000000000E+01 0. -1.
        -11    1    6    6    0    0 -0.19779079056E+02  0.14735610943E+02  0.15978602332E+02  0.29388193729E+02  0.00000000000E+00 0.  1.
         12    1    6    6    0    0 -0.21442614751E+02 -0.32115765842E+02  0.21356401782E+03  0.21702718229E+03  0.00000000000E+00 0. -1.
         -5    1    3    3    0  503  0.61827579029E+02 -0.46300902918E+02  0.10154775799E+03  0.12767325598E+03  0.47000000000E+01 0.  1.
         13    1    4    4    0    0 -0.63786400660E+01 -0.10386295167E+01 -0.85713701702E+01  0.10734718765E+02  0.00000000000E+00 0. -1.
        -14    1    4    4    0    0  0.82650335314E+01  0.74376127013E+02  0.14468457094E+03  0.16289181722E+03  0.00000000000E+00 0.  1.
</event>
<event>
12    1  0.8344842E-002  0.2384041E+03  0.7818608E-02  0.1120911E+00
         21   -1    0    0  503  502  0.00000000000E+00  0.00000000000E+00  0.41945728712E+03  0.41945728712E+03  0.00000000000E+00 0. -1.
         21   -1    0    0  501  503 -0.00000000000E+00 -0.00000000000E+00 -0.13911766628E+03  0.13911766628E+03  0.00000000000E+00 0.  1.
          6    2    1    2  501    0  0.56965679423E+02 -0.15423229099E+03  0.94162921099E+02  0.25632630730E+03  0.17263786342E+03 0.  0.
         24    2    3    3    0    0 -0.31138330117E+02 -0.90605929617E+02  0.26433652877E+02  0.12818586039E+03  0.80955831883E+02 0.  0.
         -6    2    1    2    0  502 -0.56965679423E+02  0.15423229099E+03  0.18617669974E+03  0.30224864610E+03  0.17222018559E+03 0.  0.
        -24    2    5    5    0    0 -0.66349415944E+02  0.11598346831E+03  0.55043509356E+02  0.16524853454E+03  0.80142874471E+02 0.  0.
          5    1    3    3  501    0  0.88104009540E+02 -0.63626361375E+02  0.67729268222E+02  0.12814044690E+03  0.47000000000E+01 0. -1.
        -13    1    4    4    0    0 -0.14024892198E+02 -0.49745892532E+00 -0.20743520440E+02  0.25044734114E+02  0.00000000000E+00 0.  1.
         14    1    4    4    0    0 -0.17113437919E+02 -0.90108470692E+02  0.47177173317E+02  0.10314112628E+03  0.00000000000E+00 0. -1.
         -5    1    5    5    0  502  0.93837365202E+01  0.38248822687E+02  0.13113319038E+03  0.13700011156E+03  0.47000000000E+01 0.  1.
         11    1    6    6    0    0  0.17268674350E+02  0.21258160110E+02  0.20644926796E+02  0.34297660088E+02  0.00000000000E+00 0. -1.
        -12    1    6    6    0    0 -0.83618090294E+02  0.94725308195E+02  0.34398582560E+02  0.13095087445E+03  0.00000000000E+00 0.  1.
</event>
<event>
12    1  0.8344842E-002  0.1934927E+03  0.7818608E-02  0.1155464E+00
         21   -1    0    0  501  502  0.00000000000E+00  0.00000000000E+00  0.41250768298E+02  0.41250768298E+02  0.00000000000E+00 0.  1.
         21   -1    0    0  502  503 -0.00000000000E+00 -0.00000000000E+00 -0.14250360035E+04  0.14250360035E+04  0.00000000000E+00 0. -1.
         -6    2    1    2    0  503 -0.51760787967E+02  0.71734512155E+02 -0.11341205106E+04  0.11504198600E+04  0.17149781998E+03 0.  0.
        -24    2    3    3    0    0  0.18043388477E+02  0.60170571213E+02 -0.90522173070E+03  0.91078870754E+03  0.78508767275E+02 0.  0.
          6    2    1    2  501    0  0.51760787967E+02 -0.71734512155E+02 -0.24966472456E+03  0.31586691178E+03  0.17208838387E+03 0.  0.
         24    2    5    5    0    0 -0.10476496862E+02 -0.56876939836E+02 -0.22742002830E+03  0.24796151001E+03  0.80126761451E+02 0.  0.
          5    1    5    5  501    0  0.62237284828E+02 -0.14857572319E+02 -0.22244696255E+02  0.67905401770E+02  0.47000000000E+01 0. -1.
        -13    1    6    6    0    0  0.32289193144E+02 -0.17180467001E+02 -0.56031907999E+02  0.66912892287E+02  0.00000000000E+00 0.  1.
         14    1    6    6    0    0 -0.42765690006E+02 -0.39696472835E+02 -0.17138812030E+03  0.18104861772E+03  0.00000000000E+00 0. -1.
         -5    1    3    3    0  503 -0.69804176443E+02  0.11563940942E+02 -0.22889877990E+03  0.23963115243E+03  0.47000000000E+01 0.  1.
         11    1    4    4    0    0  0.32693101665E+01  0.62312795504E+02 -0.36035557791E+03  0.36571808187E+03  0.00000000000E+00 0. -1.
        -12    1    4    4    0    0  0.14774078310E+02 -0.21422242906E+01 -0.54486615279E+03  0.54507062567E+03  0.00000000000E+00 0.  1.
</event>
<event>
12    1  0.8344842E-002  0.1752795E+03  0.7818608E-02  0.1172639E+00
         21   -1    0    0  503  502  0.00000000000E+00  0.00000000000E+00  0.11711907514E+04  0.11711907514E+04  0.00000000000E+00 0. -1.
         21   -1    0    0  501  503 -0.00000000000E+00 -0.00000000000E+00 -0.31704574608E+02  0.31704574608E+02  0.00000000000E+00 0. -1.
          6    2    1    2  501    0 -0.33820286752E+02 -0.10610274680E+02  0.82115457448E+03  0.83949758190E+03  0.17089460233E+03 0.  0.
         24    2    3    3    0    0 -0.46030840919E+02 -0.67254388382E+02  0.52566605094E+03  0.53834444678E+03  0.82752372747E+02 0.  0.
         -6    2    1    2    0  502  0.33820286752E+02  0.10610274680E+02  0.31833160231E+03  0.36339774410E+03  0.17165815351E+03 0.  0.
        -24    2    5    5    0    0 -0.94965446086E+01 -0.45876193623E+02  0.24066929748E+03  0.25794352384E+03  0.80114550731E+02 0.  0.
          5    1    3    3  501    0  0.12210554167E+02  0.56644113702E+02  0.29548852354E+03  0.30115313512E+03  0.47000000000E+01 0. -1.
        -13    1    4    4    0    0  0.68803735091E+01 -0.30627608163E+02  0.55230515880E+02  0.63527945077E+02  0.00000000000E+00 0.  1.
         14    1    4    4    0    0 -0.52911214428E+02 -0.36626780219E+02  0.47043553506E+03  0.47481650170E+03  0.00000000000E+00 0. -1.
         -5    1    5    5    0  502  0.43316831361E+02  0.56486468302E+02  0.77662304823E+02  0.10545422026E+03  0.47000000000E+01 0.  1.
         13    1    6    6    0    0 -0.24552260610E+02 -0.20512557830E+02  0.25912910560E+02  0.41171075569E+02  0.00000000000E+00 0. -1.
        -14    1    6    6    0    0  0.15055716002E+02 -0.25363635793E+02  0.21475638692E+03  0.21677244827E+03  0.00000000000E+00 0.  1.
</event>
<event>
12    1  0.8344842E-002  0.2395915E+03  0.7818608E-02  0.1120546E+00
         21   -1    0    0  501  502  0.00000000000E+00  0.00000000000E+00  0.19740442064E+03  0.19740442064E+03  0.00000000000E+00 0. -1.
         21   -1    0    0  502  503 -0.00000000000E+00 -0.00000000000E+00 -0.29871652312E+03  0.29871652312E+03  0.00000000000E+00 0. -1.
         -6    2    1    2    0  503  0.12145820643E+03  0.11555196930E+03 -0.19390095498E+01  0.23673878158E+03  0.16714406189E+03 0.  0.
        -24    2    3    3    0    0  0.13263618009E+03  0.14014624196E+03  0.22583830813E+01  0.20899831570E+03  0.80261262551E+02 0.  0.
          6    2    1    2  501    0 -0.12145820643E+03 -0.11555196930E+03 -0.99373092930E+02  0.25938216219E+03  0.17117167097E+03 0.  0.
         24    2    5    5    0    0 -0.88709754732E+02 -0.94988976587E+01 -0.12534012569E+02  0.11837566953E+03  0.76785727994E+02 0.  0.
          5    1    5    5  501    0 -0.32748451698E+02 -0.10605307165E+03 -0.86839080361E+02  0.14100649266E+03  0.47000000000E+01 0. -1.
        -11    1    6    6    0    0  0.12357844778E+02 -0.39610184961E+01  0.77906357274E+01  0.15136049687E+02  0.00000000000E+00 0.  1.
         12    1    6    6    0    0 -0.10106759951E+03 -0.55378791626E+01 -0.20324648296E+02  0.10323961984E+03  0.00000000000E+00 0. -1.
         -5    1    3    3    0  503 -0.11177973659E+02 -0.24594272653E+02 -0.41973926311E+01  0.27740465882E+02  0.47000000000E+01 0.  1.
         11    1    4    4    0    0  0.68925238520E+02  0.10262452415E+03  0.34484124441E+02  0.12834187275E+03  0.00000000000E+00 0. -1.
        -12    1    4    4    0    0  0.63710941570E+02  0.37521717807E+02 -0.32225741360E+02  0.80656442948E+02  0.00000000000E+00 0.  1.
</event>
<event>
12    1  0.8344842E-002  0.2236210E+03  0.7818608E-02  0.1131494E+00
         21   -1    0    0  503  502  0.00000000000E+00  0.00000000000E+00  0.10356995564E+03  0.10356995564E+03  0.00000000000E+00 0. -1.
         21   -1    0    0  501  503 -0.00000000000E+00 -0.00000000000E+00 -0.49725724181E+03  0.49725724181E+03  0.00000000000E+00 0. -1.
          6    2    1    2  501    0  0.12864131573E+03 -0.60399460815E+02 -0.25295362631E+03  0.33660702426E+03  0.17065189345E+03 0.  0.
         24    2    3    3    0    0  0.13808335597E+03 -0.25899195718E+02 -0.12374489583E+03  0.20245633865E+03  0.77058343373E+02 0.  0.
         -6    2    1    2    0  502 -0.12864131573E+03  0.60399460815E+02 -0.14073365985E+03  0.26422017318E+03  0.17265472459E+03 0.  0.
        -24    2    5    5    0    0 -0.56876832051E+02  0.80797453353E+02 -0.29340580083E+02  0.13006829121E+03  0.79332769052E+02 0.  0.
          5    1    3    3  501    0 -0.94420402392E+01 -0.34500265097E+02 -0.12920873048E+03  0.13415068561E+03  0.47000000000E+01 0. -1.
        -11    1    4    4    0    0  0.16834671081E+02  0.22784256669E+02 -0.12955892706E+02  0.31150981656E+02  0.00000000000E+00 0.  1.
         12    1    4    4    0    0  0.12124868489E+03 -0.48683452387E+02 -0.11078900312E+03  0.17130535700E+03  0.00000000000E+00 0. -1.
         -5    1    5    5    0  502 -0.71764483678E+02 -0.20397992538E+02 -0.11139307977E+03  0.13415188198E+03  0.47000000000E+01 0.  1.
         11    1    6    6    0    0 -0.65427164506E+02  0.67565179941E+02 -0.48045142214E+02  0.10561298730E+03  0.00000000000E+00 0. -1.
        -12    1    6    6    0    0  0.85503324552E+01  0.13232273412E+02  0.18704562131E+02  0.24455303908E+02  0.00000000000E+00 0.  1.
</event>
<event>
12    1  0.8344842E-002  0.1995373E+03  0.7818608E-02  0.1150405E+00
         21   -1    0    0  503  502  0.00000000000E+00  0.00000000000E+00  0.12139552004E+03  0.12139552004E+03  0.00000000000E+00 0. -1.
         21   -1    0    0  501  503 -0.00000000000E+00 -0.00000000000E+00 -0.13720401705E+04  0.13720401705E+04  0.00000000000E+00 0. -1.
          6    2    1    2  501    0 -0.78441843991E+02  0.58797199483E+02 -0.12768835770E+04  0.12921806235E+04  0.17230455875E+03 0.  0.
         24    2    3    3    0    0 -0.80839769904E+01 -0.18169660842E+02 -0.36802024351E+03  0.37734250885E+03  0.80950491632E+02 0.  0.
         -6    2    1    2    0  502  0.78441843991E+02 -0.58797199483E+02  0.26238926562E+02  0.20125506701E+03  0.17379553267E+03 0.  0.
        -24    2    5    5    0    0 -0.22814690371E+02 -0.50677344202E+02 -0.13927736382E+02  0.91919489032E+02  0.71878420343E+02 0.  0.
          5    1    3    3  501    0 -0.70357867000E+02  0.76966860325E+02 -0.90886333352E+03  0.91483811467E+03  0.47000000000E+01 0. -1.
        -11    1    4    4    0    0  0.29213059403E+02 -0.32226041306E+02 -0.19034293924E+03  0.19524946888E+03  0.00000000000E+00 0.  1.
         12    1    4    4    0    0 -0.37297036394E+02  0.14056380464E+02 -0.17767730427E+03  0.18209303997E+03  0.00000000000E+00 0. -1.
         -5    1    5    5    0  502  0.10125653436E+03 -0.81198552807E+01  0.40166662944E+02  0.10933557798E+03  0.47000000000E+01 0.  1.
         11    1    6    6    0    0 -0.23487157256E+02 -0.62174793488E+02  0.82067853520E+01  0.66967923867E+02  0.00000000000E+00 0. -1.
        -12    1    6    6    0    0  0.67246688523E+00  0.11497449286E+02 -0.22134521734E+02  0.24951565165E+02  0.00000000000E+00 0.  1.
</event>
<event>
12    1  0.8344842E-002  0.1957688E+03  0.7818608E-02  0.1153655E+00
         21   -1    0    0  503  502  0.00000000000E+00  0.00000000000E+00  0.94895115430E+03  0.94895115430E+03  0.00000000000E+00 0.  1.
         21   -1    0    0  501  503 -0.00000000000E+00 -0.00000000000E+00 -0.47113435057E+02  0.47113435057E+02  0.00000000000E+00 0. -1.
          6    2    1    2  501    0  0.86029270713E+02 -0.30889355276E+02  0.26020211656E+03  0.32562332405E+03  0.17311909200E+03 0.  0.
         24    2    3    3    0    0  0.11269124599E+03 -0.23304609303E+02  0.25947935751E+03  0.29749857200E+03  0.89069869373E+02 0.  0.
         -6    2    1    2    0  502 -0.86029270713E+02  0.30889355276E+02  0.64163560268E+03  0.67044126530E+03  0.17158104762E+03 0.  0.
        -24    2    5    5    0    0  0.18587723858E+02  0.30711996715E+02  0.29905758308E+03  0.31221433092E+03  0.82180412560E+02 0.  0.
          5    1    3    3  501    0 -0.26661975277E+02 -0.75847459732E+01  0.72275904482E+00  0.28124752048E+02  0.47000000000E+01 0. -1.
        -13    1    4    4    0    0  0.10584296787E+03 -0.25812198343E+02  0.13809588507E+03  0.17589621060E+03  0.00000000000E+00 0.  1.
         14    1    4    4    0    0  0.68482781229E+01  0.25075890408E+01  0.12138347244E+03  0.12160236140E+03  0.00000000000E+00 0. -1.
         -5    1    5    5    0  502 -0.10461699457E+03  0.17735856130E+00  0.34257801960E+03  0.35822693439E+03  0.47000000000E+01 0.  1.
         11    1    6    6    0    0  0.27844095237E+02 -0.20440802343E+02  0.16172239516E+03  0.16537004909E+03  0.00000000000E+00 0. -1.
        -12    1    6    6    0    0 -0.92563713786E+01  0.51152799057E+02  0.13733518792E+03  0.14684428182E+03  0.00000000000E+00 0.  1.
</event>
<event>
12    1  0.8344842E-002  0.2074880E+03  0.7818608E-02  0.1143615E+00
         21   -1    0    0  503  502  0.00000000000E+00  0.00000000000E+00  0.47329735400E+02  0.47329735400E+02  0.00000000000E+00 0. -1.
         21   -1    0    0  501  503 -0.00000000000E+00 -0.00000000000E+00 -0.93986888241E+03  0.93986888241E+03  0.00000000000E+00 0. -1.
          6    2    1    2  501    0  0.12751973321E+02  0.11507160984E+03 -0.53647869051E+03  0.57520487491E+03  0.17218354896E+03 0.  0.
         24    2    3    3    0    0  0.70224729023E+02  0.82824961484E+02 -0.28238963207E+03  0.31266668035E+03  0.78899061428E+02 0.  0.
         -6    2    1    2    0  502 -0.12751973321E+02 -0.11507160984E+03 -0.35606045649E+03  0.41199374290E+03  0.17191773408E+03 0.  0.
        -24    2    5    5    0    0  0.13535437799E+02 -0.11033231488E+03 -0.15879013692E+03  0.21286775794E+03  0.87988334475E+02 0.  0.
          5    1    3    3  501    0 -0.57472755702E+02  0.32246648358E+02 -0.25408905845E+03  0.26253819456E+03  0.47000000000E+01 0. -1.
        -11    1    4    4    0    0  0.31860115932E+02  0.11053339366E+02 -0.23024394496E+02  0.40833393690E+02  0.00000000000E+00 0.  1.
         12    1    4    4    0    0  0.38364613092E+02  0.71771622117E+02 -0.25936523757E+03  0.27183328666E+03  0.00000000000E+00 0. -1.
         -5    1    5    5    0  502 -0.26287411120E+02 -0.47392949582E+01 -0.19727031957E+03  0.19912598496E+03  0.47000000000E+01 0.  1.
         13    1    6    6    0    0 -0.46199792068E+01 -0.12064689136E+03 -0.13876091153E+03  0.18393370319E+03  0.00000000000E+00 0. -1.
        -14    1    6    6    0    0  0.18155417006E+02  0.10314576472E+02 -0.20029225392E+02  0.28934054749E+02  0.00000000000E+00 0.  1.
</event>
<event>
12    1  0.8344842E-002  0.1888937E+03  0.7818608E-02  0.1159904E+00
         21   -1    0    0  501  502  0.00000000000E+00  0.00000000000E+00  0.61634761299E+03  0.61634761299E+03  0.00000000000E+00 0.  1.
         21   -1    0    0  502  503 -0.00000000000E+00 -0.00000000000E+00 -0.69287155298E+02  0.69287155298E+02  0.00000000000E+00 0.  1.
         -6    2    1    2    0  503 -0.69634536094E+02  0.24699874235E+02  0.13210570483E+03  0.23050539579E+03  0.17384409060E+03 0.  0.
        -24    2    3    3    0    0 -0.87685522193E+02 -0.75853451385E+01  0.32037754595E+02  0.12371654734E+03  0.80827458847E+02 0.  0.
          6    2    1    2  501    0  0.69634536094E+02 -0.24699874235E+02  0.41495475287E+03  0.45512937250E+03  0.17174471282E+03 0.  0.
         24    2    5    5    0    0 -0.16781679646E+02 -0.30563649702E+02  0.29114856001E+03  0.30395989941E+03  0.80052326616E+02 0.  0.
          5    1    5    5  501    0  0.86416215740E+02  0.58637754668E+01  0.12380619285E+03  0.15116947309E+03  0.47000000000E+01 0. -1.
        -13    1    6    6    0    0  0.19499961488E+02 -0.32738342805E+02  0.68690482225E+02  0.78552084224E+02  0.00000000000E+00 0.  1.
         14    1    6    6    0    0 -0.36281641134E+02  0.21746931030E+01  0.22245807779E+03  0.22540781519E+03  0.00000000000E+00 0. -1.
         -5    1    3    3    0  503  0.18050986099E+02  0.32285219374E+02  0.10006795023E+03  0.10678884845E+03  0.47000000000E+01 0.  1.
         11    1    4    4    0    0 -0.96778042505E+02  0.15859334971E+01  0.43807691850E+02  0.10624320478E+03  0.00000000000E+00 0. -1.
        -12    1    4    4    0    0  0.90925203118E+01 -0.91712786356E+01 -0.11769937255E+02  0.17473342565E+02  0.00000000000E+00 0.  1.
</event>
<event>
12    1  0.8344842E-002  0.2723162E+03  0.7818608E-02  0.1099973E+00
         21   -1    0    0  503  502  0.00000000000E+00  0.00000000000E+00  0.31679950751E+03  0.31679950751E+03  0.00000000000E+00 0.  1.
         21   -1    0    0  501  503 -0.00000000000E+00 -0.00000000000E+00 -0.38774535210E+03  0.38774535210E+03  0.00000000000E+00 0.  1.
          6    2    1    2  501    0  0.22111232578E+02  0.20919175492E+03 -0.25729483523E+03  0.37464216371E+03  0.17293357586E+03 0.  0.
         24    2    3    3    0    0 -0.22074010787E+02  0.36737784073E+02 -0.11755685941E+03  0.14827631010E+03  0.79557037484E+02 0.  0.
         -6    2    1    2    0  502 -0.22111232578E+02 -0.20919175492E+03  0.18634899064E+03  0.32990269591E+03  0.17279972663E+03 0.  0.
        -24    2    5    5    0    0 -0.60322040924E+02 -0.68373501631E+02  0.11603914355E+03  0.16786748081E+03  0.80004524450E+02 0.  0.
          5    1    3    3  501    0  0.44185243364E+02  0.17245397084E+03 -0.13973797582E+03  0.22636585360E+03  0.47000000000E+01 0. -1.
        -11    1    4    4    0    0  0.13654880426E+02  0.28918830058E+02 -0.10475212845E+03  0.10952517020E+03  0.00000000000E+00 0.  1.
         12    1    4    4    0    0 -0.35728891213E+02  0.78189540157E+01 -0.12804730956E+02  0.38751139907E+02  0.00000000000E+00 0. -1.
         -5    1    5    5    0  502  0.38210808346E+02 -0.14081825329E+03  0.70309847090E+02  0.16203521510E+03  0.47000000000E+01 0.  1.
         13    1    6    6    0    0 -0.48832475977E+01  0.16526810415E+02  0.31266536003E+02  0.35701230276E+02  0.00000000000E+00 0. -1.
        -14    1    6    6    0    0 -0.55438793326E+02 -0.84900312046E+02  0.84772607544E+02  0.13216625054E+03  0.00000000000E+00 0.  1.
</event>
<event>
12    1  0.8344842E-002  0.2073455E+03  0.7818608E-02  0.1144765E+00
         21   -1    0    0  503  502  0.00000000000E+00  0.00000000000E+00  0.21697205028E+03  0.21697205028E+03  0.00000000000E+00 0.  1.
         21   -1    0    0  501  503 -0.00000000000E+00 -0.00000000000E+00 -0.19770457548E+03  0.19770457548E+03  0.00000000000E+00 0.  1.
          6    2    1    2  501    0  0.10728826192E+03  0.21902239874E+02  0.41077892669E+02  0.20618714833E+03  0.16980950390E+03 0.  0.
         24    2    3    3    0    0  0.95545770424E+01  0.53931665054E+02  0.40607560837E+01  0.96779124687E+02  0.79685599686E+02 0.  0.
         -6    2    1    2    0  502 -0.10728826192E+03 -0.21902239874E+02 -0.21810417874E+02  0.20848947743E+03  0.17607296390E+03 0.  0.
        -24    2    5    5    0    0  0.10592238955E+02 -0.21679984697E+01  0.24791332222E+02  0.80118663452E+02  0.75415478096E+02 0.  0.
          5    1    3    3  501    0  0.97733684876E+02 -0.32029425180E+02  0.37017136585E+02  0.10940802364E+03  0.47000000000E+01 0. -1.
        -13    1    4    4    0    0  0.24918890992E+02  0.29127329871E+02 -0.32323086399E+02  0.50141144662E+02  0.00000000000E+00 0.  1.
         14    1    4    4    0    0 -0.15364313949E+02  0.24804335183E+02  0.36383842483E+02  0.46637980025E+02  0.00000000000E+00 0. -1.
         -5    1    5    5    0  502 -0.11788050087E+03 -0.19734241405E+02 -0.46601750095E+02  0.12837081398E+03  0.47000000000E+01 0.  1.
         11    1    6    6    0    0 -0.15061530322E+02 -0.22988623792E+02 -0.12589403302E+02  0.30229449134E+02  0.00000000000E+00 0. -1.
        -12    1    6    6    0    0  0.25653769277E+02  0.20820625322E+02  0.37380735524E+02  0.49889214317E+02  0.00000000000E+00 0.  1.
</event>
<event>
12    1  0.8344842E-002  0.1855865E+03  0.7818608E-02  0.1163305E+00
         21   -1    0    0  501  502  0.00000000000E+00  0.00000000000E+00  0.58671809226E+03  0.58671809226E+03  0.00000000000E+00 0.  1.
         21   -1    0    0  502  503 -0.00000000000E+00 -0.00000000000E+00 -0.67689233938E+02  0.67689233938E+02  0.00000000000E+00 0.  1.
         -6    2    1    2    0  503  0.66366426242E+02  0.13882780719E+02  0.13131863150E+03  0.22456830133E+03  0.16908313000E+03 0.  0.
        -24    2    3    3    0    0  0.88687869596E+01 -0.35359233801E+02  0.23606285053E+02  0.92830705734E+02  0.82044819678E+02 0.  0.
          6    2    1    2  501    0 -0.66366426242E+02 -0.13882780719E+02  0.38771022682E+03  0.42983902486E+03  0.17275744031E+03 0.  0.
         24    2    5    5    0    0  0.94440052210E+01  0.41261089301E+02  0.21745315664E+03  0.23542290447E+03  0.79664307534E+02 0.  0.
          5    1    5    5  501    0 -0.75810431463E+02 -0.55143870020E+02  0.17025707018E+03  0.19441612039E+03  0.47000000000E+01 0. -1.
        -13    1    6    6    0    0 -0.28898603115E+02  0.24500581604E+02  0.49498783064E+02  0.62334078045E+02  0.00000000000E+00 0.  1.
         14    1    6    6    0    0  0.38342608336E+02  0.16760507697E+02  0.16795437357E+03  0.17308882643E+03  0.00000000000E+00 0. -1.
         -5    1    3    3    0  503  0.57497639282E+02  0.49242014521E+02  0.10771234644E+03  0.13173759560E+03  0.47000000000E+01 0.  1.
         13    1    4    4    0    0  0.26133509279E+02 -0.52536880031E+02 -0.33558910211E+00  0.58678758428E+02  0.00000000000E+00 0. -1.
        -14    1    4    4    0    0 -0.17264722319E+02  0.17177646229E+02  0.23941874155E+02  0.34151947307E+02  0.00000000000E+00 0.  1.
</event>
<event>
12    1  0.8344842E-002  0.3440761E+03  0.7818608E-02  0.1065073E+00
         21   -1    0    0  503  502  0.00000000000E+00  0.00000000000E+00  0.81880876817E+02  0.81880876817E+02  0.00000000000E+00 0. -1.
         21   -1    0    0  501  503 -0.00000000000E+00 -0.00000000000E+00 -0.18610657810E+04  0.18610657810E+04  0.00000000000E+00 0. -1.
          6    2    1    2  501    0  0.13697222967E+03 -0.26522356746E+03 -0.13484569630E+04  0.13916618596E+04  0.17111872507E+03 0.  0.
         24    2    3    3    0    0  0.83068211943E+02 -0.25891681968E+03 -0.10178634206E+04  0.10566102241E+04  0.80255687300E+02 0.  0.
         -6    2    1    2    0  502 -0.13697222967E+03  0.26522356746E+03 -0.43072794126E+03  0.55128479825E+03  0.17112403971E+03 0.  0.
        -24    2    5    5    0    0 -0.57290681428E+02  0.16109791332E+03 -0.14871909336E+03  0.24025042512E+03  0.79800615193E+02 0.  0.
          5    1    3    3  501    0  0.53904017722E+02 -0.63067477792E+01 -0.33059354238E+03  0.33505163551E+03  0.47000000000E+01 0. -1.
        -13    1    4    4    0    0  0.10052511501E+02 -0.62818082760E+01 -0.11726605988E+02  0.16674153372E+02  0.00000000000E+00 0.  1.
         14    1    4    4    0    0  0.73015700443E+02 -0.25263501141E+03 -0.10061368146E+04  0.10399360707E+04  0.00000000000E+00 0. -1.
         -5    1    5    5    0  502 -0.79681548238E+02  0.10412565415E+03 -0.28200884789E+03  0.31103437313E+03  0.47000000000E+01 0.  1.
         13    1    6    6    0    0 -0.99310009140E+01  0.74304427690E+01  0.87570476131E+01  0.15182955634E+02  0.00000000000E+00 0. -1.
        -14    1    6    6    0    0 -0.47359680514E+02  0.15366747055E+03 -0.15747614098E+03  0.22506746948E+03  0.00000000000E+00 0.  1.
</event>
<event>
12    1  0.8344842E-002  0.1732462E+03  0.7818608E-02  0.1174796E+00
         21   -1    0    0  503  502  0.00000000000E+00  0.00000000000E+00  0.38864345555E+03  0.38864345555E+03  0.00000000000E+00 0. -1.
         21   -1    0    0  501  503 -0.00000000000E+00 -0.00000000000E+00 -0.88079723393E+02  0.88079723393E+02  0.00000000000E+00 0. -1.
          6    2    1    2  501    0  0.13240715327E+02 -0.14302339478E+01  0.64241704078E+02  0.18370039493E+03  0.17158518713E+03 0.  0.
         24    2    3    3    0    0  0.70403212040E+02 -0.23100590612E+01  0.66702583090E+02  0.12628549226E+03  0.80850741039E+02 0.  0.
         -6    2    1    2    0  502 -0.13240715327E+02  0.14302339478E+01  0.23632202808E+03  0.29302278401E+03  0.17273357776E+03 0.  0.
        -24    2    5    5    0    0 -0.14785391816E+01  0.16985609895E+02  0.25379960303E+03  0.26641687988E+03  0.79202388606E+02 0.  0.
          5    1    3    3  501    0 -0.57162496713E+02  0.87982511342E+00 -0.24608790124E+01  0.57414902667E+02  0.47000000000E+01 0. -1.
        -11    1    4    4    0    0  0.65721440056E+02  0.13741456357E+02  0.80344446611E+02  0.10470609059E+03  0.00000000000E+00 0.  1.
         12    1    4    4    0    0  0.46817719838E+01 -0.16051515418E+02 -0.13641863520E+02  0.21579401670E+02  0.00000000000E+00 0. -1.
         -5    1    5    5    0  502 -0.11762176145E+02 -0.15555375947E+02 -0.17477574958E+02  0.26605904137E+02  0.47000000000E+01 0.  1.
         11    1    6    6    0    0 -0.64131302425E+01 -0.20981282355E+02  0.19513351076E+03  0.19636300433E+03  0.00000000000E+00 0. -1.
        -12    1    6    6    0    0  0.49345910609E+01  0.37966892250E+02  0.58666092276E+02  0.70053875546E+02  0.00000000000E+00 0.  1.
</event>
<event>
12    1  0.8344842E-002  0.2273877E+03  0.7818608E-02  0.1128633E+00
         21   -1    0    0  503  502  0.00000000000E+00  0.00000000000E+00  0.12969973067E+03  0.12969973067E+03  0.00000000000E+00 0.  1.
         21   -1    0    0  501  503 -0.00000000000E+00 -0.00000000000E+00 -0.45004351198E+03  0.45004351198E+03  0.00000000000E+00 0. -1.
          6    2    1    2  501    0  0.10881676253E+03  0.99078445835E+02 -0.25918785791E+03  0.34427514014E+03  0.17230612350E+03 0.  0.
         24    2    3    3    0    0  0.11916493650E+03  0.92657008036E+02 -0.12450225842E+03  0.20895839957E+03  0.73329374549E+02 0.  0.
         -6    2    1    2    0  502 -0.10881676253E+03 -0.99078445835E+02 -0.61155923405E+02  0.23546810251E+03  0.17334230325E+03 0.  0.
        -24    2    5    5    0    0 -0.62102757052E+02 -0.25390761429E+01 -0.74193767474E+02  0.12732873139E+03  0.82732649933E+02 0.  0.
          5    1    3    3  501    0 -0.10348173969E+02  0.64214377991E+01 -0.13468559949E+03  0.13531674057E+03  0.47000000000E+01 0. -1.
        -11    1    4    4    0    0  0.41530347119E+02  0.18522560825E+02 -0.12185498109E+01  0.45489997307E+02  0.00000000000E+00 0.  1.
         12    1    4    4    0    0  0.77634589381E+02  0.74134447211E+02 -0.12328370860E+03  0.16346840226E+03  0.00000000000E+00 0. -1.
         -5    1    5    5    0  502 -0.46714005479E+02 -0.96539369692E+02  0.13037844069E+02  0.10813937112E+03  0.47000000000E+01 0.  1.
         13    1    6    6    0    0 -0.78052217213E+01 -0.37887535587E+02 -0.27083613076E+02  0.47221911611E+02  0.00000000000E+00 0. -1.
        -14    1    6    6    0    0 -0.54297535331E+02  0.35348459444E+02 -0.47110154398E+02  0.80106819781E+02  0.00000000000E+00 0.  1.
</event>
<event>
12    1  0.8344842E-002  0.2186767E+03  0.7818608E-02  0.1134961E+00
         21   -1    0    0  501  502  0.00000000000E+00  0.00000000000E+00  0.15282316365E+04  0.15282316365E+04  0.00000000000E+00 0.  1.
         21   -1    0    0  502  503 -0.00000000000E+00 -0.00000000000E+00 -0.35021164889E+02  0.35021164889E+02  0.00000000000E+00 0. -1.
         -6    2    1    2    0  503 -0.12327363185E+03  0.54177789301E+02  0.48854653671E+03  0.53506551104E+03  0.17171418523E+03 0.  0.
        -24    2    3    3    0    0 -0.10558652684E+03  0.40935120830E+02  0.19536707266E+03  0.24101706249E+03  0.84242106846E+02 0.  0.
          6    2    1    2  501    0  0.12327363185E+03 -0.54177789301E+02  0.10046639349E+04  0.10281872904E+04  0.17230165635E+03 0.  0.
         24    2    5    5    0    0  0.13939404600E+03  0.90696004424E+00  0.76187708807E+03  0.77866426465E+03  0.80186140141E+02 0.  0.
          5    1    5    5  501    0 -0.16120414149E+02 -0.55084749346E+02  0.24278684683E+03  0.24952302571E+03  0.47000000000E+01 0. -1.
        -13    1    6    6    0    0  0.67857182690E+02  0.39533754322E+02  0.33147512712E+03  0.34065125109E+03  0.00000000000E+00 0.  1.
         14    1    6    6    0    0  0.71536863307E+02 -0.38626794278E+02  0.43040196095E+03  0.43801301355E+03  0.00000000000E+00 0. -1.
         -5    1    3    3    0  503 -0.17687105007E+02  0.13242668472E+02  0.29317946405E+03  0.29404844854E+03  0.47000000000E+01 0.  1.
         11    1    4    4    0    0 -0.35231580739E+02 -0.16968472788E+02  0.10767230556E+03  0.11455356274E+03  0.00000000000E+00 0. -1.
        -12    1    4    4    0    0 -0.70354946102E+02  0.57903593618E+02  0.87694767094E+02  0.12646349976E+03  0.00000000000E+00 0.  1.
</event>
<event>
12    1  0.8344842E-002  0.1945827E+03  0.7818608E-02  0.1154518E+00
         21   -1    0    0  501  502  0.00000000000E+00  0.00000000000E+00  0.11462328066E+04  0.11462328066E+04  0.00000000000E+00 0. -1.
         21   -1    0    0  502  503 -0.00000000000E+00 -0.00000000000E+00 -0.46651057180E+03  0.46651057180E+03  0.00000000000E+00 0. -1.
         -6    2    1    2    0  503  0.86398054900E+02 -0.27792895500E+02 -0.43749016479E+03  0.47881110199E+03  0.17212018525E+03 0.  0.
        -24    2    3    3    0    0  0.11114954032E+03  0.27914621634E+01 -0.40476179007E+03  0.42741776121E+03  0.80571851959E+02 0.  0.
          6    2    1    2  501    0 -0.86398054900E+02  0.27792895500E+02  0.11172123996E+04  0.11339322764E+04  0.17146950965E+03 0.  0.
         24    2    5    5    0    0 -0.45554033457E+02  0.51382780948E+02  0.36005937296E+03  0.37529698028E+03  0.80558743854E+02 0.  0.
          5    1    5    5  501    0 -0.40844021443E+02 -0.23589885448E+02  0.75715302665E+03  0.75863529613E+03  0.47000000000E+01 0. -1.
        -13    1    6    6    0    0  0.15444015964E+02  0.38238956262E+02  0.18222235337E+03  0.18683072947E+03  0.00000000000E+00 0.  1.
         14    1    6    6    0    0 -0.60998049421E+02  0.13143824686E+02  0.17783701959E+03  0.18846625082E+03  0.00000000000E+00 0. -1.
         -5    1    3    3    0  503 -0.24751485422E+02 -0.30584357663E+02 -0.32728374723E+02  0.51393340778E+02  0.47000000000E+01 0.  1.
         11    1    4    4    0    0  0.57126091410E+02  0.20051697915E+02 -0.96043373777E+02  0.11353321345E+03  0.00000000000E+00 0. -1.
        -12    1    4    4    0    0  0.54023448912E+02 -0.17260235752E+02 -0.30871841629E+03  0.31388454777E+03  0.00000000000E+00 0.  1.
</event>
<event>
12    1  0.8344842E-002  0.1783404E+03  0.7818608E-02  0.1169833E+00
         21   -1    0    0  501  502  0.00000000000E+00  0.00000000000E+00  0.37848228648E+03  0.37848228648E+03  0.00000000000E+00 0.  1.
         21   -1    0    0  502  503 -0.00000000000E+00 -0.00000000000E+00 -0.91432141645E+02  0.91432141645E+02  0.00000000000E+00 0.  1.
         -6    2    1    2    0  503 -0.16541240921E+02  0.42118077391E+02  0.73831546505E+02  0.19301915166E+03  0.17250434938E+03 0.  0.
        -24    2    3    3    0    0 -0.71874313430E+02  0.17333962900E+01  0.37575871562E+02  0.11537100071E+03  0.82034139768E+02 0.  0.
          6    2    1    2  501    0  0.16541240921E+02 -0.42118077391E+02  0.21321859833E+03  0.27689527646E+03  0.17076673669E+03 0.  0.
         24    2    5    5    0    0 -0.45162460204E+02  0.55650304925E+01  0.15166795095E+03  0.17743876485E+03  0.80067037840E+02 0.  0.
          5    1    5    5  501    0  0.61703701125E+02 -0.47683107884E+02  0.61550647377E+02  0.99456511614E+02  0.47000000000E+01 0. -1.
        -11    1    6    6    0    0 -0.46339896980E+02 -0.30041261396E+02  0.77561505065E+02  0.95213709655E+02  0.00000000000E+00 0.  1.
         12    1    6    6    0    0  0.11774367753E+01  0.35606291888E+02  0.74106445887E+02  0.82225055192E+02  0.00000000000E+00 0. -1.
         -5    1    3    3    0  503  0.55333072509E+02  0.40384681101E+02  0.36255674943E+02  0.77648150953E+02  0.47000000000E+01 0.  1.
         13    1    4    4    0    0 -0.23659464055E+02 -0.26462714215E+02  0.46822002439E+02  0.58756662561E+02  0.00000000000E+00 0. -1.
        -14    1    4    4    0    0 -0.48214849375E+02  0.28196110505E+02 -0.92461308767E+01  0.56614338149E+02  0.00000000000E+00 0.  1.
</event>
<event>
12    1  0.8344842E-002  0.3121044E+03  0.7818608E-02  0.1079411E+00
         21   -1    0    0  503  502  0.00000000000E+00  0.00000000000E+00  0.17179262958E+03  0.17179262958E+03  0.00000000000E+00 0. -1.
         21   -1    0    0  501  503 -0.00000000000E+00 -0.00000000000E+00 -0.90018842015E+03  0.90018842015E+03  0.00000000000E+00 0.  1.
          6    2    1    2  501    0  0.93120682324E+02  0.24182037265E+03 -0.69058358999E+03  0.75759442458E+03  0.17290188918E+03 0.  0.
         24    2    3    3    0    0 -0.10448027056E+02  0.15581092973E+03 -0.38140198790E+03  0.42034161895E+03  0.82664340270E+02 0.  0.
         -6    2    1    2    0  502 -0.93120682324E+02 -0.24182037265E+03 -0.37812200573E+02  0.31438662516E+03  0.17395583767E+03 0.  0.
        -24    2    5    5    0    0 -0.65018785257E+01 -0.15275024500E+03 -0.71080415797E+02  0.18568087954E+03  0.77782078554E+02 0.  0.
          5    1    3    3  501    0  0.10356870938E+03  0.86009442921E+02 -0.30918160209E+03  0.33725280563E+03  0.47000000000E+01 0. -1.
        -11    1    4    4    0    0  0.72814648270E+01  0.10305510149E+03 -0.32532164285E+03  0.34133201575E+03  0.00000000000E+00 0.  1.
         12    1    4    4    0    0 -0.17729491883E+02  0.52755828237E+02 -0.56080345050E+02  0.79009603191E+02  0.00000000000E+00 0. -1.
         -5    1    5    5    0  502 -0.86618803798E+02 -0.89070127647E+02  0.33268215224E+02  0.12870574562E+03  0.47000000000E+01 0.  1.
         13    1    6    6    0    0 -0.38656770096E+02 -0.50396704195E+02 -0.34819340008E+02  0.72433142322E+02  0.00000000000E+00 0. -1.
        -14    1    6    6    0    0  0.32154891570E+02 -0.10235354081E+03 -0.36261075789E+02  0.11324773722E+03  0.00000000000E+00 0.  1.
</event>
<event>
12    1  0.8344842E-002  0.1908256E+03  0.7818608E-02  0.1159001E+00
         21   -1    0    0  501  502  0.00000000000E+00  0.00000000000E+00  0.20155225808E+03  0.20155225808E+03  0.00000000000E+00 0.  1.
         21   -1    0    0  502  503 -0.00000000000E+00 -0.00000000000E+00 -0.23263839537E+03  0.23263839537E+03  0.00000000000E+00 0.  1.
         -6    2    1    2    0  503  0.78577319158E+02 -0.25803946070E+02 -0.12306203156E+03  0.22235590342E+03  0.16570348655E+03 0.  0.
        -24    2    3    3    0    0  0.27547079406E+02 -0.58280062455E+02 -0.24235551421E+02  0.10639234586E+03  0.81096005088E+02 0.  0.
          6    2    1    2  501    0 -0.78577319158E+02  0.25803946070E+02  0.91975894277E+02  0.21183475003E+03  0.17197138562E+03 0.  0.
         24    2    5    5    0    0 -0.58525300426E+02 -0.26833691586E+02 -0.23680011719E+01  0.10185445651E+03  0.78888941483E+02 0.  0.
          5    1    5    5  501    0 -0.20052018732E+02  0.52637637656E+02  0.94343895449E+02  0.10998029351E+03  0.47000000000E+01 0. -1.
        -11    1    6    6    0    0 -0.63644866876E+02  0.17000397817E+01  0.18307487551E+02  0.66247440067E+02  0.00000000000E+00 0.  1.
         12    1    6    6    0    0  0.51195664503E+01 -0.28533731368E+02 -0.20675488723E+02  0.35607016448E+02  0.00000000000E+00 0. -1.
         -5    1    3    3    0  503  0.51030239752E+02  0.32476116385E+02 -0.98826480143E+02  0.11596355756E+03  0.47000000000E+01 0.  1.
         13    1    4    4    0    0  0.48426554205E+02 -0.50960325920E+02 -0.38417107298E+02  0.80112172003E+02  0.00000000000E+00 0. -1.
        -14    1    4    4    0    0 -0.20879474799E+02 -0.73197365354E+01  0.14181555877E+02  0.26280173856E+02  0.00000000000E+00 0.  1.
</event>
<event>
12    1  0.8344842E-002  0.1876713E+03  0.7818608E-02  0.1160761E+00
         21   -1    0    0  503  502  0.00000000000E+00  0.00000000000E+00  0.23315947785E+03  0.23315947785E+03  0.00000000000E+00 0.  1.
         21   -1    0    0  501  503 -0.00000000000E+00 -0.00000000000E+00 -0.18641481808E+03  0.18641481808E+03  0.00000000000E+00 0.  1.
          6    2    1    2  501    0 -0.58713874668E+02 -0.40881328906E+02 -0.68773140464E+02  0.19987560305E+03  0.17349901935E+03 0.  0.
         24    2    3    3    0    0 -0.27720489344E+01 -0.40914573588E+02 -0.99344366859E+02  0.13595237680E+03  0.83258987160E+02 0.  0.
         -6    2    1    2    0  502  0.58713874668E+02  0.40881328906E+02  0.11551780023E+03  0.21969869288E+03  0.17263994715E+03 0.  0.
        -24    2    5    5    0    0 -0.14711902141E+00 -0.18342488497E+01  0.12099409655E+03  0.14661437868E+03  0.82781752358E+02 0.  0.
          5    1    3    3  501    0 -0.55941825734E+02  0.33244681890E-01  0.30571226394E+02  0.63923226256E+02  0.47000000000E+01 0. -1.
        -11    1    4    4    0    0 -0.25343047953E+02 -0.11089303672E+02  0.21882840042E+01  0.27749438235E+02  0.00000000000E+00 0.  1.
         12    1    4    4    0    0  0.22570999018E+02 -0.29825269917E+02 -0.10153265086E+03  0.10820293856E+03  0.00000000000E+00 0. -1.
         -5    1    5    5    0  502  0.58860993690E+02  0.42715577756E+02 -0.54762963172E+01  0.73084314203E+02  0.47000000000E+01 0.  1.
         11    1    6    6    0    0 -0.23172606648E+02 -0.25357788628E+02  0.18608425384E+02  0.39067385864E+02  0.00000000000E+00 0. -1.
        -12    1    6    6    0    0  0.23025487627E+02  0.23523539778E+02  0.10238567116E+03  0.10754699281E+03  0.00000000000E+00 0.  1.
</event>
<event>
12    1  0.8344842E-002  0.1737427E+03  0.7818608E-02  0.1174276E+00
         21   -1    0    0  501  502  0.00000000000E+00  0.00000000000E+00  0.39627577025E+03  0.39627577025E+03  0.00000000000E+00 0.  1.
         21   -1    0    0  502  503 -0.00000000000E+00 -0.00000000000E+00 -0.12390375886E+03  0.12390375886E+03  0.00000000000E+00 0.  1.
         -6    2    1    2    0  503 -0.74468502880E+01  0.83388722267E+01 -0.25777979032E+02  0.17564460068E+03  0.17338260921E+03 0.  0.
        -24    2    3    3    0    0  0.59747738223E+02  0.27691528201E+02 -0.13127764751E+02  0.10442833892E+03  0.79977039238E+02 0.  0.
          6    2    1    2  501    0  0.74468502880E+01 -0.83388722267E+01  0.29814999042E+03  0.34453492843E+03  0.17229598878E+03 0.  0.
         24    2    5    5    0    0  0.52431335819E+02  0.33762261795E+02  0.12599421948E+03  0.16162563700E+03  0.79745644989E+02 0.  0.
          5    1    5    5  501    0 -0.44984485531E+02 -0.42101134022E+02  0.17215577094E+03  0.18290929143E+03  0.47000000000E+01 0. -1.
        -13    1    6    6    0    0  0.20678357747E+02 -0.14088408276E+01  0.10951295933E+03  0.11145702119E+03  0.00000000000E+00 0.  1.
         14    1    6    6    0    0  0.31752978071E+02  0.35171102623E+02  0.16481260158E+02  0.50168615812E+02  0.00000000000E+00 0. -1.
         -5    1    3    3    0  503 -0.67194588511E+02 -0.19352655974E+02 -0.12650214281E+02  0.71216261765E+02  0.47000000000E+01 0.  1.
         11    1    4    4    0    0  0.51905965123E+02  0.23076545072E+01 -0.40803747900E+02  0.66064365034E+02  0.00000000000E+00 0. -1.
        -12    1    4    4    0    0  0.78417730999E+01  0.25383873693E+02  0.27675983149E+02  0.38363973886E+02  0.00000000000E+00 0.  1.
</event>
<event>
12    1  0.8344842E-002  0.2658604E+03  0.7818608E-02  0.1103791E+00
         21   -1    0    0  503  502  0.00000000000E+00  0.00000000000E+00  0.17659786893E+03  0.17659786893E+03  0.00000000000E+00 0. -1.
         21   -1    0    0  501  503 -0.00000000000E+00 -0.00000000000E+00 -0.52462815297E+03  0.52462815297E+03  0.00000000000E+00 0.  1.
          6    2    1    2  501    0  0.17679428935E+03  0.97874189512E+02 -0.34577462157E+03  0.43616722670E+03  0.17276047870E+03 0.  0.
         24    2    3    3    0    0  0.14001759015E+02  0.16117874313E+02 -0.11339274353E+03  0.14085564506E+03  0.80787148301E+02 0.  0.
         -6    2    1    2    0  502 -0.17679428935E+03 -0.97874189512E+02 -0.22556624600E+01  0.26505879520E+03  0.17150947257E+03 0.  0.
        -24    2    5    5    0    0 -0.67600906683E+02 -0.81773417850E+02 -0.52360624090E+02  0.14375328483E+03  0.81649234491E+02 0.  0.
          5    1    3    3  501    0  0.16279253034E+03  0.81756315200E+02 -0.23238187804E+03  0.29531158164E+03  0.47000000000E+01 0. -1.
        -13    1    4    4    0    0  0.16949780050E+02 -0.31423514322E+02 -0.43516072848E+02  0.56288372620E+02  0.00000000000E+00 0.  1.
         14    1    4    4    0    0 -0.29480210348E+01  0.47541388635E+02 -0.69876670684E+02  0.84567272436E+02  0.00000000000E+00 0. -1.
         -5    1    5    5    0  502 -0.10919338267E+03 -0.16100771662E+02  0.50104961630E+02  0.12130551037E+03  0.47000000000E+01 0.  1.
         11    1    6    6    0    0 -0.74645192909E+01 -0.68684379086E+02 -0.11915574045E+02  0.70108800328E+02  0.00000000000E+00 0. -1.
        -12    1    6    6    0    0 -0.60136387392E+02 -0.13089038765E+02 -0.40445050045E+02  0.73644484502E+02  0.00000000000E+00 0.  1.
</event>
<event>
12    1  0.8344842E-002  0.1782267E+03  0.7818608E-02  0.1169556E+00
         21   -1    0    0  501  502  0.00000000000E+00  0.00000000000E+00  0.25942966539E+03  0.25942966539E+03  0.00000000000E+00 0.  1.
         21   -1    0    0  502  503 -0.00000000000E+00 -0.00000000000E+00 -0.14361134790E+03  0.14361134790E+03  0.00000000000E+00 0.  1.
         -6    2    1    2    0  503 -0.42650752023E+02  0.17508488999E+02 -0.19582602530E+02  0.17929924574E+03  0.17216012130E+03 0.  0.
        -24    2    3    3    0    0 -0.84614483647E+02 -0.11326986871E+02  0.17128982252E+02  0.11635268191E+03  0.77179226996E+02 0.  0.
          6    2    1    2  501    0  0.42650752023E+02 -0.17508488999E+02  0.13540092002E+03  0.22374176755E+03  0.17205038672E+03 0.  0.
         24    2    5    5    0    0  0.62746955744E+02  0.44310040275E+02  0.82508538654E+02  0.13980678097E+03  0.82690488752E+02 0.  0.
          5    1    5    5  501    0 -0.20096203721E+02 -0.61818529275E+02  0.52892381367E+02  0.83934986581E+02  0.47000000000E+01 0. -1.
        -11    1    6    6    0    0 -0.15065464874E+02 -0.52897516512E+00 -0.34799756685E+01  0.15471208009E+02  0.00000000000E+00 0.  1.
         12    1    6    6    0    0  0.77812420618E+02  0.44839015440E+02  0.85988514323E+02  0.12433557296E+03  0.00000000000E+00 0. -1.
         -5    1    3    3    0  503  0.41963731624E+02  0.28835475871E+02 -0.36711584783E+02  0.62946563828E+02  0.47000000000E+01 0.  1.
         11    1    4    4    0    0 -0.91054823324E+02 -0.26422991644E+02  0.32634070786E+01  0.94867302922E+02  0.00000000000E+00 0. -1.
        -12    1    4    4    0    0  0.64403396770E+01  0.15096004773E+02  0.13865575174E+02  0.21485378986E+02  0.00000000000E+00 0.  1.
</event>
<event>
12    1  0.8344842E-002  0.1746263E+03  0.7818608E-02  0.1173717E+00
         21   -1    0    0  501  502  0.00000000000E+00  0.00000000000E+00  0.38055748155E+03  0.38055748155E+03  0.00000000000E+00 0. -1.
         21   -1    0    0  502  503 -0.00000000000E+00 -0.00000000000E+00 -0.17913389861E+03  0.17913389861E+03  0.00000000000E+00 0. -1.
         -6    2    1    2    0  503  0.22799561880E+02  0.58448099379E+01 -0.10878916576E+03  0.20370503247E+03  0.17060678721E+03 0.  0.
        -24    2    3    3    0    0  0.48701290380E+01 -0.58527487617E+02 -0.92496981487E+02  0.13476460513E+03  0.78464146251E+02 0.  0.
          6    2    1    2  501    0 -0.22799561880E+02 -0.58448099379E+01  0.31021274870E+03  0.35598634768E+03  0.17303279589E+03 0.  0.
         24    2    5    5    0    0 -0.81553238616E+02 -0.41551852192E+01  0.19298825329E+03  0.22476698293E+03  0.81286741930E+02 0.  0.
          5    1    5    5  501    0  0.58753676735E+02 -0.16896247187E+01  0.11722449542E+03  0.13121936476E+03  0.47000000000E+01 0. -1.
        -13    1    6    6    0    0 -0.67584880256E+02 -0.36621707556E+02  0.10656818303E+03  0.13139879428E+03  0.00000000000E+00 0.  1.
         14    1    6    6    0    0 -0.13968358359E+02  0.32466522337E+02  0.86420070257E+02  0.93368188647E+02  0.00000000000E+00 0. -1.
         -5    1    3    3    0  503  0.17929432842E+02  0.64372297555E+02 -0.16292184274E+02  0.68940427348E+02  0.47000000000E+01 0.  1.
         13    1    4    4    0    0  0.19521112362E+02 -0.40576639420E+02 -0.62506136666E+01  0.45459956727E+02  0.00000000000E+00 0. -1.
        -14    1    4    4    0    0 -0.14650983324E+02 -0.17950848197E+02 -0.86246367821E+02  0.89304648399E+02  0.00000000000E+00 0.  1.
</event>
<event>
12    1  0.8344842E-002  0.1815230E+03  0.7818608E-02  0.1166609E+00
         21   -1    0    0  503  502  0.00000000000E+00  0.00000000000E+00  0.29396171564E+02  0.29396171564E+02  0.00000000000E+00 0. -1.
         21   -1    0    0  501  503 -0.00000000000E+00 -0.00000000000E+00 -0.11198106840E+04  0.11198106840E+04  0.00000000000E+00 0. -1.
          6    2    1    2  501    0  0.55488717097E+02 -0.14091583184E+02 -0.50189799773E+03  0.53333163120E+03  0.17106565484E+03 0.  0.
         24    2    3    3    0    0  0.72352869733E+02  0.77587325717E+01 -0.49154355207E+03  0.50347965492E+03  0.81126836775E+02 0.  0.
         -6    2    1    2    0  502 -0.55488717097E+02  0.14091583184E+02 -0.58851651469E+03  0.61587522435E+03  0.17225862378E+03 0.  0.
        -24    2    5    5    0    0 -0.10052253863E+03  0.29705943206E+02 -0.47326654053E+03  0.49106937567E+03  0.78617361333E+02 0.  0.
          5    1    3    3  501    0 -0.16864152636E+02 -0.21850315755E+02 -0.10354445659E+02  0.29851976277E+02  0.47000000000E+01 0. -1.
        -13    1    4    4    0    0  0.12365735910E+00 -0.17750545050E+02 -0.23689787149E+03  0.23756198909E+03  0.00000000000E+00 0.  1.
         14    1    4    4    0    0  0.72229212374E+02  0.25509277621E+02 -0.25464568058E+03  0.26591766583E+03  0.00000000000E+00 0. -1.
         -5    1    5    5    0  502  0.45033821533E+02 -0.15614360022E+02 -0.11524997416E+03  0.12480584868E+03  0.47000000000E+01 0.  1.
         13    1    6    6    0    0 -0.45208486237E+02  0.53106281840E+01 -0.35827126492E+03  0.36115136615E+03  0.00000000000E+00 0. -1.
        -14    1    6    6    0    0 -0.55314052393E+02  0.24395315022E+02 -0.11499527560E+03  0.12991800952E+03  0.00000000000E+00 0.  1.
</event>
<event>
12    1  0.8344842E-002  0.1884536E+03  0.7818608E-02  0.1160473E+00
         21   -1    0    0  501  502  0.00000000000E+00  0.00000000000E+00  0.63321601683E+02  0.63321601683E+02  0.00000000000E+00 0. -1.
         21   -1    0    0  502  503 -0.00000000000E+00 -0.00000000000E+00 -0.13620611203E+04  0.13620611203E+04  0.00000000000E+00 0. -1.
         -6    2    1    2    0  503  0.29537113662E+01  0.71334679084E+02 -0.12005142811E+04  0.12152157342E+04  0.17440579317E+03 0.  0.
        -24    2    3    3    0    0 -0.57714556319E+02  0.71900737091E+02 -0.65376223958E+03  0.66508770908E+03  0.80224116472E+02 0.  0.
          6    2    1    2  501    0 -0.29537113662E+01 -0.71334679084E+02 -0.98225237498E+02  0.21016698775E+03  0.17153601549E+03 0.  0.
         24    2    5    5    0    0 -0.26765375278E+02 -0.10195546736E+03 -0.42592875240E+02  0.14218406532E+03  0.85386490561E+02 0.  0.
          5    1    5    5  501    0  0.23811663911E+02  0.30620788276E+02 -0.55632362258E+02  0.67982922438E+02  0.47000000000E+01 0. -1.
        -11    1    6    6    0    0 -0.64353005166E+01 -0.24570377611E+02 -0.55596212699E+02  0.61123280468E+02  0.00000000000E+00 0.  1.
         12    1    6    6    0    0 -0.20330074761E+02 -0.77385089749E+02  0.13003337458E+02  0.81060784849E+02  0.00000000000E+00 0. -1.
         -5    1    3    3    0  503  0.60668267685E+02 -0.56605800690E+00 -0.54675204151E+03  0.55012802512E+03  0.47000000000E+01 0.  1.
         13    1    4    4    0    0 -0.73725503644E+02  0.45622762640E+02 -0.38908216830E+03  0.39862491147E+03  0.00000000000E+00 0. -1.
        -14    1    4    4    0    0  0.16010947325E+02  0.26277974451E+02 -0.26468007128E+03  0.26646279761E+03  0.00000000000E+00 0.  1.
</event>
<event>
12    1  0.8344842E-002  0.1797385E+03  0.7818608E-02  0.1168584E+00
         21   -1    0    0  501  502  0.00000000000E+00  0.00000000000E+00  0.52781815903E+03  0.52781815903E+03  0.00000000000E+00 0. -1.
         21   -1    0    0  502  503 -0.00000000000E+00 -0.00000000000E+00 -0.63707130064E+02  0.63707130064E+02  0.00000000000E+00 0. -1.
         -6    2    1    2    0  503 -0.46954462290E+02  0.10271384665E+02  0.16673889316E+03  0.24516887552E+03  0.17319265620E+03 0.  0.
        -24    2    3    3    0    0  0.59825257511E+01  0.62683883648E+02  0.64140612961E+02  0.11829140765E+03  0.76901098888E+02 0.  0.
          6    2    1    2  501    0  0.46954462290E+02 -0.10271384665E+02  0.29737213580E+03  0.34635641357E+03  0.17094547434E+03 0.  0.
         24    2    5    5    0    0 -0.98934109382E+01 -0.25943536986E+02  0.63894094735E+02  0.10550089109E+03  0.79227747584E+02 0.  0.
          5    1    5    5  501    0  0.56847873228E+02  0.15672152321E+02  0.23347804106E+03  0.24085552248E+03  0.47000000000E+01 0. -1.
        -13    1    6    6    0    0 -0.20977379072E+02  0.20992678318E+02  0.44569482712E+02  0.53546071423E+02  0.00000000000E+00 0.  1.
         14    1    6    6    0    0  0.11083968134E+02 -0.46936215304E+02  0.19324612023E+02  0.51954819665E+02  0.00000000000E+00 0. -1.
         -5    1    3    3    0  503 -0.52936988041E+02 -0.52412498984E+02  0.10259828020E+03  0.12687746787E+03  0.47000000000E+01 0.  1.
         11    1    4    4    0    0 -0.34103261235E+02  0.30897882646E+02  0.42848994437E+02  0.62878835097E+02  0.00000000000E+00 0. -1.
        -12    1    4    4    0    0  0.40085786986E+02  0.31786001002E+02  0.21291618525E+02  0.55412572557E+02  0.00000000000E+00 0.  1.
</event>
<event>
12    1  0.8344842E-002  0.1781665E+03  0.7818608E-02  0.1170233E+00
         21   -1    0    0  501  502  0.00000000000E+00  0.00000000000E+00  0.49102411362E+02  0.49102411362E+02  0.00000000000E+00 0.  1.
         21   -1    0    0  502  503 -0.00000000000E+00 -0.00000000000E+00 -0.63847453116E+03  0.63847453116E+03  0.00000000000E+00 0.  1.
         -6    2    1    2    0  503 -0.19576002308E+02  0.35983057309E+02 -0.28063519906E+03  0.33241454107E+03  0.17339351742E+03 0.  0.
        -24    2    3    3    0    0  0.37057220830E+02 -0.27836597023E+02 -0.14221647217E+03  0.16974277278E+03  0.80243194150E+02 0.  0.
          6    2    1    2  501    0  0.19576002308E+02 -0.35983057309E+02 -0.30873692074E+03  0.35516240146E+03  0.17071568440E+03 0.  0.
         24    2    5    5    0    0  0.41866061044E+02 -0.11588789035E+02 -0.95071966642E+02  0.13890623472E+03  0.91483310519E+02 0.  0.
          5    1    5    5  501    0 -0.22290058736E+02 -0.24394268274E+02 -0.21366495410E+03  0.21625616674E+03  0.47000000000E+01 0. -1.
        -11    1    6    6    0    0 -0.14418080338E+02 -0.13481425488E+01 -0.77816396030E+02  0.79152321634E+02  0.00000000000E+00 0.  1.
         12    1    6    6    0    0  0.56284141382E+02 -0.10240646486E+02 -0.17255570611E+02  0.59753913083E+02  0.00000000000E+00 0. -1.
         -5    1    3    3    0  503 -0.56633223138E+02  0.63819654332E+02 -0.13841872689E+03  0.16267176828E+03  0.47000000000E+01 0.  1.
         11    1    4    4    0    0  0.35318480545E+02 -0.20531256846E+02 -0.15200873221E+03  0.15740261194E+03  0.00000000000E+00 0. -1.
        -12    1    4    4    0    0  0.17387402857E+01 -0.73053401771E+01  0.97922600468E+01  0.12340160846E+02  0.00000000000E+00 0.  1.
</event>
<event>
12    1  0.8344842E-002  0.1752182E+03  0.7818608E-02  0.1172600E+00
         21   -1    0    0  501  502  0.00000000000E+00  0.00000000000E+00  0.14997546077E+03  0.14997546077E+03  0.00000000000E+00 0.  1.
         21   -1    0    0  502  503 -0.00000000000E+00 -0.00000000000E+00 -0.37183462464E+03  0.37183462464E+03  0.00000000000E+00 0.  1.
         -6    2    1    2    0  503  0.11777330767E+01 -0.24183037929E+02 -0.28611929674E+03  0.33550806982E+03  0.17353733480E+03 0.  0.
        -24    2    3    3    0    0 -0.64301834654E+02  0.91695225210E+01 -0.15923452450E+03  0.18880495975E+03  0.77928640113E+02 0.  0.
          6    2    1    2  501    0 -0.11777330767E+01  0.24183037929E+02  0.64260132874E+02  0.18630201558E+03  0.17318449686E+03 0.  0.
         24    2    5    5    0    0 -0.45153824268E+01 -0.41979059363E+02  0.79530614755E+02  0.11815628469E+03  0.76505939807E+02 0.  0.
          5    1    5    5  501    0  0.33376493501E+01  0.66162097292E+02 -0.15270481880E+02  0.68145730887E+02  0.47000000000E+01 0. -1.
        -11    1    6    6    0    0 -0.15432099195E+02  0.74129728475E+01  0.62468729087E+02  0.64772246879E+02  0.00000000000E+00 0.  1.
         12    1    6    6    0    0  0.10916716768E+02 -0.49392032210E+02  0.17061885668E+02  0.53384037814E+02  0.00000000000E+00 0. -1.
         -5    1    3    3    0  503  0.65479567731E+02 -0.33352560450E+02 -0.12688477224E+03  0.14670311007E+03  0.47000000000E+01 0.  1.
         13    1    4    4    0    0  0.17009391067E+02 -0.66556746130E+01 -0.35120264330E+02  0.39585986859E+02  0.00000000000E+00 0. -1.
        -14    1    4    4    0    0 -0.81311225721E+02  0.15825197134E+02 -0.12411426017E+03  0.14921897289E+03  0.00000000000E+00 0.  1.
</event>
<event>
12    1  0.8344842E-002  0.1923112E+03  0.7818608E-02  0.1156738E+00
         21   -1    0    0  503  502  0.00000000000E+00  0.00000000000E+00  0.71135050508E+03  0.71135050508E+03  0.00000000000E+00 0. -1.
         21   -1    0    0  501  503 -0.00000000000E+00 -0.00000000000E+00 -0.22124896054E+03  0.22124896054E+03  0.00000000000E+00 0. -1.
          6    2    1    2  501    0  0.86599585073E+01  0.83477530068E+02 -0.16353153005E+03  0.25126269357E+03  0.17130933119E+03 0.  0.
         24    2    3    3    0    0  0.21895323648E+02  0.48290238729E+02 -0.14220334791E+02  0.97219701546E+02  0.80237772233E+02 0.  0.
         -6    2    1    2    0  502 -0.86599585073E+01 -0.83477530068E+02  0.65363307459E+03  0.68133677205E+03  0.17303210059E+03 0.  0.
        -24    2    5    5    0    0  0.70374632862E+02 -0.17226825352E+02  0.28429634751E+03  0.29784318607E+03  0.51349759714E+02 0.  0.
          5    1    3    3  501    0 -0.13235365141E+02  0.35187291339E+02 -0.14931119526E+03  0.15404299203E+03  0.47000000000E+01 0. -1.
        -11    1    4    4    0    0  0.19044442591E+02 -0.29362034281E+01 -0.36508615129E+02  0.41281849072E+02  0.00000000000E+00 0.  1.
         12    1    4    4    0    0  0.28508810571E+01  0.51226442157E+02  0.22288280339E+02  0.55937852473E+02  0.00000000000E+00 0. -1.
         -5    1    5    5    0  502 -0.79034591369E+02 -0.66250704717E+02  0.36933672709E+03  0.38349358597E+03  0.47000000000E+01 0.  1.
         13    1    6    6    0    0  0.61337851251E+02 -0.33344277081E+02  0.21083707514E+03  0.22209557641E+03  0.00000000000E+00 0. -1.
        -14    1    6    6    0    0  0.90367816108E+01  0.16117451729E+02  0.73459272370E+02  0.75747609660E+02  0.00000000000E+00 0.  1.
</event>
<event>
12    1  0.8344842E-002  0.2004499E+03  0.7818608E-02  0.1149415E+00
         21   -1    0    0  501  502  0.00000000000E+00  0.00000000000E+00  0.86902856963E+03  0.86902856963E+03  0.00000000000E+00 0.  1.
         21   -1    0    0  502  503 -0.00000000000E+00 -0.00000000000E+00 -0.84138311624E+02  0.84138311624E+02  0.00000000000E+00 0. -1.
         -6    2    1    2    0  503 -0.98469543979E+02  0.29273572745E+02  0.72459685836E+02  0.21314446584E+03  0.17212485031E+03 0.  0.
        -24    2    3    3    0    0 -0.13314162087E+03  0.40821510615E+02  0.37063073982E+02  0.16205123815E+03  0.74120478913E+02 0.  0.
          6    2    1    2  501    0  0.98469543979E+02 -0.29273572745E+02  0.71243057217E+03  0.74002241541E+03  0.17182159934E+03 0.  0.
         24    2    5    5    0    0  0.11213655303E+02 -0.56975191853E+02  0.48054190416E+03  0.49067243213E+03  0.80417631475E+02 0.  0.
          5    1    5    5  501    0  0.87255888675E+02  0.27701619109E+02  0.23188866801E+03  0.24934998328E+03  0.47000000000E+01 0. -1.
        -13    1    6    6    0    0 -0.10508974474E+02  0.12105044062E+02  0.20986000765E+03  0.21047136016E+03  0.00000000000E+00 0.  1.
         14    1    6    6    0    0  0.21722629777E+02 -0.69080235916E+02  0.27068189650E+03  0.28020107197E+03  0.00000000000E+00 0. -1.
         -5    1    3    3    0  503  0.34672076896E+02 -0.11547937870E+02  0.35396611854E+02  0.51093227693E+02  0.47000000000E+01 0.  1.
         11    1    4    4    0    0 -0.90460826921E+02 -0.10405728362E+02  0.22705724900E+02  0.93845566402E+02  0.00000000000E+00 0. -1.
        -12    1    4    4    0    0 -0.42680793953E+02  0.51227238977E+02  0.14357349082E+02  0.68205671746E+02  0.00000000000E+00 0.  1.
</event>
<event>
12    1  0.8344842E-002  0.1741959E+03  0.7818608E-02  0.1174451E+00
         21   -1    0    0  501  502  0.00000000000E+00  0.00000000000E+00  0.11094769806E+03  0.11094769806E+03  0.00000000000E+00 0.  1.
         21   -1    0    0  502  503 -0.00000000000E+00 -0.00000000000E+00 -0.46574453887E+03  0.46574453887E+03  0.00000000000E+00 0.  1.
         -6    2    1    2    0  503  0.15723486579E+02  0.20704105245E+02 -0.36636355230E+03  0.40566793036E+03  0.17224496876E+03 0.  0.
        -24    2    3    3    0    0  0.55441979697E+02 -0.19803872148E+02 -0.13965242420E+03  0.17191917522E+03  0.81162779380E+02 0.  0.
          6    2    1    2  501    0 -0.15723486579E+02 -0.20704105245E+02  0.11566711493E+02  0.17102430657E+03  0.16864055449E+03 0.  0.
         24    2    5    5    0    0  0.44187270672E+02 -0.12816686658E+01  0.45023347675E+02  0.99554268216E+02  0.77005148660E+02 0.  0.
          5    1    5    5  501    0 -0.59910757250E+02 -0.19422436580E+02 -0.33456636182E+02  0.71470038349E+02  0.47000000000E+01 0. -1.
        -13    1    6    6    0    0  0.24144153899E+02 -0.27319403399E+01  0.66105027792E+02  0.70429243677E+02  0.00000000000E+00 0.  1.
         14    1    6    6    0    0  0.20043116773E+02  0.14502716741E+01 -0.21081680117E+02  0.29125024540E+02  0.00000000000E+00 0. -1.
         -5    1    3    3    0  503 -0.39718493118E+02  0.40507977393E+02 -0.22671112810E+03  0.23374875515E+03  0.47000000000E+01 0.  1.
         11    1    4    4    0    0  0.35800330999E+02  0.26325940018E+02 -0.94585257175E+02  0.10450401759E+03  0.00000000000E+00 0. -1.
        -12    1    4    4    0    0  0.19641648698E+02 -0.46129812165E+02 -0.45067167028E+02  0.67415157627E+02  0.00000000000E+00 0.  1.
</event>
<event>
12    1  0.8344842E-002  0.2440160E+03  0.7818608E-02  0.1117230E+00
         21   -1    0    0  501  502  0.00000000000E+00  0.00000000000E+00  0.31828836082E+03  0.31828836082E+03  0.00000000000E+00 0.  1.
         21   -1    0    0  502  503 -0.00000000000E+00 -0.00000000000E+00 -0.19423642511E+03  0.19423642511E+03  0.00000000000E+00 0.  1.
         -6    2    1    2    0  503 -0.74033496662E+00 -0.17264171893E+03  0.11250864465E+03  0.26823595146E+03  0.17171668329E+03 0.  0.
        -24    2    3    3    0    0 -0.37209892166E+02 -0.13720079156E+03  0.13638209147E+03  0.21186113972E+03  0.77951487297E+02 0.  0.
          6    2    1    2  501    0  0.74033496662E+00  0.17264171893E+03  0.11543291060E+02  0.24428883448E+03  0.17244731332E+03 0.  0.
         24    2    5    5    0    0  0.49790499642E+01  0.19998176064E+03  0.61331460654E+01  0.21570904697E+03  0.80469136558E+02 0.  0.
          5    1    5    5  501    0 -0.42387149976E+01 -0.27340041706E+02  0.54101449945E+01  0.28579787511E+02  0.47000000000E+01 0. -1.
        -11    1    6    6    0    0 -0.38998748325E+01  0.66375915565E+02  0.39996154006E+02  0.77592934769E+02  0.00000000000E+00 0.  1.
         12    1    6    6    0    0  0.88789247967E+01  0.13360584507E+03 -0.33863007941E+02  0.13811611220E+03  0.00000000000E+00 0. -1.
         -5    1    3    3    0  503  0.36469557199E+02 -0.35440927376E+02 -0.23873446814E+02  0.56374811737E+02  0.47000000000E+01 0.  1.
         13    1    4    4    0    0 -0.16967578748E+02 -0.63941132298E+02  0.11539386749E+03  0.13301169792E+03  0.00000000000E+00 0. -1.
        -14    1    4    4    0    0 -0.20242313418E+02 -0.73259659257E+02  0.20988223976E+02  0.78849441803E+02  0.00000000000E+00 0.  1.
</event>
<event>
12    1  0.8344842E-002  0.1817245E+03  0.7818608E-02  0.1166431E+00
         21   -1    0    0  501  502  0.00000000000E+00  0.00000000000E+00  0.74846923342E+02  0.74846923342E+02  0.00000000000E+00 0. -1.
         21   -1    0    0  502  503 -0.00000000000E+00 -0.00000000000E+00 -0.59147612609E+03  0.59147612609E+03  0.00000000000E+00 0. -1.
         -6    2    1    2    0  503  0.50994070686E+02  0.27981024658E+02 -0.42847727815E+03  0.46542087199E+03  0.17216409965E+03 0.  0.
        -24    2    3    3    0    0  0.37179017747E+02 -0.13304049050E+02 -0.40639679405E+03  0.41638057451E+03  0.81579112133E+02 0.  0.
          6    2    1    2  501    0 -0.50994070686E+02 -0.27981024658E+02 -0.88151924597E+02  0.20090217744E+03  0.17090228232E+03 0.  0.
         24    2    5    5    0    0  0.36476702705E+02 -0.16944118412E+02 -0.62893662454E+02  0.10907070515E+03  0.79518255483E+02 0.  0.
          5    1    5    5  501    0 -0.87470773391E+02 -0.11036906247E+02 -0.25258262143E+02  0.91831472294E+02  0.47000000000E+01 0. -1.
        -13    1    6    6    0    0  0.57116199173E+02  0.69195749962E+01 -0.41882824801E+02  0.71163977822E+02  0.00000000000E+00 0.  1.
         14    1    6    6    0    0 -0.20639496468E+02 -0.23863693408E+02 -0.21010837653E+02  0.37906727324E+02  0.00000000000E+00 0. -1.
         -5    1    3    3    0  503  0.13815052940E+02  0.41285073708E+02 -0.22080484105E+02  0.49040297482E+02  0.47000000000E+01 0.  1.
         11    1    4    4    0    0  0.29398462911E+02 -0.38904297482E+02 -0.35597503606E+03  0.35929937417E+03  0.00000000000E+00 0. -1.
        -12    1    4    4    0    0  0.77805548358E+01  0.25600248432E+02 -0.50421757988E+02  0.57081200337E+02  0.00000000000E+00 0.  1.
</event>
<event>
12    1  0.8344842E-002  0.1802393E+03  0.7818608E-02  0.1167872E+00
         21   -1    0    0  501  502  0.00000000000E+00  0.00000000000E+00  0.28772074551E+03  0.28772074551E+03  0.00000000000E+00 0.  1.
         21   -1    0    0  502  503 -0.00000000000E+00 -0.00000000000E+00 -0.14274240326E+03  0.14274240326E+03  0.00000000000E+00 0.  1.
         -6    2    1    2    0  503 -0.37180719056E+02  0.41522506443E+02 -0.26979677957E+02  0.18224739905E+03  0.17140503792E+03 0.  0.
        -24    2    3    3    0    0  0.65042020521E+01 -0.35815411615E+02  0.10710399281E+02  0.85644304768E+02  0.76780114176E+02 0.  0.
          6    2    1    2  501    0  0.37180719056E+02 -0.41522506443E+02  0.17195802020E+03  0.24821574973E+03  0.17010283152E+03 0.  0.
         24    2    5    5    0    0 -0.15337688785E+02  0.45418833422E+01  0.15602665133E+03  0.17641039002E+03  0.80749219069E+02 0.  0.
          5    1    5    5  501    0  0.52518407841E+02 -0.46064389785E+02  0.15931368873E+02  0.71805359707E+02  0.47000000000E+01 0. -1.
        -13    1    6    6    0    0 -0.40312480106E+02 -0.19329413042E+02  0.11093793557E+03  0.11960747388E+03  0.00000000000E+00 0.  1.
         14    1    6    6    0    0  0.24974791321E+02  0.23871296384E+02  0.45088715764E+02  0.56802916138E+02  0.00000000000E+00 0. -1.
         -5    1    3    3    0  503 -0.43684921108E+02  0.77337918058E+02 -0.37690077239E+02  0.96603094277E+02  0.47000000000E+01 0.  1.
         13    1    4    4    0    0  0.40397574878E+01 -0.37657960540E+01  0.41063889403E+02  0.41433608018E+02  0.00000000000E+00 0. -1.
        -14    1    4    4    0    0  0.24644445643E+01 -0.32049615561E+02 -0.30353490121E+02  0.44210696750E+02  0.00000000000E+00 0.  1.
</event>
<event>
12    1  0.8344842E-002  0.2299743E+03  0.7818608E-02  0.1126760E+00
         21   -1    0    0  503  502  0.00000000000E+00  0.00000000000E+00  0.24931996348E+03  0.24931996348E+03  0.00000000000E+00 0.  1.
         21   -1    0    0  501  503 -0.00000000000E+00 -0.00000000000E+00 -0.22998249772E+03  0.22998249772E+03  0.00000000000E+00 0.  1.
          6    2    1    2  501    0  0.30260972545E+02  0.14834150187E+03 -0.58077810516E+02  0.23719446999E+03  0.17311053372E+03 0.  0.
         24    2    3    3    0    0 -0.76783003426E+01  0.13591324333E+03 -0.93917603542E+02  0.18333882218E+03  0.79128006762E+02 0.  0.
         -6    2    1    2    0  502 -0.30260972545E+02 -0.14834150187E+03  0.77415276275E+02  0.24210799120E+03  0.17234333977E+03 0.  0.
        -24    2    5    5    0    0 -0.53903512297E+02 -0.54313197957E+02  0.88267117802E+02  0.14443433002E+03  0.84939269440E+02 0.  0.
          5    1    3    3  501    0  0.37939272887E+02  0.12428258542E+02  0.35839793025E+02  0.53855647816E+02  0.47000000000E+01 0. -1.
        -11    1    4    4    0    0 -0.35555058553E+02  0.31046971920E+02 -0.41417089331E+02  0.62796910296E+02  0.00000000000E+00 0.  1.
         12    1    4    4    0    0  0.27876758210E+02  0.10486627141E+03 -0.52500514210E+02  0.12054191188E+03  0.00000000000E+00 0. -1.
         -5    1    5    5    0  502  0.23642539752E+02 -0.94028303916E+02 -0.10851841526E+02  0.97673661177E+02  0.47000000000E+01 0.  1.
         13    1    6    6    0    0 -0.41376366612E+02  0.45970962648E+01  0.53810995963E+01  0.41977294350E+02  0.00000000000E+00 0. -1.
        -14    1    6    6    0    0 -0.12527145685E+02 -0.58910294222E+02  0.82886018205E+02  0.10245703567E+03  0.00000000000E+00 0.  1.
</event>
<event>
12    1  0.8344842E-002  0.2059053E+03  0.7818608E-02  0.1145145E+00
         21   -1    0    0  501  502  0.00000000000E+00  0.00000000000E+00  0.37434930492E+03  0.37434930492E+03  0.00000000000E+00 0.  1.
         21   -1    0    0  502  503 -0.00000000000E+00 -0.00000000000E+00 -0.25922300233E+03  0.25922300233E+03  0.00000000000E+00 0.  1.
         -6    2    1    2    0  503 -0.28746093096E+02 -0.10862757167E+03 -0.18088660213E+03  0.27298857751E+03  0.17081133869E+03 0.  0.
        -24    2    3    3    0    0  0.37884325581E+02 -0.70512878338E+02 -0.55779931512E+02  0.12613452897E+03  0.79945171849E+02 0.  0.
          6    2    1    2  501    0  0.28746093096E+02  0.10862757167E+03  0.29601290472E+03  0.36058372973E+03  0.17254187663E+03 0.  0.
         24    2    5    5    0    0 -0.49041630032E+02  0.73044844371E+02  0.17122720034E+03  0.20922117700E+03  0.81939709567E+02 0.  0.
          5    1    5    5  501    0  0.77787723128E+02  0.35582727297E+02  0.12478570438E+03  0.15136255273E+03  0.47000000000E+01 0. -1.
        -11    1    6    6    0    0  0.32644670821E+01  0.39147132789E+02  0.12662095605E+03  0.13257458755E+03  0.00000000000E+00 0.  1.
         12    1    6    6    0    0 -0.52306097114E+02  0.33897711582E+02  0.44606244287E+02  0.76646589456E+02  0.00000000000E+00 0. -1.
         -5    1    3    3    0  503 -0.66630418677E+02 -0.38114693330E+02 -0.12510667062E+03  0.14685404854E+03  0.47000000000E+01 0.  1.
         13    1    4    4    0    0  0.12433154292E+02  0.17524794708E+02 -0.10441850890E+02  0.23890039875E+02  0.00000000000E+00 0. -1.
        -14    1    4    4    0    0  0.25451171289E+02 -0.88037673046E+02 -0.45338080622E+02  0.10224448909E+03  0.00000000000E+00 0.  1.
</event>
<event>
12    1  0.8344842E-002  0.2786394E+03  0.7818608E-02  0.1096678E+00
         21   -1    0    0  501  502  0.00000000000E+00  0.00000000000E+00  0.98116523665E+02  0.98116523665E+02  0.00000000000E+00 0.  1.
         21   -1    0    0  502  503 -0.00000000000E+00 -0.00000000000E+00 -0.82618164469E+03  0.82618164469E+03  0.00000000000E+00 0. -1.
         -6    2    1    2    0  503  0.21586253415E+03  0.15787196751E+01 -0.26358012497E+03  0.38355494378E+03  0.17618395674E+03 0.  0.
        -24    2    3    3    0    0  0.22422144092E+03  0.16201133439E+02 -0.27392321041E+03  0.36323855328E+03  0.79815976422E+02 0.  0.
          6    2    1    2  501    0 -0.21586253415E+03 -0.15787196751E+01 -0.46448499606E+03  0.54074322458E+03  0.17337184707E+03 0.  0.
         24    2    5    5    0    0 -0.11471215786E+03 -0.15295379155E+02 -0.13302698255E+03  0.19389159911E+03  0.80653247516E+02 0.  0.
          5    1    5    5  501    0 -0.10115037629E+03  0.13716659480E+02 -0.33145801351E+03  0.34685162547E+03  0.47000000000E+01 0. -1.
        -11    1    6    6    0    0 -0.12429011010E+02 -0.34625412323E+02 -0.39086534278E+02  0.53676406876E+02  0.00000000000E+00 0.  1.
         12    1    6    6    0    0 -0.10228314685E+03  0.19330033168E+02 -0.93940448272E+02  0.14021519223E+03  0.00000000000E+00 0. -1.
         -5    1    3    3    0  503 -0.83589067656E+01 -0.14622413764E+02  0.10343085444E+02  0.20316390503E+02  0.47000000000E+01 0.  1.
         11    1    4    4    0    0  0.81638618714E+02 -0.31088461614E+02 -0.85180899866E+02  0.12201287724E+03  0.00000000000E+00 0. -1.
        -12    1    4    4    0    0  0.14258282220E+03  0.47289595053E+02 -0.18874231055E+03  0.24122567603E+03  0.00000000000E+00 0.  1.
</event>
<event>
12    1  0.8344842E-002  0.2235220E+03  0.7818608E-02  0.1132438E+00
         21   -1    0    0  503  502  0.00000000000E+00  0.00000000000E+00  0.29538519601E+03  0.29538519601E+03  0.00000000000E+00 0.  1.
         21   -1    0    0  501  503 -0.00000000000E+00 -0.00000000000E+00 -0.28358727883E+03  0.28358727883E+03  0.00000000000E+00 0. -1.
          6    2    1    2  501    0 -0.10131383191E+03  0.10108050885E+03 -0.18175963861E+03  0.28329259347E+03  0.16351258509E+03 0.  0.
         24    2    3    3    0    0 -0.90782777580E+01  0.90764886054E+02 -0.12717114448E+03  0.17551595771E+03  0.79452323800E+02 0.  0.
         -6    2    1    2    0  502  0.10131383191E+03 -0.10108050885E+03  0.19355755579E+03  0.29567988137E+03  0.17169829073E+03 0.  0.
        -24    2    5    5    0    0  0.11705747079E+03 -0.23197363674E+02  0.11218680993E+03  0.18185134914E+03  0.79015591581E+02 0.  0.
          5    1    3    3  501    0 -0.92235554150E+02  0.10315622795E+02 -0.54588494131E+02  0.10777663575E+03  0.47000000000E+01 0. -1.
        -11    1    4    4    0    0  0.16124752973E+02  0.86204612705E+01  0.39914834832E+01  0.18715019405E+02  0.00000000000E+00 0.  1.
         12    1    4    4    0    0 -0.25203030731E+02  0.82144424784E+02 -0.13116262796E+03  0.15680093831E+03  0.00000000000E+00 0. -1.
         -5    1    5    5    0  502 -0.15743638882E+02 -0.77883145175E+02  0.81370745859E+02  0.11382853223E+03  0.47000000000E+01 0.  1.
         11    1    6    6    0    0  0.10413563409E+03  0.91901925999E+01  0.64719263391E+02  0.12295231995E+03  0.00000000000E+00 0. -1.
        -12    1    6    6    0    0  0.12921836700E+02 -0.32387556274E+02  0.47467546538E+02  0.58899029189E+02  0.00000000000E+00 0.  1.
</event>
<event>
12    1  0.8344842E-002  0.2856476E+03  0.7818608E-02  0.1093530E+00
         21   -1    0    0  501  502  0.00000000000E+00  0.00000000000E+00  0.79050607878E+03  0.79050607878E+03  0.00000000000E+00 0. -1.
         21   -1    0    0  502  503 -0.00000000000E+00 -0.00000000000E+00 -0.11116437254E+03  0.11116437254E+03  0.00000000000E+00 0.  1.
         -6    2    1    2    0  503  0.20929073326E+03  0.84971907889E+02  0.20597222258E+03  0.35216343990E+03  0.17484763586E+03 0.  0.
        -24    2    3    3    0    0  0.11995574129E+03  0.22779366022E+02  0.19095698509E+03  0.24218071211E+03  0.85314991530E+02 0.  0.
          6    2    1    2  501    0 -0.20929073326E+03 -0.84971907889E+02  0.47336948366E+03  0.54950701143E+03  0.16387938062E+03 0.  0.
         24    2    5    5    0    0 -0.93916899593E+02  0.95803360498E+01  0.16316848477E+03  0.20527162969E+03  0.81242357585E+02 0.  0.
          5    1    5    5  501    0 -0.11537383367E+03 -0.94552243939E+02  0.31020099889E+03  0.34423538174E+03  0.47000000000E+01 0. -1.
        -13    1    6    6    0    0 -0.83493548374E+02 -0.16777492201E+02  0.15310071602E+03  0.17519271135E+03  0.00000000000E+00 0.  1.
         14    1    6    6    0    0 -0.10423351219E+02  0.26357828251E+02  0.10067768745E+02  0.30078918336E+02  0.00000000000E+00 0. -1.
         -5    1    3    3    0  503  0.89334991968E+02  0.62192541867E+02  0.15015237492E+02  0.10998272778E+03  0.47000000000E+01 0.  1.
         11    1    4    4    0    0  0.33921613945E+02  0.37560184599E+02  0.11806284110E+03  0.12845340715E+03  0.00000000000E+00 0. -1.
        -12    1    4    4    0    0  0.86034127345E+02 -0.14780818577E+02  0.72894143987E+02  0.11372730496E+03  0.00000000000E+00 0.  1.
</event>
<event>
12    1  0.8344842E-002  0.3083088E+03  0.7818608E-02  0.1081289E+00
         21   -1    0    0  503  502  0.00000000000E+00  0.00000000000E+00  0.23064406403E+03  0.23064406403E+03  0.00000000000E+00 0.  1.
         21   -1    0    0  501  503 -0.00000000000E+00 -0.00000000000E+00 -0.47086275705E+03  0.47086275705E+03  0.00000000000E+00 0. -1.
          6    2    1    2  501    0 -0.20962388821E+03 -0.14579153700E+03  0.54575563637E+01  0.30728465546E+03  0.17087050005E+03 0.  0.
         24    2    3    3    0    0 -0.18131706843E+03 -0.13151613291E+03  0.58461498594E+02  0.24534459492E+03  0.81264081340E+02 0.  0.
         -6    2    1    2    0  502  0.20962388821E+03  0.14579153700E+03 -0.24567624939E+03  0.39422216563E+03  0.17279163634E+03 0.  0.
        -24    2    5    5    0    0  0.71691390813E+02  0.12566181631E+03 -0.89533623051E+02  0.18485839309E+03  0.72289752001E+02 0.  0.
          5    1    3    3  501    0 -0.28306819772E+02 -0.14275404096E+02 -0.53003942231E+02  0.61940060540E+02  0.47000000000E+01 0. -1.
        -13    1    4    4    0    0 -0.73290606231E+02 -0.85468540736E+02  0.60664290712E+02  0.12789269168E+03  0.00000000000E+00 0.  1.
         14    1    4    4    0    0 -0.10802646220E+03 -0.46047592171E+02 -0.22027921180E+01  0.11745190324E+03  0.00000000000E+00 0. -1.
         -5    1    5    5    0  502  0.13793249739E+03  0.20129720695E+02 -0.15614262634E+03  0.20936377254E+03  0.47000000000E+01 0.  1.
         11    1    6    6    0    0  0.41737656577E+02  0.98104368085E+02 -0.96217213998E+02  0.14361145944E+03  0.00000000000E+00 0. -1.
        -12    1    6    6    0    0  0.29953734236E+02  0.27557448223E+02  0.66835909469E+01  0.41246933646E+02  0.00000000000E+00 0.  1.
</event>
<event>
12    1  0.8344842E-002  0.2828654E+03  0.7818608E-02  0.1094146E+00
         21   -1    0    0  501  502  0.00000000000E+00  0.00000000000E+00  0.15775059576E+03  0.15775059576E+03  0.00000000000E+00 0.  1.
         21   -1    0    0  502  503 -0.00000000000E+00 -0.00000000000E+00 -0.51398315053E+03  0.51398315053E+03  0.00000000000E+00 0.  1.
         -6    2    1    2    0  503 -0.18147103538E+03  0.13134934021E+03 -0.21710442454E+03  0.35650455410E+03  0.17255949721E+03 0.  0.
        -24    2    3    3    0    0 -0.13772843759E+03  0.16269074297E+03 -0.16262884199E+03  0.27978834014E+03  0.79974837707E+02 0.  0.
          6    2    1    2  501    0  0.18147103538E+03 -0.13134934021E+03 -0.13912813023E+03  0.31522919219E+03  0.17270906499E+03 0.  0.
         24    2    5    5    0    0  0.20452564372E+03 -0.13620193712E+03 -0.13564415759E+03  0.29095388112E+03  0.76636263194E+02 0.  0.
          5    1    5    5  501    0 -0.23054608336E+02  0.48525969043E+01 -0.34839726384E+01  0.24275311071E+02  0.47000000000E+01 0. -1.
        -11    1    6    6    0    0  0.10303140626E+03 -0.77180207148E+02 -0.11318931657E+03  0.17141784165E+03  0.00000000000E+00 0.  1.
         12    1    6    6    0    0  0.10149423746E+03 -0.59021729968E+02 -0.22454841022E+02  0.11953603947E+03  0.00000000000E+00 0. -1.
         -5    1    3    3    0  503 -0.43742597794E+02 -0.31341402755E+02 -0.54475582557E+02  0.76716213953E+02  0.47000000000E+01 0.  1.
         13    1    4    4    0    0 -0.72475927713E+02  0.13382532447E+03 -0.84875847330E+02  0.17425810463E+03  0.00000000000E+00 0. -1.
        -14    1    4    4    0    0 -0.65252509876E+02  0.28865418493E+02 -0.77752994657E+02  0.10553023552E+03  0.00000000000E+00 0.  1.
</event>
<event>
12    1  0.8344842E-002  0.1800189E+03  0.7818608E-02  0.1168115E+00
         21   -1    0    0  501  502  0.00000000000E+00  0.00000000000E+00  0.39882804957E+02  0.39882804957E+02  0.00000000000E+00 0.  1.
         21   -1    0    0  502  503 -0.00000000000E+00 -0.00000000000E+00 -0.90102872358E+03  0.90102872358E+03  0.00000000000E+00 0.  1.
         -6    2    1    2    0  503  0.21947727639E+02  0.41508168617E+02 -0.58447562786E+03  0.61157055734E+03  0.17378767574E+03 0.  0.
        -24    2    3    3    0    0  0.77804296301E+01  0.78248985273E+02 -0.52589765769E+03  0.54083111622E+03  0.98724420116E+02 0.  0.
          6    2    1    2  501    0 -0.21947727639E+02 -0.41508168617E+02 -0.27667029077E+03  0.32934097120E+03  0.17237863761E+03 0.  0.
         24    2    5    5    0    0  0.26668848259E+02 -0.71338532423E+02 -0.23119371484E+03  0.25624082745E+03  0.80052571470E+02 0.  0.
          5    1    5    5  501    0 -0.48616575898E+02  0.29830363806E+02 -0.45476575931E+02  0.73100143743E+02  0.47000000000E+01 0. -1.
        -11    1    6    6    0    0 -0.12241769387E+02  0.11447121096E+02 -0.58021619169E+02  0.60393756218E+02  0.00000000000E+00 0.  1.
         12    1    6    6    0    0  0.38910617646E+02 -0.82785653519E+02 -0.17317209567E+03  0.19584707124E+03  0.00000000000E+00 0. -1.
         -5    1    3    3    0  503  0.14167298009E+02 -0.36740816655E+02 -0.58577970171E+02  0.70739441125E+02  0.47000000000E+01 0.  1.
         13    1    4    4    0    0 -0.40499265436E+02  0.11831718768E+02 -0.22551444324E+03  0.22942742683E+03  0.00000000000E+00 0. -1.
        -14    1    4    4    0    0  0.48279695067E+02  0.66417266505E+02 -0.30038321445E+03  0.31140368939E+03  0.00000000000E+00 0.  1.
</event>
<event>
12    1  0.8344842E-002  0.1902704E+03  0.7818608E-02  0.1158400E+00
         21   -1    0    0  503  502  0.00000000000E+00  0.00000000000E+00  0.33460540019E+03  0.33460540019E+03  0.00000000000E+00 0.  1.
         21   -1    0    0  501  503 -0.00000000000E+00 -0.00000000000E+00 -0.12488429509E+03  0.12488429509E+03  0.00000000000E+00 0.  1.
          6    2    1    2  501    0  0.74865157905E+02 -0.30668364032E+02  0.19018803565E+03  0.26902474511E+03  0.17221348424E+03 0.  0.
         24    2    3    3    0    0  0.62989445442E+02  0.41860003138E+02  0.77939248542E+02  0.13477394698E+03  0.79809524623E+02 0.  0.
         -6    2    1    2    0  502 -0.74865157905E+02  0.30668364032E+02  0.19533069442E+02  0.19046495017E+03  0.17131846375E+03 0.  0.
        -24    2    5    5    0    0 -0.78329430476E+02 -0.22471276864E+00  0.68913078150E+02  0.13192557335E+03  0.80745243756E+02 0.  0.
          5    1    3    3  501    0  0.11875712463E+02 -0.72528367170E+02  0.11224878711E+03  0.13425079813E+03  0.47000000000E+01 0. -1.
        -13    1    4    4    0    0 -0.11706555877E+01 -0.85045113045E+01 -0.11093063701E+02  0.14026874538E+02  0.00000000000E+00 0.  1.
         14    1    4    4    0    0  0.64160101030E+02  0.50364514443E+02  0.89032312243E+02  0.12074707244E+03  0.00000000000E+00 0. -1.
         -5    1    5    5    0  502  0.34642725712E+01  0.30893076801E+02 -0.49380008708E+02  0.58539376822E+02  0.47000000000E+01 0.  1.
         13    1    6    6    0    0 -0.20414291396E+02 -0.77268652508E+01  0.70197086119E+02  0.73512438671E+02  0.00000000000E+00 0. -1.
        -14    1    6    6    0    0 -0.57915139081E+02  0.75021524822E+01 -0.12840079690E+01  0.58413134679E+02  0.00000000000E+00 0.  1.
</event>
<event>
12    1  0.8344842E-002  0.2358470E+03  0.7818608E-02  0.1122613E+00
         21   -1    0    0  503  502  0.00000000000E+00  0.00000000000E+00  0.23466621499E+03  0.23466621499E+03  0.00000000000E+00 0.  1.
         21   -1    0    0  501  503 -0.00000000000E+00 -0.00000000000E+00 -0.39505924324E+03  0.39505924324E+03  0.00000000000E+00 0.  1.
          6    2    1    2  501    0  0.10292329325E+03  0.12441491209E+03 -0.27940272742E+03  0.36555297532E+03  0.17172891147E+03 0.  0.
         24    2    3    3    0    0  0.44285080544E+02  0.47382577298E+02 -0.47457287211E+02  0.11417040268E+03  0.81095066123E+02 0.  0.
         -6    2    1    2    0  502 -0.10292329325E+03 -0.12441491209E+03  0.11900969918E+03  0.26417248291E+03  0.17190554844E+03 0.  0.
        -24    2    5    5    0    0 -0.12597458942E+02 -0.30946220321E+02 -0.35694313714E+00  0.87634560687E+02  0.81014346226E+02 0.  0.
          5    1    3    3  501    0  0.58638212706E+02  0.77032334791E+02 -0.23194544021E+03  0.25138257264E+03  0.47000000000E+01 0. -1.
        -11    1    4    4    0    0  0.59578516898E+02  0.54651057251E+02 -0.52625452840E+02  0.96466450235E+02  0.00000000000E+00 0.  1.
         12    1    4    4    0    0 -0.15293436354E+02 -0.72684799531E+01  0.51681656284E+01  0.17703952449E+02  0.00000000000E+00 0. -1.
         -5    1    5    5    0  502 -0.90325834308E+02 -0.93468691768E+02  0.11936664231E+03  0.17653792222E+03  0.47000000000E+01 0.  1.
         13    1    6    6    0    0 -0.27283514948E+02 -0.52247335843E+02 -0.10452199300E+02  0.59861696943E+02  0.00000000000E+00 0. -1.
        -14    1    6    6    0    0  0.14686056007E+02  0.21301115523E+02  0.10095256163E+02  0.27772863744E+02  0.00000000000E+00 0.  1.
</event>
<event>
12    1  0.8344842E-002  0.2130820E+03  0.7818608E-02  0.1139683E+00
         21   -1    0    0  501  502  0.00000000000E+00  0.00000000000E+00  0.53999849909E+02  0.53999849909E+02  0.00000000000E+00 0.  1.
         21   -1    0    0  502  503 -0.00000000000E+00 -0.00000000000E+00 -0.85534798718E+03  0.85534798718E+03  0.00000000000E+00 0.  1.
         -6    2    1    2    0  503 -0.41407848788E+02 -0.11354311308E+03 -0.47631978139E+03  0.52069968315E+03  0.17216555236E+03 0.  0.
        -24    2    3    3    0    0  0.40949619709E+02 -0.69838477361E+02 -0.22093361776E+03  0.24878603809E+03  0.80799412213E+02 0.  0.
          6    2    1    2  501    0  0.41407848788E+02  0.11354311308E+03 -0.32502835589E+03  0.38864815395E+03  0.17549161509E+03 0.  0.
         24    2    5    5    0    0 -0.25007375254E+02  0.10710446006E+03 -0.17260554077E+03  0.22219322670E+03  0.86489439265E+02 0.  0.
          5    1    5    5  501    0  0.66415224042E+02  0.64386530212E+01 -0.15242281512E+03  0.16645492725E+03  0.47000000000E+01 0. -1.
        -11    1    6    6    0    0 -0.97111431171E+01  0.17794880595E+02  0.66526081182E+01  0.21335915045E+02  0.00000000000E+00 0.  1.
         12    1    6    6    0    0 -0.15296232137E+02  0.89309579460E+02 -0.17925814889E+03  0.20085731165E+03  0.00000000000E+00 0. -1.
         -5    1    3    3    0  503 -0.82357468497E+02 -0.43704635716E+02 -0.25538616362E+03  0.27191364506E+03  0.47000000000E+01 0.  1.
         11    1    4    4    0    0  0.91039939490E+01  0.11100851504E+02 -0.92898647975E+02  0.94001438316E+02  0.00000000000E+00 0. -1.
        -12    1    4    4    0    0  0.31845625760E+02 -0.80939328864E+02 -0.12803496979E+03  0.15478459977E+03  0.00000000000E+00 0.  1.
</event>
<event>
12    1  0.8344842E-002  0.2274720E+03  0.7818608E-02  0.1131157E+00
         21   -1    0    0  501  502  0.00000000000E+00  0.00000000000E+00  0.63275397341E+02  0.63275397341E+02  0.00000000000E+00 0.  1.
         21   -1    0    0  502  503 -0.00000000000E+00 -0.00000000000E+00 -0.19373320972E+04  0.19373320972E+04  0.00000000000E+00 0.  1.
         -6    2    1    2    0  503  0.89885448822E+02 -0.96233794873E+02 -0.17271675446E+04  0.17420824428E+04  0.18548092372E+03 0.  0.
        -24    2    3    3    0    0  0.56709421201E+02 -0.27609258846E+02 -0.41046196404E+03  0.42316407848E+03  0.81305496527E+02 0.  0.
          6    2    1    2  501    0 -0.89885448822E+02  0.96233794873E+02 -0.14688915525E+03  0.25852505177E+03  0.16708812429E+03 0.  0.
         24    2    5    5    0    0 -0.28695354466E+02  0.30760029694E+01 -0.29672284878E+02  0.96708839546E+02  0.87402917539E+02 0.  0.
          5    1    5    5  501    0 -0.61190094357E+02  0.93157791904E+02 -0.11721687037E+03  0.16181621223E+03  0.47000000000E+01 0. -1.
        -11    1    6    6    0    0 -0.83891329442E+00  0.42485918026E+02 -0.58710433896E+01  0.42897857248E+02  0.00000000000E+00 0.  1.
         12    1    6    6    0    0 -0.27856441171E+02 -0.39409915056E+02 -0.23801241489E+02  0.53810982298E+02  0.00000000000E+00 0. -1.
         -5    1    3    3    0  503  0.33176027622E+02 -0.68624536028E+02 -0.13167055806E+04  0.13189183643E+04  0.47000000000E+01 0.  1.
         13    1    4    4    0    0  0.30926190200E+02  0.24359573207E+02 -0.10279755693E+03  0.11007795310E+03  0.00000000000E+00 0. -1.
        -14    1    4    4    0    0  0.25783231001E+02 -0.51968832052E+02 -0.30766440710E+03  0.31308612538E+03  0.00000000000E+00 0.  1.
</event>
<event>
12    1  0.8344842E-002  0.3279410E+03  0.7818608E-02  0.1072066E+00
         21   -1    0    0  501  502  0.00000000000E+00  0.00000000000E+00  0.32401099749E+03  0.32401099749E+03  0.00000000000E+00 0.  1.
         21   -1    0    0  502  503 -0.00000000000E+00 -0.00000000000E+00 -0.34026100674E+03  0.34026100674E+03  0.00000000000E+00 0. -1.
         -6    2    1    2    0  503 -0.24013180319E+03  0.14243807391E+03  0.44294509798E+02  0.33078898737E+03  0.17177736395E+03 0.  0.
        -24    2    3    3    0    0 -0.23575814783E+03  0.13585499838E+03 -0.17082267777E+01  0.28387622240E+03  0.80896889617E+02 0.  0.
          6    2    1    2  501    0  0.24013180319E+03 -0.14243807391E+03 -0.60544519044E+02  0.33348301686E+03  0.17202731163E+03 0.  0.
         24    2    5    5    0    0  0.18653834290E+03 -0.17105321009E+03 -0.36425909215E+02  0.26794766499E+03  0.80083395655E+02 0.  0.
          5    1    5    5  501    0  0.53593460289E+02  0.28615136179E+02 -0.24118609829E+02  0.65535351867E+02  0.47000000000E+01 0. -1.
        -13    1    6    6    0    0  0.86034317144E+02 -0.13142966307E+03 -0.28260246596E+02  0.15960670913E+03  0.00000000000E+00 0.  1.
         14    1    6    6    0    0  0.10050402576E+03 -0.39623547016E+02 -0.81656626194E+01  0.10834095586E+03  0.00000000000E+00 0. -1.
         -5    1    3    3    0  503 -0.43736553565E+01  0.65830755215E+01  0.46002736576E+02  0.46912764968E+02  0.47000000000E+01 0.  1.
         11    1    4    4    0    0 -0.83707923006E+02  0.66499270889E+02 -0.36888028603E+02  0.11309242263E+03  0.00000000000E+00 0. -1.
        -12    1    4    4    0    0 -0.15205022483E+03  0.69355727496E+02  0.35179801825E+02  0.17078379977E+03  0.00000000000E+00 0.  1.
</event>
<event>
12    1  0.8344842E-002  0.1797889E+03  0.7818608E-02  0.1168256E+00
         21   -1    0    0  503  502  0.00000000000E+00  0.00000000000E+00  0.22421993151E+02  0.22421993151E+02  0.00000000000E+00 0. -1.
         21   -1    0    0  501  503 -0.00000000000E+00 -0.00000000000E+00 -0.21205504932E+04  0.21205504932E+04  0.00000000000E+00 0. -1.
          6    2    1    2  501    0  0.46429706633E+02  0.76251923069E+01 -0.16569630789E+04  0.16665787570E+04  0.17246520623E+03 0.  0.
         24    2    3    3    0    0  0.20152447329E+02  0.20032538861E+02 -0.16108947097E+04  0.16119086441E+04  0.49601285224E+02 0.  0.
         -6    2    1    2    0  502 -0.46429706633E+02 -0.76251923069E+01 -0.44116542124E+03  0.47639372940E+03  0.17352289561E+03 0.  0.
        -24    2    5    5    0    0 -0.81414890627E+02 -0.52657833147E+02 -0.28968128744E+03  0.31446339058E+03  0.74637416295E+02 0.  0.
          5    1    3    3  501    0  0.26277259304E+02 -0.12407346554E+02 -0.46068369137E+02  0.54670112859E+02  0.47000000000E+01 0. -1.
        -13    1    4    4    0    0 -0.27601776721E+01  0.20638789733E+02 -0.26433047409E+03  0.26514934991E+03  0.00000000000E+00 0.  1.
         14    1    4    4    0    0  0.22912625001E+02 -0.60625087253E+00 -0.13465642356E+04  0.13467592942E+04  0.00000000000E+00 0. -1.
         -5    1    5    5    0  502  0.34985183994E+02  0.45032640840E+02 -0.15148413380E+03  0.16193033883E+03  0.47000000000E+01 0.  1.
         13    1    6    6    0    0 -0.81193491594E+02 -0.61887459097E+02 -0.20234562147E+03  0.22664110659E+03  0.00000000000E+00 0. -1.
        -14    1    6    6    0    0 -0.22139903231E+00  0.92296259505E+01 -0.87335665976E+02  0.87822283984E+02  0.00000000000E+00 0.  1.
</event>
<event>
12    1  0.8344842E-002  0.1727433E+03  0.7818608E-02  0.1175181E+00
         21   -1    0    0  503  502  0.00000000000E+00  0.00000000000E+00  0.28997143055E+03  0.28997143055E+03  0.00000000000E+00 0.  1.
         21   -1    0    0  501  503 -0.00000000000E+00 -0.00000000000E+00 -0.19165300556E+03  0.19165300556E+03  0.00000000000E+00 0.  1.
          6    2    1    2  501    0  0.98661089059E+00 -0.69778651584E+00 -0.11510904796E+03  0.20704925796E+03  0.17209834977E+03 0.  0.
         24    2    3    3    0    0 -0.40709417641E+02  0.89379297785E+01 -0.13389719530E+03  0.16007596444E+03  0.77192695310E+02 0.  0.
         -6    2    1    2    0  502 -0.98661089059E+00  0.69778651584E+00  0.21342747296E+03  0.27457517814E+03  0.17273905734E+03 0.  0.
        -24    2    5    5    0    0 -0.62818965220E+02 -0.20932228249E+02  0.15677901182E+03  0.18784435473E+03  0.79507625323E+02 0.  0.
          5    1    3    3  501    0  0.41696028532E+02 -0.96357162943E+01  0.18788147338E+02  0.46973293521E+02  0.47000000000E+01 0. -1.
        -13    1    4    4    0    0 -0.36320006817E+02  0.39099612690E+02 -0.10636873600E+03  0.11900517050E+03  0.00000000000E+00 0.  1.
         14    1    4    4    0    0 -0.43894108247E+01 -0.30161682912E+02 -0.27528459299E+02  0.41070793940E+02  0.00000000000E+00 0. -1.
         -5    1    5    5    0  502  0.61832354330E+02  0.21630014765E+02  0.56648461137E+02  0.86730823413E+02  0.47000000000E+01 0.  1.
         11    1    6    6    0    0 -0.23839231477E+02 -0.49452124739E+02  0.90163523976E+02  0.10556174806E+03  0.00000000000E+00 0. -1.
        -12    1    6    6    0    0 -0.38979733743E+02  0.28519896490E+02  0.66615487843E+02  0.82282606661E+02  0.00000000000E+00 0.  1.
</event>
<event>
12    1  0.8344842E-002  0.2084253E+03  0.7818608E-02  0.1142882E+00
         21   -1    0    0  503  502  0.00000000000E+00  0.00000000000E+00  0.76511777324E+02  0.76511777324E+02  0.00000000000E+00 0.  1.
         21   -1    0    0  501  503 -0.00000000000E+00 -0.00000000000E+00 -0.11860852704E+04  0.11860852704E+04  0.00000000000E+00 0.  1.
          6    2    1    2  501    0  0.11790806608E+03 -0.46844125738E+01 -0.10107101351E+04  0.10319131376E+04  0.17142196638E+03 0.  0.
         24    2    3    3    0    0  0.73856030353E+01 -0.39497955741E+02 -0.53152734512E+03  0.53889647069E+03  0.79205125264E+02 0.  0.
         -6    2    1    2    0  502 -0.11790806608E+03  0.46844125738E+01 -0.98863358005E+02  0.23068391017E+03  0.17180467714E+03 0.  0.
        -24    2    5    5    0    0 -0.80908771367E+02  0.68313062201E+02 -0.43305087733E+02  0.13834559603E+03  0.77789906579E+02 0.  0.
          5    1    3    3  501    0  0.11052246305E+03  0.34813543167E+02 -0.47918278996E+03  0.49301666687E+03  0.47000000000E+01 0. -1.
        -11    1    4    4    0    0  0.25096050473E+02 -0.11656586433E+02 -0.45131196306E+03  0.45215945834E+03  0.00000000000E+00 0.  1.
         12    1    4    4    0    0 -0.17710447438E+02 -0.27841369308E+02 -0.80215382059E+02  0.86737012355E+02  0.00000000000E+00 0. -1.
         -5    1    5    5    0  502 -0.36999294714E+02 -0.63628649627E+02 -0.55558270272E+02  0.92338314140E+02  0.47000000000E+01 0.  1.
         11    1    6    6    0    0 -0.22846297553E+02  0.48314664040E+01 -0.46738243820E+02  0.52247103411E+02  0.00000000000E+00 0. -1.
        -12    1    6    6    0    0 -0.58062473814E+02  0.63481595797E+02  0.34331560871E+01  0.86098492617E+02  0.00000000000E+00 0.  1.
</event>
<event>
12    1  0.8344842E-002  0.1887347E+03  0.7818608E-02  0.1159765E+00
         21   -1    0    0  503  502  0.00000000000E+00  0.00000000000E+00  0.63119575503E+03  0.63119575503E+03  0.00000000000E+00 0. -1.
         21   -1    0    0  501  503 -0.00000000000E+00 -0.00000000000E+00 -0.63928156020E+02  0.63928156020E+02  0.00000000000E+00 0. -1.
          6    2    1    2  501    0 -0.28036128524E+02 -0.74737123969E+02  0.40380617977E+03  0.44544326877E+03  0.17026042602E+03 0.  0.
         24    2    3    3    0    0 -0.80845057874E+02 -0.38891215875E+02  0.21438574190E+03  0.24550351677E+03  0.79134571217E+02 0.  0.
         -6    2    1    2    0  502  0.28036128524E+02  0.74737123969E+02  0.16346141924E+03  0.24968064228E+03  0.17102375668E+03 0.  0.
        -24    2    5    5    0    0  0.56616748245E+02  0.10057253810E+03  0.92770985239E+02  0.16903606462E+03  0.81525725003E+02 0.  0.
          5    1    3    3  501    0  0.52808929350E+02 -0.35845908094E+02  0.18942043787E+03  0.19993975200E+03  0.47000000000E+01 0. -1.
        -13    1    4    4    0    0 -0.65387718173E+01 -0.20057903697E+02  0.12917661084E+03  0.13088801253E+03  0.00000000000E+00 0.  1.
         14    1    4    4    0    0 -0.74306286057E+02 -0.18833312178E+02  0.85209131067E+02  0.11461550424E+03  0.00000000000E+00 0. -1.
         -5    1    5    5    0  502 -0.28580619721E+02 -0.25835414134E+02  0.70690434000E+02  0.80644577662E+02  0.47000000000E+01 0.  1.
         11    1    6    6    0    0  0.65623745652E+02  0.63763734714E+02  0.93921092549E+02  0.13112384026E+03  0.00000000000E+00 0. -1.
        -12    1    6    6    0    0 -0.90069974064E+01  0.36808803390E+02 -0.11501073105E+01  0.37912224362E+02  0.00000000000E+00 0.  1.
</event>
<event>
12    1  0.8344842E-002  0.1879206E+03  0.7818608E-02  0.1160856E+00
         21   -1    0    0  501  502  0.00000000000E+00  0.00000000000E+00  0.55851892363E+03  0.55851892363E+03  0.00000000000E+00 0.  1.
         21   -1    0    0  502  503 -0.00000000000E+00 -0.00000000000E+00 -0.13201807153E+03  0.13201807153E+03  0.00000000000E+00 0.  1.
         -6    2    1    2    0  503  0.63469154999E+02  0.23365381670E+02 -0.36716227485E+02  0.19147379627E+03  0.17532786031E+03 0.  0.
        -24    2    3    3    0    0  0.12093928614E+02  0.25333174544E+02  0.46488817317E+02  0.93553136679E+02  0.76177072700E+02 0.  0.
          6    2    1    2  501    0 -0.63469154999E+02 -0.23365381670E+02  0.46321707959E+03  0.49906319888E+03  0.17297323192E+03 0.  0.
         24    2    5    5    0    0 -0.87507963625E+02 -0.27872731792E+02  0.20616947880E+03  0.24081188795E+03  0.83964150185E+02 0.  0.
          5    1    5    5  501    0  0.24038808626E+02  0.45073501229E+01  0.25704760079E+03  0.25825131093E+03  0.47000000000E+01 0. -1.
        -11    1    6    6    0    0 -0.73421316140E+02 -0.34197031864E+02  0.20985001288E+03  0.22493811273E+03  0.00000000000E+00 0.  1.
         12    1    6    6    0    0 -0.14086647484E+02  0.63243000717E+01 -0.36805340821E+01  0.15873775225E+02  0.00000000000E+00 0. -1.
         -5    1    3    3    0  503  0.51375226385E+02 -0.19677928743E+01 -0.83205044802E+02  0.97920659594E+02  0.47000000000E+01 0.  1.
         11    1    4    4    0    0 -0.38069458203E+00 -0.26348268466E+02  0.68204507982E+01  0.27219381488E+02  0.00000000000E+00 0. -1.
        -12    1    4    4    0    0  0.12474623196E+02  0.51681443009E+02  0.39668366519E+02  0.66333755191E+02  0.00000000000E+00 0.  1.
</event>
<event>
12    1  0.8344842E-002  0.1950200E+03  0.7818608E-02  0.1154159E+00
         21   -1    0    0  501  502  0.00000000000E+00  0.00000000000E+00  0.94778088230E+03  0.94778088230E+03  0.00000000000E+00 0.  1.
         21   -1    0    0  502  503 -0.00000000000E+00 -0.00000000000E+00 -0.48352673991E+02  0.48352673991E+02  0.00000000000E+00 0.  1.
         -6    2    1    2    0  503  0.85693779123E+02  0.32978942304E+02  0.24191099442E+03  0.31030436490E+03  0.17127999078E+03 0.  0.
        -24    2    3    3    0    0  0.84611579216E+02 -0.10657164006E+02  0.23897678624E+03  0.26630458640E+03  0.80842648983E+02 0.  0.
          6    2    1    2  501    0 -0.85693779123E+02 -0.32978942304E+02  0.65751721389E+03  0.68582919139E+03  0.17205161661E+03 0.  0.
         24    2    5    5    0    0 -0.96131573451E+02  0.16360039261E+02  0.36671082694E+03  0.39064496528E+03  0.92831718732E+02 0.  0.
          5    1    5    5  501    0  0.10437794327E+02 -0.49338981564E+02  0.29080638695E+03  0.29518422611E+03  0.47000000000E+01 0. -1.
        -13    1    6    6    0    0 -0.37867294643E+02 -0.22327883101E+02  0.25561531096E+03  0.25936779593E+03  0.00000000000E+00 0.  1.
         14    1    6    6    0    0 -0.58264278807E+02  0.38687922361E+02  0.11109551598E+03  0.13127716935E+03  0.00000000000E+00 0. -1.
         -5    1    3    3    0  503  0.10821999073E+01  0.43636106310E+02  0.29342081751E+01  0.43999778501E+02  0.47000000000E+01 0.  1.
         13    1    4    4    0    0  0.34056654429E+01  0.23160174989E+02  0.92744539532E+02  0.95653237665E+02  0.00000000000E+00 0. -1.
        -14    1    4    4    0    0  0.81205913773E+02 -0.33817338995E+02  0.14623224671E+03  0.17065134874E+03  0.00000000000E+00 0.  1.
</event>
<event>
12    1  0.8344842E-002  0.1835724E+03  0.7818608E-02  0.1165271E+00
         21   -1    0    0  501  502  0.00000000000E+00  0.00000000000E+00  0.13585558982E+03  0.13585558982E+03  0.00000000000E+00 0. -1.
         21   -1    0    0  502  503 -0.00000000000E+00 -0.00000000000E+00 -0.24313635515E+03  0.24313635515E+03  0.00000000000E+00 0. -1.
         -6    2    1    2    0  503 -0.60495766404E+02 -0.14022075862E+02 -0.57098749268E+02  0.19224748436E+03  0.17274973722E+03 0.  0.
        -24    2    3    3    0    0  0.27452654681E+02 -0.16904600452E+02 -0.57400755866E+02  0.10412589264E+03  0.80671810304E+02 0.  0.
          6    2    1    2  501    0  0.60495766404E+02  0.14022075862E+02 -0.50182016057E+02  0.18674446061E+03  0.16881617952E+03 0.  0.
         24    2    5    5    0    0 -0.20327156239E+01 -0.21979366841E+02  0.20900850279E+02  0.85350285098E+02  0.79753376884E+02 0.  0.
          5    1    5    5  501    0  0.62528482028E+02  0.36001442703E+02 -0.71082866336E+02  0.10139417551E+03  0.47000000000E+01 0. -1.
        -11    1    6    6    0    0 -0.85446467934E+01 -0.33874529842E+02 -0.21372816064E+02  0.40954755858E+02  0.00000000000E+00 0.  1.
         12    1    6    6    0    0  0.65119311695E+01  0.11895163002E+02  0.42273666343E+02  0.44395529240E+02  0.00000000000E+00 0. -1.
         -5    1    3    3    0  503 -0.87948421086E+02  0.28825245897E+01  0.30200659800E+00  0.88121591721E+02  0.47000000000E+01 0.  1.
         13    1    4    4    0    0  0.68855752966E+00 -0.30839855630E+02  0.81993733275E+01  0.31918654886E+02  0.00000000000E+00 0. -1.
        -14    1    4    4    0    0  0.26764097152E+02  0.13935255178E+02 -0.65600129193E+02  0.72207237750E+02  0.00000000000E+00 0.  1.
</event>
<event>
12    1  0.8344842E-002  0.1791111E+03  0.7818608E-02  0.1169063E+00
         21   -1    0    0  503  502  0.00000000000E+00  0.00000000000E+00  0.15491550676E+02  0.15491550676E+02  0.00000000000E+00 0. -1.
         21   -1    0    0  501  503 -0.00000000000E+00 -0.00000000000E+00 -0.22501415381E+04  0.22501415381E+04  0.00000000000E+00 0. -1.
          6    2    1    2  501    0  0.35086755385E+02 -0.17423604444E+02 -0.14580002990E+04  0.14689607460E+04  0.17477453807E+03 0.  0.
         24    2    3    3    0    0  0.76489674159E+01  0.11771063744E+02 -0.13676806187E+04  0.13700421153E+04  0.79171069830E+02 0.  0.
         -6    2    1    2    0  502 -0.35086755385E+02  0.17423604444E+02 -0.77664968849E+03  0.79667234279E+03  0.17311100699E+03 0.  0.
        -24    2    5    5    0    0 -0.51493450265E+02 -0.87592603512E+00 -0.21105442345E+03  0.23052382315E+03  0.77103311971E+02 0.  0.
          5    1    3    3  501    0  0.27437787969E+02 -0.29194668189E+02 -0.90319680312E+02  0.98918630757E+02  0.47000000000E+01 0. -1.
        -13    1    4    4    0    0 -0.28110135132E+02  0.59250834396E+01 -0.23034996705E+03  0.23213443008E+03  0.00000000000E+00 0.  1.
         14    1    4    4    0    0  0.35759102548E+02  0.58459803048E+01 -0.11373306516E+04  0.11379076852E+04  0.00000000000E+00 0. -1.
         -5    1    5    5    0  502  0.16406694880E+02  0.18299530479E+02 -0.56559526504E+03  0.56614851964E+03  0.47000000000E+01 0.  1.
         11    1    6    6    0    0  0.12900756865E+02 -0.87754730411E+01 -0.83625639380E+01  0.17702286022E+02  0.00000000000E+00 0. -1.
        -12    1    6    6    0    0 -0.64394207129E+02  0.78995470059E+01 -0.20269185951E+03  0.21282153713E+03  0.00000000000E+00 0.  1.
</event>
<event>
12    1  0.8344842E-002  0.1948506E+03  0.7818608E-02  0.1154531E+00
         21   -1    0    0  503  502  0.00000000000E+00  0.00000000000E+00  0.52536850049E+03  0.52536850049E+03  0.00000000000E+00 0. -1.
         21   -1    0    0  501  503 -0.00000000000E+00 -0.00000000000E+00 -0.16556103232E+03  0.16556103232E+03  0.00000000000E+00 0. -1.
          6    2    1    2  501    0  0.20185369653E+02 -0.89629835996E+02 -0.79957633162E+02  0.21061808659E+03  0.17183072673E+03 0.  0.
         24    2    3    3    0    0 -0.50309161337E+02 -0.43233831339E+02 -0.69519563463E+02  0.12545288568E+03  0.80655321796E+02 0.  0.
         -6    2    1    2    0  502 -0.20185369653E+02  0.89629835996E+02  0.43976510133E+03  0.48031144622E+03  0.16989639305E+03 0.  0.
        -24    2    5    5    0    0 -0.13579455883E+02 -0.18095893921E+02  0.15883635623E+03  0.17932719280E+03  0.80108620120E+02 0.  0.
          5    1    3    3  501    0  0.70494530989E+02 -0.46396004657E+02 -0.10438069699E+02  0.85165200913E+02  0.47000000000E+01 0. -1.
        -11    1    4    4    0    0 -0.31359723777E+02  0.19836741035E+02 -0.15254584067E+02  0.40120205699E+02  0.00000000000E+00 0.  1.
         12    1    4    4    0    0 -0.18949437560E+02 -0.63070572375E+02 -0.54264979396E+02  0.85332679979E+02  0.00000000000E+00 0. -1.
         -5    1    5    5    0  502 -0.66059137691E+01  0.10772572992E+03  0.28092874510E+03  0.30098425342E+03  0.47000000000E+01 0.  1.
         13    1    6    6    0    0  0.60670373373E+01  0.93044524175E+01  0.14051790991E+03  0.14095625131E+03  0.00000000000E+00 0. -1.
        -14    1    6    6    0    0 -0.19646493221E+02 -0.27400346339E+02  0.18318446319E+02  0.38370941491E+02  0.00000000000E+00 0.  1.
</event>
<event>
12    1  0.8344842E-002  0.1892388E+03  0.7818608E-02  0.1159178E+00
         21   -1    0    0  501  502  0.00000000000E+00  0.00000000000E+00  0.87676564329E+02  0.87676564329E+02  0.00000000000E+00 0.  1.
         21   -1    0    0  502  503 -0.00000000000E+00 -0.00000000000E+00 -0.40837037000E+03  0.40837037000E+03  0.00000000000E+00 0.  1.
         -6    2    1    2    0  503 -0.78583288085E+02  0.32628174085E+01 -0.15496634130E+03  0.24459331239E+03  0.17212013940E+03 0.  0.
        -24    2    3    3    0    0 -0.56428850510E+02  0.69467366465E+02 -0.10511967028E+03  0.15868264930E+03  0.78231118721E+02 0.  0.
          6    2    1    2  501    0  0.78583288085E+02 -0.32628174085E+01 -0.16572746437E+03  0.25145362194E+03  0.17198067449E+03 0.  0.
         24    2    5    5    0    0  0.45845371109E+02  0.70086822062E+01 -0.11513006899E+02  0.93398366394E+02  0.80248276236E+02 0.  0.
          5    1    5    5  501    0  0.32737916976E+02 -0.10271499615E+02 -0.15421445747E+03  0.15805525555E+03  0.47000000000E+01 0. -1.
        -11    1    6    6    0    0  0.15073599437E+01  0.26832638362E+02  0.21715062009E+02  0.34551505517E+02  0.00000000000E+00 0.  1.
         12    1    6    6    0    0  0.44338011165E+02 -0.19823956156E+02 -0.33228068908E+02  0.58846860877E+02  0.00000000000E+00 0. -1.
         -5    1    3    3    0  503 -0.22154437575E+02 -0.66204549057E+02 -0.49846671016E+02  0.85910663084E+02  0.47000000000E+01 0.  1.
         11    1    4    4    0    0 -0.41421282890E+02 -0.19341908580E+01 -0.18435895174E+02  0.45380017644E+02  0.00000000000E+00 0. -1.
        -12    1    4    4    0    0 -0.15007567620E+02  0.71401557323E+02 -0.86683775109E+02  0.11330263166E+03  0.00000000000E+00 0.  1.
</event>
<event>
12    1  0.8344842E-002  0.2152516E+03  0.7818608E-02  0.1137879E+00
         21   -1    0    0  501  502  0.00000000000E+00  0.00000000000E+00  0.82055933466E+02  0.82055933466E+02  0.00000000000E+00 0. -1.
         21   -1    0    0  502  503 -0.00000000000E+00 -0.00000000000E+00 -0.55990759899E+03  0.55990759899E+03  0.00000000000E+00 0. -1.
         -6    2    1    2    0  503 -0.11397722665E+03  0.52093865292E+02 -0.25195472227E+03  0.33138260385E+03  0.17501048273E+03 0.  0.
        -24    2    3    3    0    0 -0.11983073647E+03  0.47787582685E+02 -0.27076487544E+03  0.31067706088E+03  0.81015800458E+02 0.  0.
          6    2    1    2  501    0  0.11397722665E+03 -0.52093865292E+02 -0.22589694325E+03  0.31058092860E+03  0.17241376177E+03 0.  0.
         24    2    5    5    0    0  0.56578623464E+02  0.67530307957E+01 -0.37272232975E+02  0.10476808121E+03  0.79626549787E+02 0.  0.
          5    1    5    5  501    0  0.57398603185E+02 -0.58846896088E+02 -0.18862471028E+03  0.20581284740E+03  0.47000000000E+01 0. -1.
        -13    1    6    6    0    0  0.34145744366E+01  0.47022694712E+01 -0.49776704644E+02  0.50114778080E+02  0.00000000000E+00 0.  1.
         14    1    6    6    0    0  0.53164049027E+02  0.20507613244E+01  0.12504471670E+02  0.54653303127E+02  0.00000000000E+00 0. -1.
         -5    1    3    3    0  503  0.58535098167E+01  0.43062826073E+01  0.18810153174E+02  0.20705542966E+02  0.47000000000E+01 0.  1.
         13    1    4    4    0    0 -0.88881641489E+02  0.59490195697E+02 -0.14225627935E+03  0.17797718559E+03  0.00000000000E+00 0. -1.
        -14    1    4    4    0    0 -0.30949094977E+02 -0.11702613012E+02 -0.12850859610E+03  0.13269987529E+03  0.00000000000E+00 0.  1.
</event>
<event>
12    1  0.8344842E-002  0.3027663E+03  0.7818608E-02  0.1083890E+00
         21   -1    0    0  503  502  0.00000000000E+00  0.00000000000E+00  0.53731361592E+03  0.53731361592E+03  0.00000000000E+00 0. -1.
         21   -1    0    0  501  503 -0.00000000000E+00 -0.00000000000E+00 -0.29819882516E+03  0.29819882516E+03  0.00000000000E+00 0.  1.
          6    2    1    2  501    0 -0.20594643362E+03  0.13920771052E+03 -0.15385122470E+03  0.33943813576E+03  0.17249732891E+03 0.  0.
         24    2    3    3    0    0 -0.42507499399E+02  0.68579759999E+02 -0.10846918684E+03  0.15563875607E+03  0.77121896447E+02 0.  0.
         -6    2    1    2    0  502  0.20594643362E+03 -0.13920771052E+03  0.39296601546E+03  0.49607430532E+03  0.17284301229E+03 0.  0.
        -24    2    5    5    0    0  0.19733694903E+03 -0.16763299637E+03  0.37060382231E+03  0.45860061077E+03  0.76971645171E+02 0.  0.
          5    1    3    3  501    0 -0.16343893423E+03  0.70627950521E+02 -0.45382037860E+02  0.18379937969E+03  0.47000000000E+01 0. -1.
        -13    1    4    4    0    0 -0.49915430299E+02  0.43212281363E+02 -0.29403006132E+02  0.72273011644E+02  0.00000000000E+00 0.  1.
         14    1    4    4    0    0  0.74079308997E+01  0.25367478636E+02 -0.79066180704E+02  0.83365744426E+02  0.00000000000E+00 0. -1.
         -5    1    5    5    0  502  0.86094845938E+01  0.28425285852E+02  0.22362193150E+02  0.37473694550E+02  0.47000000000E+01 0.  1.
         11    1    6    6    0    0  0.97110987696E+02 -0.71813649041E+02  0.23723508370E+03  0.26621087329E+03  0.00000000000E+00 0. -1.
        -12    1    6    6    0    0  0.10022596133E+03 -0.95819347330E+02  0.13336873861E+03  0.19238973748E+03  0.00000000000E+00 0.  1.
</event>
<event>
12    1  0.8344842E-002  0.2265365E+03  0.7818608E-02  0.1129428E+00
         21   -1    0    0  501  502  0.00000000000E+00  0.00000000000E+00  0.18120113512E+04  0.18120113512E+04  0.00000000000E+00 0. -1.
         21   -1    0    0  502  503 -0.00000000000E+00 -0.00000000000E+00 -0.28806735314E+02  0.28806735314E+02  0.00000000000E+00 0. -1.
         -6    2    1    2    0  503 -0.13495167654E+03 -0.50183199285E+02  0.74347056815E+03  0.77669135638E+03  0.17254178878E+03 0.  0.
        -24    2    3    3    0    0 -0.85642375152E+02 -0.68192050172E+02  0.68239998203E+03  0.69602269826E+03  0.82420197113E+02 0.  0.
          6    2    1    2  501    0  0.13495167654E+03  0.50183199285E+02  0.10397340478E+04  0.10641267302E+04  0.17489568114E+03 0.  0.
         24    2    5    5    0    0  0.10416809723E+03  0.70595852133E+02  0.46909932826E+03  0.49227851756E+03  0.80306863112E+02 0.  0.
          5    1    5    5  501    0  0.30783579307E+02 -0.20412652848E+02  0.57063471951E+03  0.57184821261E+03  0.47000000000E+01 0. -1.
        -13    1    6    6    0    0  0.66230509463E+02  0.80146353271E+02  0.26905995880E+03  0.28844961390E+03  0.00000000000E+00 0.  1.
         14    1    6    6    0    0  0.37937587767E+02 -0.95505011386E+01  0.20003936946E+03  0.20382890367E+03  0.00000000000E+00 0. -1.
         -5    1    3    3    0  503 -0.49309301385E+02  0.18008850887E+02  0.61070586127E+02  0.80668658123E+02  0.47000000000E+01 0.  1.
         11    1    4    4    0    0  0.14774527093E+02 -0.20778190929E+02  0.10599564799E+03  0.10901879316E+03  0.00000000000E+00 0. -1.
        -12    1    4    4    0    0 -0.10041690225E+03 -0.47413859243E+02  0.57640433404E+03  0.58700390510E+03  0.00000000000E+00 0.  1.
</event>
<event>
12    1  0.8344842E-002  0.2009701E+03  0.7818608E-02  0.1149332E+00
         21   -1    0    0  503  502  0.00000000000E+00  0.00000000000E+00  0.30710364833E+03  0.30710364833E+03  0.00000000000E+00 0. -1.
         21   -1    0    0  501  503 -0.00000000000E+00 -0.00000000000E+00 -0.13118018567E+03  0.13118018567E+03  0.00000000000E+00 0. -1.
          6    2    1    2  501    0  0.63782009894E+02  0.74420674096E+02  0.69910004905E+02  0.21278252332E+03  0.17544917192E+03 0.  0.
         24    2    3    3    0    0 -0.82996171073E+01 -0.24343144835E+01  0.72677310261E+02  0.10727329055E+03  0.78426767803E+02 0.  0.
         -6    2    1    2    0  502 -0.63782009894E+02 -0.74420674096E+02  0.10601345776E+03  0.22550131068E+03  0.17322068691E+03 0.  0.
        -24    2    5    5    0    0 -0.95751580176E+02 -0.57803678993E+02  0.12220397968E+03  0.18572190709E+03  0.83959417057E+02 0.  0.
          5    1    3    3  501    0  0.72081627001E+02  0.76854988580E+02 -0.27673053561E+01  0.10550923277E+03  0.47000000000E+01 0. -1.
        -11    1    4    4    0    0 -0.16762530389E+02  0.53034832302E+01  0.87094782505E+02  0.88851620689E+02  0.00000000000E+00 0.  1.
         12    1    4    4    0    0  0.84629132816E+01 -0.77377977138E+01 -0.14417472244E+02  0.18421669864E+02  0.00000000000E+00 0. -1.
         -5    1    5    5    0  502  0.31969570282E+02 -0.16616995103E+02 -0.16190521920E+02  0.39779403594E+02  0.47000000000E+01 0.  1.
         11    1    6    6    0    0 -0.52630433339E+02 -0.75373014672E+02  0.68508852296E+02  0.11464953858E+03  0.00000000000E+00 0. -1.
        -12    1    6    6    0    0 -0.43121146838E+02  0.17569335679E+02  0.53695127381E+02  0.71072368508E+02  0.00000000000E+00 0.  1.
</event>
<event>
12    1  0.8344842E-002  0.3654878E+03  0.7818608E-02  0.1056791E+00
         21   -1    0    0  501  502  0.00000000000E+00  0.00000000000E+00  0.61379466150E+03  0.61379466150E+03  0.00000000000E+00 0.  1.
         21   -1    0    0  502  503 -0.00000000000E+00 -0.00000000000E+00 -0.21616055044E+03  0.21616055044E+03  0.00000000000E+00 0. -1.
         -6    2    1    2    0  503  0.29803080805E+03  0.12207608884E+03  0.17397378798E+03  0.40146337023E+03  0.16486668771E+03 0.  0.
        -24    2    3    3    0    0  0.19837103899E+03  0.22132437056E+02  0.70377566320E+02  0.22632037081E+03  0.80168538243E+02 0.  0.
          6    2    1    2  501    0 -0.29803080805E+03 -0.12207608884E+03  0.22366032307E+03  0.42849184171E+03  0.17279000052E+03 0.  0.
         24    2    5    5    0    0 -0.24587061083E+03 -0.13950782254E+03  0.13345312418E+03  0.32273750257E+03  0.80218260962E+02 0.  0.
          5    1    5    5  501    0 -0.52160197220E+02  0.17431733701E+02  0.90207198897E+02  0.10575433914E+03  0.47000000000E+01 0. -1.
        -13    1    6    6    0    0 -0.48440048577E+02  0.13435869167E+01  0.61944014065E+01  0.48852984973E+02  0.00000000000E+00 0.  1.
         14    1    6    6    0    0 -0.19743056226E+03 -0.14085140946E+03  0.12725872277E+03  0.27388451760E+03  0.00000000000E+00 0. -1.
         -5    1    3    3    0  503  0.99659769062E+02  0.99943651787E+02  0.10359622166E+03  0.17514299942E+03  0.47000000000E+01 0.  1.
         13    1    4    4    0    0  0.13535878190E+03  0.52459509033E+02  0.47699016453E+02  0.15280443742E+03  0.00000000000E+00 0. -1.
        -14    1    4    4    0    0  0.63012257095E+02 -0.30327071977E+02  0.22678549867E+02  0.73515933395E+02  0.00000000000E+00 0.  1.
</event>
<event>
12    1  0.8344842E-002  0.1938211E+03  0.7818608E-02  0.1155333E+00
         21   -1    0    0  501  502  0.00000000000E+00  0.00000000000E+00  0.50949079114E+02  0.50949079114E+02  0.00000000000E+00 0. -1.
         21   -1    0    0  502  503 -0.00000000000E+00 -0.00000000000E+00 -0.84766020879E+03  0.84766020879E+03  0.00000000000E+00 0. -1.
         -6    2    1    2    0  503  0.91110264713E+01  0.88133528403E+02 -0.56277204920E+03  0.59480980819E+03  0.17098479152E+03 0.  0.
        -24    2    3    3    0    0 -0.20917775450E+02  0.15364162374E+02 -0.44420035077E+03  0.45240739513E+03  0.81761168844E+02 0.  0.
          6    2    1    2  501    0 -0.91110264713E+01 -0.88133528403E+02 -0.23393908048E+03  0.30379947971E+03  0.17238358642E+03 0.  0.
         24    2    5    5    0    0 -0.11314981978E+02  0.25025613731E+02 -0.84664126384E+02  0.11640964331E+03  0.75025866199E+02 0.  0.
          5    1    5    5  501    0  0.22039555064E+01 -0.11315914213E+03 -0.14927495409E+03  0.18738983640E+03  0.47000000000E+01 0. -1.
        -11    1    6    6    0    0 -0.29647773230E+02  0.34226183272E+02 -0.21746388984E+02  0.50232733479E+02  0.00000000000E+00 0.  1.
         12    1    6    6    0    0  0.18332791252E+02 -0.92005695418E+01 -0.62917737400E+02  0.66176909829E+02  0.00000000000E+00 0. -1.
         -5    1    3    3    0  503  0.30028801922E+02  0.72769366029E+02 -0.11857169843E+03  0.14240241306E+03  0.47000000000E+01 0.  1.
         11    1    4    4    0    0 -0.32216182951E+02 -0.99206203714E+01 -0.75679252506E+02  0.82847150900E+02  0.00000000000E+00 0. -1.
        -12    1    4    4    0    0  0.11298407501E+02  0.25284782746E+02 -0.36852109826E+03  0.36956024423E+03  0.00000000000E+00 0.  1.
</event>
<event>
12    1  0.8344842E-002  0.2053672E+03  0.7818608E-02  0.1146579E+00
         21   -1    0    0  503  502  0.00000000000E+00  0.00000000000E+00  0.33178842721E+03  0.33178842721E+03  0.00000000000E+00 0.  1.
         21   -1    0    0  501  503 -0.00000000000E+00 -0.00000000000E+00 -0.14038946372E+03  0.14038946372E+03  0.00000000000E+00 0. -1.
          6    2    1    2  501    0  0.58643576871E+02  0.82156320329E+02  0.12015382801E+02  0.19949827501E+03  0.17165798039E+03 0.  0.
         24    2    3    3    0    0  0.63034217076E+02  0.15659355849E+02 -0.44935884581E+02  0.11171068555E+03  0.79003263194E+02 0.  0.
         -6    2    1    2    0  502 -0.58643576871E+02 -0.82156320329E+02  0.17938358068E+03  0.27267961592E+03  0.17884902527E+03 0.  0.
        -24    2    5    5    0    0 -0.54423149099E+02 -0.13650197237E+02  0.17476546087E+02  0.96762366159E+02  0.76872093761E+02 0.  0.
          5    1    3    3  501    0 -0.43906402051E+01  0.66496964480E+02  0.56951267382E+02  0.87787589459E+02  0.47000000000E+01 0. -1.
        -11    1    4    4    0    0 -0.17430911623E+02 -0.60703969850E+01 -0.12408331394E+02  0.22240797818E+02  0.00000000000E+00 0.  1.
         12    1    4    4    0    0  0.80465128699E+02  0.21729752834E+02 -0.32527553187E+02  0.89469887734E+02  0.00000000000E+00 0. -1.
         -5    1    5    5    0  502 -0.42204277721E+01 -0.68506123092E+02  0.16190703460E+03  0.17591724976E+03  0.47000000000E+01 0.  1.
         11    1    6    6    0    0 -0.22162851657E+02 -0.42747875581E+02  0.22274496019E+02  0.53053991680E+02  0.00000000000E+00 0. -1.
        -12    1    6    6    0    0 -0.32260297442E+02  0.29097678344E+02 -0.47979499311E+01  0.43708374479E+02  0.00000000000E+00 0.  1.
</event>
<event>
12    1  0.8344842E-002  0.3188626E+03  0.7818608E-02  0.1076194E+00
         21   -1    0    0  503  502  0.00000000000E+00  0.00000000000E+00  0.26172884993E+03  0.26172884993E+03  0.00000000000E+00 0.  1.
         21   -1    0    0  501  503 -0.00000000000E+00 -0.00000000000E+00 -0.72430206891E+03  0.72430206891E+03  0.00000000000E+00 0. -1.
          6    2    1    2  501    0  0.22922435132E+03 -0.13936906691E+03 -0.56713582375E+03  0.65062770072E+03  0.17235377083E+03 0.  0.
         24    2    3    3    0    0  0.59461447683E+02 -0.10145302986E+03 -0.20419462218E+03  0.24812866331E+03  0.77743223517E+02 0.  0.
         -6    2    1    2    0  502 -0.22922435132E+03  0.13936906691E+03  0.10456260478E+03  0.33540321811E+03  0.17203034719E+03 0.  0.
        -24    2    5    5    0    0 -0.14819032268E+03  0.11828013135E+03  0.13493535323E+03  0.24620764172E+03  0.80374698015E+02 0.  0.
          5    1    3    3  501    0  0.16976290363E+03 -0.37916037050E+02 -0.36294120157E+03  0.40249903741E+03  0.47000000000E+01 0. -1.
        -11    1    4    4    0    0  0.91189220190E-01  0.66112845427E+01 -0.51242344316E+02  0.51667158329E+02  0.00000000000E+00 0.  1.
         12    1    4    4    0    0  0.59370258463E+02 -0.10806431441E+03 -0.15295227786E+03  0.19646150499E+03  0.00000000000E+00 0. -1.
         -5    1    5    5    0  502 -0.81034028634E+02  0.21088935560E+02 -0.30372748453E+02  0.89195576394E+02  0.47000000000E+01 0.  1.
         13    1    6    6    0    0 -0.78894941479E+02  0.13119982775E+02  0.54148496631E+02  0.96584705965E+02  0.00000000000E+00 0. -1.
        -14    1    6    6    0    0 -0.69295381204E+02  0.10516014858E+03  0.80786856599E+02  0.14962293576E+03  0.00000000000E+00 0.  1.
</event>
<event>
12    1  0.8344842E-002  0.2197835E+03  0.7818608E-02  0.1134062E+00
         21   -1    0    0  501  502  0.00000000000E+00  0.00000000000E+00  0.42819778861E+03  0.42819778861E+03  0.00000000000E+00 0. -1.
         21   -1    0    0  502  503 -0.00000000000E+00 -0.00000000000E+00 -0.41777246569E+03  0.41777246569E+03  0.00000000000E+00 0. -1.
         -6    2    1    2    0  503  0.78000648677E+02  0.11419974924E+03 -0.35620767119E+03  0.41855547872E+03  0.17081890946E+03 0.  0.
        -24    2    3    3    0    0  0.82532629001E+02  0.71250632736E+02 -0.12792892563E+03  0.18617983213E+03  0.80055183236E+02 0.  0.
          6    2    1    2  501    0 -0.78000648677E+02 -0.11419974924E+03  0.36663299411E+03  0.42741477558E+03  0.17069843027E+03 0.  0.
         24    2    5    5    0    0  0.23808546933E+02 -0.49488271592E+02  0.10026549444E+03  0.13496576716E+03  0.71740177001E+02 0.  0.
          5    1    5    5  501    0 -0.10180919561E+03 -0.64711477644E+02  0.26636749967E+03  0.29244900843E+03  0.47000000000E+01 0. -1.
        -13    1    6    6    0    0  0.27187310409E+02 -0.18074255763E+02  0.31016869462E+01  0.32794039559E+02  0.00000000000E+00 0.  1.
         14    1    6    6    0    0 -0.33787634766E+01 -0.31414015829E+02  0.97163807496E+02  0.10217172760E+03  0.00000000000E+00 0. -1.
         -5    1    3    3    0  503 -0.45319803246E+01  0.42949116500E+02 -0.22827874556E+03  0.23237564659E+03  0.47000000000E+01 0.  1.
         11    1    4    4    0    0  0.39479823549E+02  0.34351707847E+02 -0.11736319112E+03  0.12850219815E+03  0.00000000000E+00 0. -1.
        -12    1    4    4    0    0  0.43052805452E+02  0.36898924889E+02 -0.10565734508E+02  0.57677633975E+02  0.00000000000E+00 0.  1.
</event>
<event>
12    1  0.8344842E-002  0.1865622E+03  0.7818608E-02  0.1161665E+00
         21   -1    0    0  501  502  0.00000000000E+00  0.00000000000E+00  0.44577581098E+03  0.44577581098E+03  0.00000000000E+00 0. -1.
         21   -1    0    0  502  503 -0.00000000000E+00 -0.00000000000E+00 -0.84289001106E+02  0.84289001106E+02  0.00000000000E+00 0. -1.
         -6    2    1    2    0  503 -0.28849056163E+02  0.65843745768E+02  0.10799082062E+03  0.21531779387E+03  0.17184896893E+03 0.  0.
        -24    2    3    3    0    0  0.24313967225E+02 -0.56266100825E+01  0.11529919377E+02  0.83936233944E+02  0.79306522963E+02 0.  0.
          6    2    1    2  501    0  0.28849056163E+02 -0.65843745768E+02  0.25349598926E+03  0.31474701822E+03  0.17215633014E+03 0.  0.
         24    2    5    5    0    0 -0.44591954511E+02 -0.22784041936E+02  0.18012471718E+03  0.20226078035E+03  0.77181309623E+02 0.  0.
          5    1    5    5  501    0  0.73441010673E+02 -0.43059703831E+02  0.73371272080E+02  0.11248623787E+03  0.47000000000E+01 0. -1.
        -13    1    6    6    0    0 -0.61558672978E+02 -0.45300137635E+01  0.92829095872E+02  0.11147749676E+03  0.00000000000E+00 0.  1.
         14    1    6    6    0    0  0.16966718467E+02 -0.18254028173E+02  0.87295621306E+02  0.90783283590E+02  0.00000000000E+00 0. -1.
         -5    1    3    3    0  503 -0.53163023388E+02  0.71470355850E+02  0.96460901243E+02  0.13138155993E+03  0.47000000000E+01 0.  1.
         13    1    4    4    0    0  0.94203768538E+01  0.18371573661E+02 -0.28347879497E+02  0.35069366844E+02  0.00000000000E+00 0. -1.
        -14    1    4    4    0    0  0.14893590371E+02 -0.23998183743E+02  0.39877798874E+02  0.48866867100E+02  0.00000000000E+00 0.  1.
</event>
<event>
12    1  0.8344842E-002  0.2327064E+03  0.7818608E-02  0.1125103E+00
         21   -1    0    0  503  502  0.00000000000E+00  0.00000000000E+00  0.11975209622E+03  0.11975209622E+03  0.00000000000E+00 0.  1.
         21   -1    0    0  501  503 -0.00000000000E+00 -0.00000000000E+00 -0.67438593201E+03  0.67438593201E+03  0.00000000000E+00 0. -1.
          6    2    1    2  501    0  0.70266786842E+02 -0.13732668439E+03 -0.50642979838E+03  0.55649148283E+03  0.17150973792E+03 0.  0.
         24    2    3    3    0    0  0.11013437543E+03 -0.12854392507E+03 -0.37773657575E+03  0.42139671228E+03  0.78975611004E+02 0.  0.
         -6    2    1    2    0  502 -0.70266786842E+02  0.13732668439E+03 -0.48204037418E+02  0.23764654540E+03  0.17423034103E+03 0.  0.
        -24    2    5    5    0    0 -0.59188418159E+02  0.75511317738E+01 -0.40617625067E+02  0.10709361374E+03  0.79113603150E+02 0.  0.
          5    1    3    3  501    0 -0.39867588590E+02 -0.87827593201E+01 -0.12869322263E+03  0.13509477055E+03  0.47000000000E+01 0. -1.
        -11    1    4    4    0    0  0.10059197955E+03 -0.12677317461E+03 -0.37851544582E+03  0.41166020803E+03  0.00000000000E+00 0.  1.
         12    1    4    4    0    0  0.95423958783E+01 -0.17707504640E+01  0.77887007313E+00  0.97365042441E+01  0.00000000000E+00 0. -1.
         -5    1    5    5    0  502 -0.11078368683E+02  0.12977555262E+03 -0.75864123504E+01  0.13055293165E+03  0.47000000000E+01 0.  1.
         13    1    6    6    0    0 -0.31831744138E+02 -0.13849186036E+02 -0.58502604250E+02  0.68026572696E+02  0.00000000000E+00 0. -1.
        -14    1    6    6    0    0 -0.27356674021E+02  0.21400317810E+02  0.17884979183E+02  0.39067041048E+02  0.00000000000E+00 0.  1.
</event>
<event>
12    1  0.8344842E-002  0.2240107E+03  0.7818608E-02  0.1131409E+00
         21   -1    0    0  501  502  0.00000000000E+00  0.00000000000E+00  0.79639097153E+02  0.79639097153E+02  0.00000000000E+00 0.  1.
         21   -1    0    0  502  503 -0.00000000000E+00 -0.00000000000E+00 -0.71067960778E+03  0.71067960778E+03  0.00000000000E+00 0.  1.
         -6    2    1    2    0  503  0.52736655261E+02  0.12981503075E+03 -0.17488398650E+03  0.28212625797E+03  0.17139929895E+03 0.  0.
        -24    2    3    3    0    0  0.35214931626E+02  0.13072994381E+03 -0.63327052526E+02  0.16910021060E+03  0.79083222146E+02 0.  0.
          6    2    1    2  501    0 -0.52736655261E+02 -0.12981503075E+03 -0.45615652412E+03  0.50819244696E+03  0.17477897938E+03 0.  0.
         24    2    5    5    0    0 -0.12537321522E+02 -0.67470822773E+02 -0.92819531450E+02  0.13733041474E+03  0.74395436938E+02 0.  0.
          5    1    5    5  501    0 -0.40199333738E+02 -0.62344207978E+02 -0.36333699267E+03  0.37086203222E+03  0.47000000000E+01 0. -1.
        -13    1    6    6    0    0 -0.26603223121E+02 -0.49226993664E+02 -0.98786743781E+02  0.11353347142E+03  0.00000000000E+00 0.  1.
         14    1    6    6    0    0  0.14065901599E+02 -0.18243829109E+02  0.59672123312E+01  0.23796943320E+02  0.00000000000E+00 0. -1.
         -5    1    3    3    0  503  0.17521723635E+02 -0.91491306067E+00 -0.11155693398E+03  0.11302604737E+03  0.47000000000E+01 0.  1.
         11    1    4    4    0    0  0.64044685964E+01 -0.10411486171E+02 -0.88519073738E+01  0.15092134589E+02  0.00000000000E+00 0. -1.
        -12    1    4    4    0    0  0.28810463030E+02  0.14114142998E+03 -0.54475145153E+02  0.15400807601E+03  0.00000000000E+00 0.  1.
</event>
<event>
12    1  0.8344842E-002  0.1800839E+03  0.7818608E-02  0.1167783E+00
         21   -1    0    0  503  502  0.00000000000E+00  0.00000000000E+00  0.37485230741E+03  0.37485230741E+03  0.00000000000E+00 0. -1.
         21   -1    0    0  501  503 -0.00000000000E+00 -0.00000000000E+00 -0.11725511644E+03  0.11725511644E+03  0.00000000000E+00 0. -1.
          6    2    1    2  501    0  0.49797207055E+02 -0.18569277764E+02  0.26320000516E+01  0.18010312469E+03  0.17206286116E+03 0.  0.
         24    2    3    3    0    0  0.97086176506E+01 -0.72894171749E+02  0.17394527394E+02  0.11083328045E+03  0.81077918949E+02 0.  0.
         -6    2    1    2    0  502 -0.49797207055E+02  0.18569277764E+02  0.25496519092E+03  0.31200429917E+03  0.17179887722E+03 0.  0.
        -24    2    5    5    0    0 -0.87685256572E+01 -0.36514983402E+02  0.64596546983E+02  0.10956927473E+03  0.80140383255E+02 0.  0.
          5    1    3    3  501    0  0.40088589404E+02  0.54324893985E+02 -0.14762527342E+02  0.69269844235E+02  0.47000000000E+01 0. -1.
        -11    1    4    4    0    0 -0.34138679080E+02 -0.40007273599E+02 -0.21656102878E+01  0.52637640696E+02  0.00000000000E+00 0.  1.
         12    1    4    4    0    0  0.43847296731E+02 -0.32886898150E+02  0.19560137681E+02  0.58195639756E+02  0.00000000000E+00 0. -1.
         -5    1    5    5    0  502 -0.41028681398E+02  0.55084261166E+02  0.19036864393E+03  0.20243502444E+03  0.47000000000E+01 0.  1.
         13    1    6    6    0    0 -0.11560305773E+02 -0.24681293592E+02  0.83085107474E+02  0.87441077343E+02  0.00000000000E+00 0. -1.
        -14    1    6    6    0    0  0.27917801162E+01 -0.11833689810E+02 -0.18488560490E+02  0.22128197390E+02  0.00000000000E+00 0.  1.
</event>
<event>
12    1  0.8344842E-002  0.2457536E+03  0.7818608E-02  0.1117302E+00
         21   -1    0    0  503  502  0.00000000000E+00  0.00000000000E+00  0.52380357438E+03  0.52380357438E+03  0.00000000000E+00 0.  1.
         21   -1    0    0  501  503 -0.00000000000E+00 -0.00000000000E+00 -0.13507934000E+03  0.13507934000E+03  0.00000000000E+00 0.  1.
          6    2    1    2  501    0  0.15649356228E+03 -0.16730378859E+02  0.33410237406E+03  0.41475199877E+03  0.18874502249E+03 0.  0.
         24    2    3    3    0    0  0.17144095176E+03 -0.53625421864E+02  0.22604418670E+03  0.29949866690E+03  0.79597684159E+02 0.  0.
         -6    2    1    2    0  502 -0.15649356228E+03  0.16730378859E+02  0.54621860321E+02  0.24413091562E+03  0.17845508040E+03 0.  0.
        -24    2    5    5    0    0 -0.17785273878E+03  0.41939654132E+02  0.64443674747E+02  0.20934183660E+03  0.79249517712E+02 0.  0.
          5    1    3    3  501    0 -0.14947389476E+02  0.36895043004E+02  0.10805818736E+03  0.11525333187E+03  0.47000000000E+01 0. -1.
        -11    1    4    4    0    0  0.33858646104E+02 -0.35803268825E+02  0.25061134098E+02  0.55284196809E+02  0.00000000000E+00 0.  1.
         12    1    4    4    0    0  0.13758230566E+03 -0.17822153039E+02  0.20098305260E+03  0.24421447009E+03  0.00000000000E+00 0. -1.
         -5    1    5    5    0  502  0.21359176492E+02 -0.25209275273E+02 -0.98218144262E+01  0.34789079017E+02  0.47000000000E+01 0.  1.
         13    1    6    6    0    0  0.40402486208E+01 -0.88737869110E+01  0.67858705816E+01  0.11879214730E+02  0.00000000000E+00 0. -1.
        -14    1    6    6    0    0 -0.18189298740E+03  0.50813441043E+02  0.57657804165E+02  0.19746262187E+03  0.00000000000E+00 0.  1.
</event>
<event>
12    1  0.8344842E-002  0.2162362E+03  0.7818608E-02  0.1136930E+00
         21   -1    0    0  501  502  0.00000000000E+00  0.00000000000E+00  0.36906456982E+03  0.36906456982E+03  0.00000000000E+00 0.  1.
         21   -1    0    0  502  503 -0.00000000000E+00 -0.00000000000E+00 -0.42969977041E+03  0.42969977041E+03  0.00000000000E+00 0.  1.
         -6    2    1    2    0  503  0.64386278204E+02  0.11241571969E+03 -0.36602542739E+03  0.42457015668E+03  0.17176238701E+03 0.  0.
        -24    2    3    3    0    0 -0.15637314046E+02  0.70970666910E+02 -0.27815764823E+03  0.29861657661E+03  0.80739218525E+02 0.  0.
          6    2    1    2  501    0 -0.64386278204E+02 -0.11241571969E+03  0.30539022680E+03  0.37419418355E+03  0.17313350201E+03 0.  0.
         24    2    5    5    0    0 -0.10518371344E+03 -0.59302366165E+02  0.17229669973E+03  0.22512562217E+03  0.80093750136E+02 0.  0.
          5    1    5    5  501    0  0.40797435236E+02 -0.53113353521E+02  0.13309352707E+03  0.14906856138E+03  0.47000000000E+01 0. -1.
        -13    1    6    6    0    0 -0.87941013320E+02 -0.49565545489E+02  0.74804315674E+02  0.12564255158E+03  0.00000000000E+00 0.  1.
         14    1    6    6    0    0 -0.17242700121E+02 -0.97368206759E+01  0.97492384059E+02  0.99483070589E+02  0.00000000000E+00 0. -1.
         -5    1    3    3    0  503  0.80023592251E+02  0.41445052777E+02 -0.87867779167E+02  0.12595358007E+03  0.47000000000E+01 0.  1.
         11    1    4    4    0    0  0.59169918680E+01  0.53732035662E+02 -0.69038035547E+02  0.87683480778E+02  0.00000000000E+00 0. -1.
        -12    1    4    4    0    0 -0.21554305914E+02  0.17238631248E+02 -0.20911961268E+03  0.21093309583E+03  0.00000000000E+00 0.  1.
</event>
<event>
12    1  0.8344842E-002  0.1840038E+03  0.7818608E-02  0.1164030E+00
         21   -1    0    0  503  502  0.00000000000E+00  0.00000000000E+00  0.58123615693E+02  0.58123615693E+02  0.00000000000E+00 0. -1.
         21   -1    0    0  501  503 -0.00000000000E+00 -0.00000000000E+00 -0.58189032063E+03  0.58189032063E+03  0.00000000000E+00 0. -1.
          6    2    1    2  501    0 -0.58962894112E+02  0.30813798217E+02 -0.26332241116E+03  0.32124146312E+03  0.17155544983E+03 0.  0.
         24    2    3    3    0    0 -0.44296539815E+01 -0.18250379707E+02 -0.21568322684E+03  0.23364722977E+03  0.87858269062E+02 0.  0.
         -6    2    1    2    0  502  0.58962894112E+02 -0.30813798217E+02 -0.26044429378E+03  0.31877247320E+03  0.17134335840E+03 0.  0.
        -24    2    5    5    0    0 -0.89492118469E+01 -0.32608644379E+02 -0.22592281195E+03  0.24242394135E+03  0.81147016580E+02 0.  0.
          5    1    3    3  501    0 -0.54533240130E+02  0.49064177924E+02 -0.47639184315E+02  0.87594233353E+02  0.47000000000E+01 0. -1.
        -13    1    4    4    0    0  0.24454818340E+02 -0.42466770030E+02 -0.90546364427E+02  0.10295682983E+03  0.00000000000E+00 0.  1.
         14    1    4    4    0    0 -0.28884472321E+02  0.24216390323E+02 -0.12513686242E+03  0.13069039994E+03  0.00000000000E+00 0. -1.
         -5    1    5    5    0  502  0.67912105959E+02  0.17948461617E+01 -0.34521481831E+02  0.76348531854E+02  0.47000000000E+01 0.  1.
         13    1    6    6    0    0  0.43146428288E+01 -0.31574676052E+02 -0.23577745822E+02  0.39641977859E+02  0.00000000000E+00 0. -1.
        -14    1    6    6    0    0 -0.13263854676E+02 -0.10339683267E+01 -0.20234506612E+03  0.20278196349E+03  0.00000000000E+00 0.  1.
</event>
<event>
12    1  0.8344842E-002  0.2433660E+03  0.7818608E-02  0.1118270E+00
         21   -1    0    0  503  502  0.00000000000E+00  0.00000000000E+00  0.49154083264E+03  0.49154083264E+03  0.00000000000E+00 0.  1.
         21   -1    0    0  501  503 -0.00000000000E+00 -0.00000000000E+00 -0.27302915264E+03  0.27302915264E+03  0.00000000000E+00 0. -1.
          6    2    1    2  501    0  0.13556784352E+03  0.10444710242E+03 -0.17884356361E+03  0.29861057034E+03  0.16701920571E+03 0.  0.
         24    2    3    3    0    0 -0.12342750234E+01  0.31206926199E+02 -0.52414230715E+02  0.98397161036E+02  0.77196852532E+02 0.  0.
         -6    2    1    2    0  502 -0.13556784352E+03 -0.10444710242E+03  0.39735524361E+03  0.46595941494E+03  0.17302933088E+03 0.  0.
        -24    2    5    5    0    0 -0.12402692358E+03 -0.60266842847E+02  0.38700070604E+03  0.41890206039E+03  0.81820655087E+02 0.  0.
          5    1    3    3  501    0  0.13680211854E+03  0.73240176221E+02 -0.12642933289E+03  0.20021340931E+03  0.47000000000E+01 0. -1.
        -11    1    4    4    0    0 -0.13286618625E+02  0.50190104641E+02 -0.13814411949E+02  0.53725401961E+02  0.00000000000E+00 0.  1.
         12    1    4    4    0    0  0.12052343601E+02 -0.18983178442E+02 -0.38599818766E+02  0.44671759075E+02  0.00000000000E+00 0. -1.
         -5    1    5    5    0  502 -0.11540919938E+02 -0.44180259573E+02  0.10354537563E+02  0.47057354548E+02  0.47000000000E+01 0.  1.
         13    1    6    6    0    0 -0.40406650759E+02 -0.37220875749E+02  0.63458829632E+02  0.83935177818E+02  0.00000000000E+00 0. -1.
        -14    1    6    6    0    0 -0.83620272823E+02 -0.23045967098E+02  0.32354187641E+03  0.33496688257E+03  0.00000000000E+00 0.  1.
</event>
<event>
12    1  0.8344842E-002  0.1865142E+03  0.7818608E-02  0.1162106E+00
         21   -1    0    0  503  502  0.00000000000E+00  0.00000000000E+00  0.14131524920E+03  0.14131524920E+03  0.00000000000E+00 0.  1.
         21   -1    0    0  501  503 -0.00000000000E+00 -0.00000000000E+00 -0.31466433717E+03  0.31466433717E+03  0.00000000000E+00 0.  1.
          6    2    1    2  501    0  0.16139664412E+02 -0.68984148867E+02 -0.19542084157E+03  0.27014228804E+03  0.17253477592E+03 0.  0.
         24    2    3    3    0    0  0.24691428852E+02 -0.52730591918E+02 -0.28763062171E+02  0.10240971451E+03  0.79184934785E+02 0.  0.
         -6    2    1    2    0  502 -0.16139664412E+02  0.68984148867E+02  0.22071753600E+02  0.18583729834E+03  0.17037909961E+03 0.  0.
        -24    2    5    5    0    0  0.15050487153E+02 -0.32965453653E+02 -0.17248870634E+02  0.72106262564E+02  0.59904517898E+02 0.  0.
          5    1    3    3  501    0 -0.85517644402E+01 -0.16253556949E+02 -0.16665777940E+03  0.16773257353E+03  0.47000000000E+01 0. -1.
        -11    1    4    4    0    0  0.17806158696E+02 -0.40890795870E+02 -0.56198649996E+02  0.71745416131E+02  0.00000000000E+00 0.  1.
         12    1    4    4    0    0  0.68852701562E+01 -0.11839796047E+02  0.27435587825E+02  0.30664298375E+02  0.00000000000E+00 0. -1.
         -5    1    5    5    0  502 -0.31190151564E+02  0.10194960252E+03  0.39320624234E+02  0.11373103578E+03  0.47000000000E+01 0.  1.
         13    1    6    6    0    0 -0.17343376232E+02 -0.15051000816E+02  0.11076069291E+02  0.25495188480E+02  0.00000000000E+00 0. -1.
        -14    1    6    6    0    0  0.32393863385E+02 -0.17914452838E+02 -0.28324939925E+02  0.46611074083E+02  0.00000000000E+00 0.  1.
</event>
<event>
12    1  0.8344842E-002  0.1860672E+03  0.7818608E-02  0.1163122E+00
         21   -1    0    0  501  502  0.00000000000E+00  0.00000000000E+00  0.96585956522E+03  0.96585956522E+03  0.00000000000E+00 0. -1.
         21   -1    0    0  502  503 -0.00000000000E+00 -0.00000000000E+00 -0.46932140805E+02  0.46932140805E+02  0.00000000000E+00 0. -1.
         -6    2    1    2    0  503 -0.38153125495E+02  0.52966974669E+02  0.20811206730E+03  0.27916236998E+03  0.17424073826E+03 0.  0.
        -24    2    3    3    0    0 -0.25065236921E+02 -0.14616557209E+02  0.32327939963E+02  0.90321230314E+02  0.79189134966E+02 0.  0.
          6    2    1    2  501    0  0.38153125495E+02 -0.52966974669E+02  0.71081535712E+03  0.73362933604E+03  0.16938822096E+03 0.  0.
         24    2    5    5    0    0  0.58764446899E+02  0.24133480799E+02  0.41762466962E+03  0.42973432780E+03  0.78902108310E+02 0.  0.
          5    1    5    5  501    0 -0.20611321404E+02 -0.77100455468E+02  0.29319068749E+03  0.30389500825E+03  0.47000000000E+01 0. -1.
        -13    1    6    6    0    0  0.37928043864E+02 -0.96859324539E+01  0.73048109816E+02  0.82875690926E+02  0.00000000000E+00 0.  1.
         14    1    6    6    0    0  0.20836403035E+02  0.33819413253E+02  0.34457655981E+03  0.34685863687E+03  0.00000000000E+00 0. -1.
         -5    1    3    3    0  503 -0.13087888574E+02  0.67583531878E+02  0.17578412734E+03  0.18884113967E+03  0.47000000000E+01 0.  1.
         13    1    4    4    0    0  0.10457495898E+02 -0.17852151641E+02 -0.18816705240E+02  0.27966532405E+02  0.00000000000E+00 0. -1.
        -14    1    4    4    0    0 -0.35522732819E+02  0.32355944328E+01  0.51144645204E+02  0.62354697908E+02  0.00000000000E+00 0.  1.
</event>
<event>
12    1  0.8344842E-002  0.1752295E+03  0.7818608E-02  0.1173030E+00
         21   -1    0    0  503  502  0.00000000000E+00  0.00000000000E+00  0.11131829328E+04  0.11131829328E+04  0.00000000000E+00 0.  1.
         21   -1    0    0  501  503 -0.00000000000E+00 -0.00000000000E+00 -0.34065980587E+02  0.34065980587E+02  0.00000000000E+00 0. -1.
          6    2    1    2  501    0  0.19679076360E+02  0.53932698110E+01  0.79864622560E+03  0.81764366579E+03  0.17403740154E+03 0.  0.
         24    2    3    3    0    0  0.36975934331E+02  0.27361269519E+02  0.77588813921E+03  0.78128716976E+03  0.79318209065E+02 0.  0.
         -6    2    1    2    0  502 -0.19679076360E+02 -0.53932698110E+01  0.28047072659E+03  0.32960524758E+03  0.17192858212E+03 0.  0.
        -24    2    5    5    0    0 -0.37022851715E+02  0.33671887931E+02  0.26929991204E+03  0.28517811408E+03  0.79370186717E+02 0.  0.
          5    1    3    3  501    0 -0.17296857970E+02 -0.21967999708E+02  0.22758086390E+02  0.36356496021E+02  0.47000000000E+01 0. -1.
        -11    1    4    4    0    0  0.21931812070E+02 -0.71181709883E+01  0.63633486135E+03  0.63675248606E+03  0.00000000000E+00 0.  1.
         12    1    4    4    0    0  0.15044122260E+02  0.34479440507E+02  0.13955327786E+03  0.14453468370E+03  0.00000000000E+00 0. -1.
         -5    1    5    5    0  502  0.17343775354E+02 -0.39065157742E+02  0.11170814551E+02  0.44427133496E+02  0.47000000000E+01 0.  1.
         11    1    6    6    0    0  0.24969281876E+02  0.88430935842E+01  0.63106762930E+02  0.68440696000E+02  0.00000000000E+00 0. -1.
        -12    1    6    6    0    0 -0.61992133590E+02  0.24828794346E+02  0.20619314911E+03  0.21673741808E+03  0.00000000000E+00 0.  1.
</event>
<event>
12    1  0.8344842E-002  0.2462679E+03  0.7818608E-02  0.1115758E+00
         21   -1    0    0  503  502  0.00000000000E+00  0.00000000000E+00  0.40313538432E+03  0.40313538432E+03  0.00000000000E+00 0.  1.
         21   -1    0    0  501  503 -0.00000000000E+00 -0.00000000000E+00 -0.18371468595E+03  0.18371468595E+03  0.00000000000E+00 0.  1.
          6    2    1    2  501    0  0.13613737036E+03 -0.11155349659E+03  0.23517134227E+03  0.34051938573E+03  0.17225076379E+03 0.  0.
         24    2    3    3    0    0  0.13576236096E+03 -0.65382675239E+02  0.23918762527E+03  0.29393499021E+03  0.80503077691E+02 0.  0.
         -6    2    1    2    0  502 -0.13613737036E+03  0.11155349659E+03 -0.15750643901E+02  0.24633068453E+03  0.17161922138E+03 0.  0.
        -24    2    5    5    0    0 -0.10001454533E+03  0.90534930428E+02 -0.74928606482E+02  0.17373068545E+03  0.79803333839E+02 0.  0.
          5    1    3    3  501    0  0.37500939923E+00 -0.46170821356E+02 -0.40162829989E+01  0.46584395519E+02  0.47000000000E+01 0. -1.
        -13    1    4    4    0    0  0.10708017767E+03 -0.50720261752E+02  0.11310733898E+03  0.16380469936E+03  0.00000000000E+00 0.  1.
         14    1    4    4    0    0  0.28682183291E+02 -0.14662413487E+02  0.12608028629E+03  0.13013029086E+03  0.00000000000E+00 0. -1.
         -5    1    5    5    0  502 -0.36122825023E+02  0.21018566167E+02  0.59177962581E+02  0.72599999081E+02  0.47000000000E+01 0.  1.
         11    1    6    6    0    0  0.64932562697E+01  0.33969689340E+02 -0.68883384292E+01  0.35264023836E+02  0.00000000000E+00 0. -1.
        -12    1    6    6    0    0 -0.10650780160E+03  0.56565241089E+02 -0.68040268053E+02  0.13846666161E+03  0.00000000000E+00 0.  1.
</event>
<event>
12    1  0.8344842E-002  0.1775295E+03  0.7818608E-02  0.1170851E+00
         21   -1    0    0  501  502  0.00000000000E+00  0.00000000000E+00  0.14422747033E+03  0.14422747033E+03  0.00000000000E+00 0.  1.
         21   -1    0    0  502  503 -0.00000000000E+00 -0.00000000000E+00 -0.22059231156E+03  0.22059231156E+03  0.00000000000E+00 0.  1.
         -6    2    1    2    0  503 -0.21310577800E+02 -0.38926477489E+02 -0.66488667916E+02  0.18957177487E+03  0.17189329100E+03 0.  0.
        -24    2    3    3    0    0 -0.41890463756E+02  0.24389969943E+02 -0.76624498157E+01  0.10060482507E+03  0.87823323224E+02 0.  0.
          6    2    1    2  501    0  0.21310577800E+02  0.38926477489E+02 -0.98761733103E+01  0.17524800702E+03  0.16924808356E+03 0.  0.
         24    2    5    5    0    0  0.61112740663E+02  0.47915466990E+02  0.31919759709E+02  0.11664763059E+03  0.80976166948E+02 0.  0.
          5    1    5    5  501    0 -0.39802162864E+02 -0.89889895017E+01 -0.41795933020E+02  0.58600376431E+02  0.47000000000E+01 0. -1.
        -11    1    6    6    0    0  0.79446541055E+02  0.40261916413E+02  0.14527434505E+02  0.90243122464E+02  0.00000000000E+00 0.  1.
         12    1    6    6    0    0 -0.18333800392E+02  0.76535505775E+01  0.17392325204E+02  0.26404508124E+02  0.00000000000E+00 0. -1.
         -5    1    3    3    0  503  0.20579885956E+02 -0.63316447432E+02 -0.58826218100E+02  0.88966949803E+02  0.47000000000E+01 0.  1.
         13    1    4    4    0    0  0.12744955171E+01 -0.23421590951E+02 -0.24610945543E+02  0.33998439700E+02  0.00000000000E+00 0. -1.
        -14    1    4    4    0    0 -0.43164959273E+02  0.47811560894E+02  0.16948495728E+02  0.66606385367E+02  0.00000000000E+00 0.  1.
</event>
<event>
12    1  0.8344842E-002  0.1923894E+03  0.7818608E-02  0.1156505E+00
         21   -1    0    0  501  502  0.00000000000E+00  0.00000000000E+00  0.86511829124E+02  0.86511829124E+02  0.00000000000E+00 0.  1.
         21   -1    0    0  502  503 -0.00000000000E+00 -0.00000000000E+00 -0.55969705429E+03  0.55969705429E+03  0.00000000000E+00 0.  1.
         -6    2    1    2    0  503  0.70474603994E+02  0.46431770988E+02 -0.39410573987E+03  0.43820106317E+03  0.17198330848E+03 0.  0.
        -24    2    3    3    0    0 -0.16215292760E+02 -0.11858519557E+01 -0.24947608846E+03  0.26292299185E+03  0.81399256570E+02 0.  0.
          6    2    1    2  501    0 -0.70474603994E+02 -0.46431770988E+02 -0.79079485295E+02  0.20800782025E+03  0.17289045412E+03 0.  0.
         24    2    5    5    0    0  0.18305569652E+01  0.11008667269E+02  0.28078588154E+00  0.86157162106E+02  0.85430884624E+02 0.  0.
          5    1    5    5  501    0 -0.72305160959E+02 -0.57440438257E+02 -0.79360271177E+02  0.12185065814E+03  0.47000000000E+01 0. -1.
        -11    1    6    6    0    0 -0.17642061344E+02  0.74766545122E+01  0.38563620181E+02  0.43061531471E+02  0.00000000000E+00 0.  1.
         12    1    6    6    0    0  0.19472618309E+02  0.35320127572E+01 -0.38282834299E+02  0.43095630636E+02  0.00000000000E+00 0. -1.
         -5    1    3    3    0  503  0.86689896755E+02  0.47617622944E+02 -0.14462965142E+03  0.17527807131E+03  0.47000000000E+01 0.  1.
         13    1    4    4    0    0  0.22628336723E+02 -0.26795824110E+02 -0.83932444538E+02  0.90965449808E+02  0.00000000000E+00 0. -1.
        -14    1    4    4    0    0 -0.38843629483E+02  0.25609972154E+02 -0.16554364392E+03  0.17195754205E+03  0.00000000000E+00 0.  1.
</event>
<event>
12    1  0.8344842E-002  0.2431626E+03  0.7818608E-02  0.1118219E+00
         21   -1    0    0  501  502  0.00000000000E+00  0.00000000000E+00  0.80304741673E+03  0.80304741673E+03  0.00000000000E+00 0. -1.
         21   -1    0    0  502  503 -0.00000000000E+00 -0.00000000000E+00 -0.94564815360E+02  0.94564815360E+02  0.00000000000E+00 0.  1.
         -6    2    1    2    0  503  0.16910089978E+03 -0.17509244532E+02  0.13661469098E+03  0.27619371048E+03  0.16946298700E+03 0.  0.
        -24    2    3    3    0    0  0.99975394100E+02  0.31078475020E+02  0.13919110334E+03  0.19153067292E+03  0.79679886949E+02 0.  0.
          6    2    1    2  501    0 -0.16910089978E+03  0.17509244532E+02  0.57186791039E+03  0.62141852161E+03  0.17385736717E+03 0.  0.
         24    2    5    5    0    0 -0.11057615884E+03  0.59343640893E+02  0.49150634716E+03  0.51345865469E+03  0.79451533389E+02 0.  0.
          5    1    5    5  501    0 -0.58524740948E+02 -0.41834396361E+02  0.80361563232E+02  0.10795986693E+03  0.47000000000E+01 0. -1.
        -13    1    6    6    0    0 -0.67061476837E+02  0.49722105687E+02  0.17572066509E+03  0.19454377813E+03  0.00000000000E+00 0.  1.
         14    1    6    6    0    0 -0.43514682000E+02  0.96215352061E+01  0.31578568207E+03  0.31891487656E+03  0.00000000000E+00 0. -1.
         -5    1    3    3    0  503  0.69125505685E+02 -0.48587719552E+02 -0.25764123647E+01  0.84663037556E+02  0.47000000000E+01 0.  1.
         13    1    4    4    0    0  0.11277763092E+03  0.19833281751E+02  0.12223486035E+03  0.16749183319E+03  0.00000000000E+00 0. -1.
        -14    1    4    4    0    0 -0.12802236817E+02  0.11245193269E+02  0.16956242991E+02  0.24038839730E+02  0.00000000000E+00 0.  1.
</event>
<event>
12    1  0.8344842E-002  0.2208167E+03  0.7818608E-02  0.1136482E+00
         21   -1    0    0  503  502  0.00000000000E+00  0.00000000000E+00  0.52351056511E+03  0.52351056511E+03  0.00000000000E+00 0.  1.
         21   -1    0    0  501  503 -0.00000000000E+00 -0.00000000000E+00 -0.12124052871E+03  0.12124052871E+03  0.00000000000E+00 0.  1.
          6    2    1    2  501    0  0.11401964158E+03  0.64299522392E+01  0.33695359485E+02  0.22337281394E+03  0.18899262897E+03 0.  0.
         24    2    3    3    0    0  0.97779063191E+02  0.72974712765E+02  0.48226139302E+02  0.15319307967E+03  0.79096809325E+02 0.  0.
         -6    2    1    2    0  502 -0.11401964158E+03 -0.64299522392E+01  0.36857467692E+03  0.42137827988E+03  0.16932377074E+03 0.  0.
        -24    2    5    5    0    0 -0.12390629365E+03  0.35791204411E+02  0.32998470993E+03  0.36314042698E+03  0.79669824901E+02 0.  0.
          5    1    3    3  501    0  0.16240578387E+02 -0.66544760526E+02 -0.14530779816E+02  0.70179734267E+02  0.47000000000E+01 0. -1.
        -13    1    4    4    0    0  0.72446647645E+02  0.12139876699E+02  0.34809026169E+01  0.73539173536E+02  0.00000000000E+00 0.  1.
         14    1    4    4    0    0  0.25332415546E+02  0.60834836066E+02  0.44745236685E+02  0.79653906135E+02  0.00000000000E+00 0. -1.
         -5    1    5    5    0  502  0.98866520750E+01 -0.42221156650E+02  0.38589966991E+02  0.58237852901E+02  0.47000000000E+01 0.  1.
         11    1    6    6    0    0 -0.74526584877E-01  0.70336981475E+01  0.10090863123E+03  0.10115349881E+03  0.00000000000E+00 0. -1.
        -12    1    6    6    0    0 -0.12383176707E+03  0.28757506264E+02  0.22907607870E+03  0.26198692817E+03  0.00000000000E+00 0.  1.
</event>
<event>
12    1  0.8344842E-002  0.1747012E+03  0.7818608E-02  0.1173041E+00
         21   -1    0    0  501  502  0.00000000000E+00  0.00000000000E+00  0.18405754185E+03  0.18405754185E+03  0.00000000000E+00 0.  1.
         21   -1    0    0  502  503 -0.00000000000E+00 -0.00000000000E+00 -0.41689828460E+03  0.41689828460E+03  0.00000000000E+00 0.  1.
         -6    2    1    2    0  503  0.19631912391E+02  0.20297332868E+02 -0.34962639982E+03  0.39084412204E+03  0.17240392854E+03 0.  0.
        -24    2    3    3    0    0 -0.12696836554E+02 -0.47221826592E+02 -0.13871220686E+03  0.16698954493E+03  0.79077943937E+02 0.  0.
          6    2    1    2  501    0 -0.19631912391E+02 -0.20297332868E+02  0.11678565707E+03  0.21011170441E+03  0.17236776069E+03 0.  0.
         24    2    5    5    0    0  0.31534174827E+02 -0.40423405157E+02  0.12256200219E+03  0.15462762174E+03  0.79118905184E+02 0.  0.
          5    1    5    5  501    0 -0.51166087217E+02  0.20126072289E+02 -0.57763451185E+01  0.55484082671E+02  0.47000000000E+01 0. -1.
        -13    1    6    6    0    0  0.41635101059E+02 -0.64855658049E+01  0.21020495828E+02  0.47089334768E+02  0.00000000000E+00 0.  1.
         14    1    6    6    0    0 -0.10100926233E+02 -0.33937839352E+02  0.10154150636E+03  0.10753828697E+03  0.00000000000E+00 0. -1.
         -5    1    3    3    0  503  0.32328748944E+02  0.67519159460E+02 -0.21091419295E+03  0.22385457711E+03  0.47000000000E+01 0.  1.
         11    1    4    4    0    0  0.21839709980E+02 -0.11816669569E+02 -0.62665370035E+01  0.25610078050E+02  0.00000000000E+00 0. -1.
        -12    1    4    4    0    0 -0.34536546533E+02 -0.35405157022E+02 -0.13244566986E+03  0.14137946688E+03  0.00000000000E+00 0.  1.
</event>
<event>
12    1  0.8344842E-002  0.1745241E+03  0.7818608E-02  0.1173434E+00
         21   -1    0    0  501  502  0.00000000000E+00  0.00000000000E+00  0.11182155423E+03  0.11182155423E+03  0.00000000000E+00 0.  1.
         21   -1    0    0  502  503 -0.00000000000E+00 -0.00000000000E+00 -0.48366075590E+03  0.48366075590E+03  0.00000000000E+00 0.  1.
         -6    2    1    2    0  503  0.20020622748E+02  0.37993128773E+01 -0.38308127727E+03  0.42059646335E+03  0.17243798850E+03 0.  0.
        -24    2    3    3    0    0 -0.11769640305E+02 -0.60764229295E+02 -0.23191674539E+03  0.25310951610E+03  0.80300898832E+02 0.  0.
          6    2    1    2  501    0 -0.20020622748E+02 -0.37993128773E+01  0.11242075601E+02  0.17488584677E+03  0.17333036382E+03 0.  0.
         24    2    5    5    0    0 -0.23448737470E+02 -0.44684538156E+02  0.58706045026E+02  0.11197104716E+03  0.80898482309E+02 0.  0.
          5    1    5    5  501    0  0.34281147216E+01  0.40885225279E+02 -0.47463969425E+02  0.62914799612E+02  0.47000000000E+01 0. -1.
        -11    1    6    6    0    0 -0.72510920737E+01  0.19035394467E+01  0.62081145982E+02  0.62532155609E+02  0.00000000000E+00 0.  1.
         12    1    6    6    0    0 -0.16197645396E+02 -0.46588077603E+02 -0.33751009561E+01  0.49438891548E+02  0.00000000000E+00 0. -1.
         -5    1    3    3    0  503  0.31790263053E+02  0.64563542172E+02 -0.15116453188E+03  0.16748694726E+03  0.47000000000E+01 0.  1.
         11    1    4    4    0    0 -0.25100606665E+02 -0.38228995843E+02 -0.44287589997E+02  0.63662290297E+02  0.00000000000E+00 0. -1.
        -12    1    4    4    0    0  0.13330966361E+02 -0.22535233451E+02 -0.18762915539E+03  0.18944722580E+03  0.00000000000E+00 0.  1.
</event>
<event>
12    1  0.8344842E-002  0.2573479E+03  0.7818608E-02  0.1109332E+00
         21   -1    0    0  501  502  0.00000000000E+00  0.00000000000E+00  0.67991185730E+03  0.67991185730E+03  0.00000000000E+00 0. -1.
         21   -1    0    0  502  503 -0.00000000000E+00 -0.00000000000E+00 -0.10505885717E+03  0.10505885717E+03  0.00000000000E+00 0. -1.
         -6    2    1    2    0  503 -0.17202578673E+03 -0.74020856431E+02  0.17002695892E+03  0.30527074143E+03  0.17090670065E+03 0.  0.
        -24    2    3    3    0    0 -0.14235880141E+03 -0.11583335272E+03  0.11776659099E+03  0.23191100507E+03  0.78932568540E+02 0.  0.
          6    2    1    2  501    0  0.17202578673E+03  0.74020856431E+02  0.40482604121E+03  0.47969997304E+03  0.17651057194E+03 0.  0.
         24    2    5    5    0    0  0.19414004993E+03  0.38106569271E+02  0.31163913897E+03  0.37730482956E+03  0.78086566441E+02 0.  0.
          5    1    5    5  501    0 -0.22114263208E+02  0.35914287160E+02  0.93186902239E+02  0.10239514348E+03  0.47000000000E+01 0. -1.
        -11    1    6    6    0    0  0.63592183707E+01 -0.67559740563E+01 -0.15330436699E+01  0.94038857197E+01  0.00000000000E+00 0.  1.
         12    1    6    6    0    0  0.18778083156E+03  0.44862543327E+02  0.31317218264E+03  0.36790094384E+03  0.00000000000E+00 0. -1.
         -5    1    3    3    0  503 -0.29666985313E+02  0.41812496286E+02  0.52260367927E+02  0.73359736362E+02  0.47000000000E+01 0.  1.
         11    1    4    4    0    0 -0.11059936383E+03 -0.60702093723E+02  0.11079348374E+03  0.16790520987E+03  0.00000000000E+00 0. -1.
        -12    1    4    4    0    0 -0.31759437584E+02 -0.55131258994E+02  0.69731072445E+01  0.64005795195E+02  0.00000000000E+00 0.  1.
</event>
<event>
12    1  0.8344842E-002  0.1829015E+03  0.7818608E-02  0.1165298E+00
         21   -1    0    0  501  502  0.00000000000E+00  0.00000000000E+00  0.16030807197E+04  0.16030807197E+04  0.00000000000E+00 0.  1.
         21   -1    0    0  502  503 -0.00000000000E+00 -0.00000000000E+00 -0.24104129779E+02  0.24104129779E+02  0.00000000000E+00 0.  1.
         -6    2    1    2    0  503 -0.49116613690E+02 -0.33742211765E+02  0.48753691783E+03  0.52071605276E+03  0.17292189786E+03 0.  0.
        -24    2    3    3    0    0 -0.46900413985E+02 -0.30180964304E+02  0.49853129143E+03  0.50804481465E+03  0.80408617212E+02 0.  0.
          6    2    1    2  501    0  0.49116613690E+02  0.33742211765E+02  0.10914396721E+04  0.11064687968E+04  0.17170224723E+03 0.  0.
         24    2    5    5    0    0  0.10850006397E+02  0.77194682075E+02  0.48443762961E+03  0.49669341185E+03  0.77121895843E+02 0.  0.
          5    1    5    5  501    0  0.38266607293E+02 -0.43452470310E+02  0.60700204251E+03  0.60977538490E+03  0.47000000000E+01 0. -1.
        -11    1    6    6    0    0 -0.21068699028E+02  0.50702720431E+02  0.15075226497E+03  0.16043971246E+03  0.00000000000E+00 0.  1.
         12    1    6    6    0    0  0.31918705425E+02  0.26491961644E+02  0.33368536463E+03  0.33625369940E+03  0.00000000000E+00 0. -1.
         -5    1    3    3    0  503 -0.22161997048E+01 -0.35612474608E+01 -0.10994373594E+02  0.12671238114E+02  0.47000000000E+01 0.  1.
         13    1    4    4    0    0 -0.29199731532E+02  0.15728863320E+02  0.35016824170E+03  0.35173543887E+03  0.00000000000E+00 0. -1.
        -14    1    4    4    0    0 -0.17700682453E+02 -0.45909827624E+02  0.14836304973E+03  0.15630937578E+03  0.00000000000E+00 0.  1.
</event>
<event>
12    1  0.8344842E-002  0.3906912E+03  0.7818608E-02  0.1047076E+00
         21   -1    0    0  503  502  0.00000000000E+00  0.00000000000E+00  0.26635244093E+03  0.26635244093E+03  0.00000000000E+00 0. -1.
         21   -1    0    0  501  503 -0.00000000000E+00 -0.00000000000E+00 -0.57461878757E+03  0.57461878757E+03  0.00000000000E+00 0.  1.
          6    2    1    2  501    0 -0.15436940312E+03 -0.31428603756E+03 -0.12973171249E+03  0.41166724863E+03  0.17330314579E+03 0.  0.
         24    2    3    3    0    0 -0.83194431998E+02 -0.12053757171E+03 -0.12369536463E+03  0.20511732239E+03  0.72951716929E+02 0.  0.
         -6    2    1    2    0  502  0.15436940312E+03  0.31428603756E+03 -0.17853463415E+03  0.42930397987E+03  0.17268950610E+03 0.  0.
        -24    2    5    5    0    0  0.53351640621E+02  0.24939606063E+03 -0.95460191207E+02  0.28322608792E+03  0.77843279474E+02 0.  0.
          5    1    3    3  501    0 -0.71174971121E+02 -0.19374846585E+03 -0.60363478560E+01  0.20654992624E+03  0.47000000000E+01 0. -1.
        -13    1    4    4    0    0 -0.44004339399E+02 -0.11348600986E+03 -0.10653919583E+03  0.16175925497E+03  0.00000000000E+00 0.  1.
         14    1    4    4    0    0 -0.39190092599E+02 -0.70515618515E+01 -0.17156168804E+02  0.43358067422E+02  0.00000000000E+00 0. -1.
         -5    1    5    5    0  502  0.10101776250E+03  0.64889976928E+02 -0.83074442944E+02  0.14607789195E+03  0.47000000000E+01 0.  1.
         11    1    6    6    0    0  0.22232062583E+02  0.19790971600E+02  0.58619136259E+01  0.30336598276E+02  0.00000000000E+00 0. -1.
        -12    1    6    6    0    0  0.31119578038E+02  0.22960508903E+03 -0.10132210483E+03  0.25288948965E+03  0.00000000000E+00 0.  1.
</event>
<event>
12    1  0.8344842E-002  0.1963323E+03  0.7818608E-02  0.1154360E+00
         21   -1    0    0  501  502  0.00000000000E+00  0.00000000000E+00  0.32179690932E+03  0.32179690932E+03  0.00000000000E+00 0.  1.
         21   -1    0    0  502  503 -0.00000000000E+00 -0.00000000000E+00 -0.16903334846E+03  0.16903334846E+03  0.00000000000E+00 0.  1.
         -6    2    1    2    0  503 -0.35721020113E+02 -0.68074392914E+02 -0.62381369437E+02  0.19956799966E+03  0.17327964966E+03 0.  0.
        -24    2    3    3    0    0  0.10713389255E+02  0.20025944910E+02 -0.54353064042E+02  0.99546164111E+02  0.80245673027E+02 0.  0.
          6    2    1    2  501    0  0.35721020113E+02  0.68074392914E+02  0.21514493030E+03  0.29126225812E+03  0.18065505175E+03 0.  0.
         24    2    5    5    0    0  0.74463130359E+02  0.54745627207E+02  0.21517567150E+03  0.25002273767E+03  0.87572588554E+02 0.  0.
          5    1    5    5  501    0 -0.38742110246E+02  0.13328765707E+02 -0.30741204868E-01  0.41239520446E+02  0.47000000000E+01 0. -1.
        -13    1    6    6    0    0  0.26746143641E+02 -0.10129664568E+02  0.11183355242E+02  0.30708854397E+02  0.00000000000E+00 0.  1.
         14    1    6    6    0    0  0.47716986718E+02  0.64875291775E+02  0.20399231626E+03  0.21931388327E+03  0.00000000000E+00 0. -1.
         -5    1    3    3    0  503 -0.46434409368E+02 -0.88100337824E+02 -0.80283053947E+01  0.10002183554E+03  0.47000000000E+01 0.  1.
         13    1    4    4    0    0 -0.27832333245E+01  0.33460754040E+02  0.78597635173E+01  0.34483972092E+02  0.00000000000E+00 0. -1.
        -14    1    4    4    0    0  0.13496622579E+02 -0.13434809130E+02 -0.62212827559E+02  0.65062192019E+02  0.00000000000E+00 0.  1.
</event>
<event>
12    1  0.8344842E-002  0.2526428E+03  0.7818608E-02  0.1111692E+00
         21   -1    0    0  503  502  0.00000000000E+00  0.00000000000E+00  0.12582766671E+03  0.12582766671E+03  0.00000000000E+00 0.  1.
         21   -1    0    0  501  503 -0.00000000000E+00 -0.00000000000E+00 -0.58913082172E+03  0.58913082172E+03  0.00000000000E+00 0. -1.
          6    2    1    2  501    0 -0.14078290892E+03 -0.11959833779E+03 -0.36550639076E+03  0.44432340493E+03  0.17235073727E+03 0.  0.
         24    2    3    3    0    0 -0.34311259309E+02 -0.11223421721E+03 -0.16148338811E+03  0.21402377824E+03  0.77171957272E+02 0.  0.
         -6    2    1    2    0  502  0.14078290892E+03  0.11959833779E+03 -0.97796764244E+02  0.27063508349E+03  0.17191728091E+03 0.  0.
        -24    2    5    5    0    0  0.58470846416E+02  0.10890592676E+03 -0.11600935327E+03  0.18552696586E+03  0.75383978743E+02 0.  0.
          5    1    3    3  501    0 -0.10647164962E+03 -0.73641205780E+01 -0.20402300265E+03  0.23029962669E+03  0.47000000000E+01 0. -1.
        -13    1    4    4    0    0 -0.51066209110E+02 -0.37590168871E+02 -0.63825971348E+02  0.89969623357E+02  0.00000000000E+00 0.  1.
         14    1    4    4    0    0  0.16754949801E+02 -0.74644048343E+02 -0.97657416760E+02  0.12405415488E+03  0.00000000000E+00 0. -1.
         -5    1    5    5    0  502  0.82312062509E+02  0.10692411034E+02  0.18212589029E+02  0.85108117635E+02  0.47000000000E+01 0.  1.
         11    1    6    6    0    0 -0.11385549278E+01  0.51107132114E+02 -0.80194336663E+02  0.95101876391E+02  0.00000000000E+00 0. -1.
        -12    1    6    6    0    0  0.59609401343E+02  0.57798794644E+02 -0.35815016609E+02  0.90425089469E+02  0.00000000000E+00 0.  1.
</event>
<event>
12    1  0.8344842E-002  0.1860842E+03  0.7818608E-02  0.1162229E+00
         21   -1    0    0  501  502  0.00000000000E+00  0.00000000000E+00  0.78509066700E+03  0.78509066700E+03  0.00000000000E+00 0.  1.
         21   -1    0    0  502  503 -0.00000000000E+00 -0.00000000000E+00 -0.49141075903E+02  0.49141075903E+02  0.00000000000E+00 0.  1.
         -6    2    1    2    0  503 -0.52071475053E+02 -0.44686604308E+02  0.23265825462E+03  0.29792145947E+03  0.17297110006E+03 0.  0.
        -24    2    3    3    0    0  0.23166736556E+02 -0.28324385210E+02  0.19040257390E+03  0.20996611141E+03  0.80583244617E+02 0.  0.
          6    2    1    2  501    0  0.52071475053E+02  0.44686604308E+02  0.50329133648E+03  0.53631028343E+03  0.17209944688E+03 0.  0.
         24    2    5    5    0    0  0.88559741132E+02  0.41907955901E+02  0.47021789525E+03  0.48676175203E+03  0.78949539042E+02 0.  0.
          5    1    5    5  501    0 -0.36488266079E+02  0.27786484073E+01  0.33073441231E+02  0.49548531394E+02  0.47000000000E+01 0. -1.
        -11    1    6    6    0    0  0.84373223253E+02  0.22414993105E+02  0.23485076523E+03  0.25055170054E+03  0.00000000000E+00 0.  1.
         12    1    6    6    0    0  0.41865178793E+01  0.19492962796E+02  0.23536713002E+03  0.23621005149E+03  0.00000000000E+00 0. -1.
         -5    1    3    3    0  503 -0.75238211609E+02 -0.16362219099E+02  0.42255680715E+02  0.87955348061E+02  0.47000000000E+01 0.  1.
         11    1    4    4    0    0 -0.47282818526E+01  0.25970071353E+02  0.43447898078E+02  0.50838185479E+02  0.00000000000E+00 0. -1.
        -12    1    4    4    0    0  0.27895018408E+02 -0.54294456563E+02  0.14695467582E+03  0.15912792593E+03  0.00000000000E+00 0.  1.
</event>
<event>
12    1  0.8344842E-002  0.1872958E+03  0.7818608E-02  0.1161118E+00
         21   -1    0    0  501  502  0.00000000000E+00  0.00000000000E+00  0.86585185648E+02  0.86585185648E+02  0.00000000000E+00 0.  1.
         21   -1    0    0  502  503 -0.00000000000E+00 -0.00000000000E+00 -0.88338469951E+03  0.88338469951E+03  0.00000000000E+00 0. -1.
         -6    2    1    2    0  503 -0.72899576221E+02 -0.97319240037E+01 -0.75550966862E+03  0.77817682330E+03  0.17133373977E+03 0.  0.
        -24    2    3    3    0    0 -0.11272546796E+03 -0.27990399514E+02 -0.55698777919E+03  0.57482367195E+03  0.81831375866E+02 0.  0.
          6    2    1    2  501    0  0.72899576221E+02  0.97319240037E+01 -0.41289845244E+02  0.19179306186E+03  0.17225175964E+03 0.  0.
         24    2    5    5    0    0  0.11035777955E+03  0.37958838829E+02 -0.27436452869E+02  0.14266178671E+03  0.77329900362E+02 0.  0.
          5    1    5    5  501    0 -0.37458203328E+02 -0.28226914826E+02 -0.13853392374E+02  0.49131275146E+02  0.47000000000E+01 0. -1.
        -13    1    6    6    0    0  0.27141606394E+02  0.48821955697E+02 -0.14864303997E+02  0.57803094113E+02  0.00000000000E+00 0.  1.
         14    1    6    6    0    0  0.83216173156E+02 -0.10863116867E+02 -0.12572148873E+02  0.84858692602E+02  0.00000000000E+00 0. -1.
         -5    1    3    3    0  503  0.39825891740E+02  0.18258475511E+02 -0.19852188943E+03  0.20335315135E+03  0.47000000000E+01 0.  1.
         11    1    4    4    0    0  0.97683023033E+01 -0.15946055036E+02 -0.86891003083E+02  0.88880497399E+02  0.00000000000E+00 0. -1.
        -12    1    4    4    0    0 -0.12249377026E+03 -0.12044344478E+02 -0.47009677611E+03  0.48594317455E+03  0.00000000000E+00 0.  1.
</event>
<event>
12    1  0.8344842E-002  0.2093645E+03  0.7818608E-02  0.1142210E+00
         21   -1    0    0  501  502  0.00000000000E+00  0.00000000000E+00  0.35816652140E+03  0.35816652140E+03  0.00000000000E+00 0.  1.
         21   -1    0    0  502  503 -0.00000000000E+00 -0.00000000000E+00 -0.12202984358E+03  0.12202984358E+03  0.00000000000E+00 0. -1.
         -6    2    1    2    0  503  0.43012724052E+02 -0.11260852555E+03  0.11312159069E+03  0.23797057324E+03  0.17118038729E+03 0.  0.
        -24    2    3    3    0    0  0.37936508104E+02 -0.13282268245E+03  0.46239142011E+02  0.16775852264E+03  0.83209494923E+02 0.  0.
          6    2    1    2  501    0 -0.43012724052E+02  0.11260852555E+03  0.12301508713E+03  0.24222579173E+03  0.17032277611E+03 0.  0.
         24    2    5    5    0    0 -0.85242601100E+01  0.12376306963E+03  0.13855995921E+03  0.20250663960E+03  0.80125628666E+02 0.  0.
          5    1    5    5  501    0 -0.34488463942E+02 -0.11154544084E+02 -0.15544872076E+02  0.39719152140E+02  0.47000000000E+01 0. -1.
        -11    1    6    6    0    0 -0.33407582774E+02  0.27624759032E+02  0.19684815262E+02  0.47609724325E+02  0.00000000000E+00 0.  1.
         12    1    6    6    0    0  0.24883322664E+02  0.96138310601E+02  0.11887514395E+03  0.15489691527E+03  0.00000000000E+00 0. -1.
         -5    1    3    3    0  503  0.50762159481E+01  0.20214156901E+02  0.66882448683E+02  0.70212050599E+02  0.47000000000E+01 0.  1.
         11    1    4    4    0    0  0.12090332650E+02 -0.11529310243E+03  0.63394350001E+02  0.13212690575E+03  0.00000000000E+00 0. -1.
        -12    1    4    4    0    0  0.25846175454E+02 -0.17529580024E+02 -0.17155207989E+02  0.35631616895E+02  0.00000000000E+00 0.  1.
</event>
<event>
12    1  0.8344842E-002  0.1764805E+03  0.7818608E-02  0.1171569E+00
         21   -1    0    0  501  502  0.00000000000E+00  0.00000000000E+00  0.75961435912E+02  0.75961435912E+02  0.00000000000E+00 0. -1.
         21   -1    0    0  502  503 -0.00000000000E+00 -0.00000000000E+00 -0.43440798462E+03  0.43440798462E+03  0.00000000000E+00 0. -1.
         -6    2    1    2    0  503  0.36357983160E+02 -0.15818267350E+02 -0.24383714538E+03  0.30100153196E+03  0.17196874210E+03 0.  0.
        -24    2    3    3    0    0  0.44484714307E+02  0.41872119696E+02 -0.17982853321E+03  0.21432156341E+03  0.99313981757E+02 0.  0.
          6    2    1    2  501    0 -0.36357983160E+02  0.15818267350E+02 -0.11460940334E+03  0.20936788857E+03  0.17066773834E+03 0.  0.
         24    2    5    5    0    0  0.12161946006E+02  0.44224335140E+02 -0.90815387939E+01  0.89704575865E+02  0.76555416758E+02 0.  0.
          5    1    5    5  501    0 -0.48519929165E+02 -0.28406067790E+02 -0.10552786454E+03  0.11966331271E+03  0.47000000000E+01 0. -1.
        -11    1    6    6    0    0  0.23734396821E+02  0.24071969181E+01 -0.32565044793E+02  0.40368283737E+02  0.00000000000E+00 0.  1.
         12    1    6    6    0    0 -0.11572450816E+02  0.41817138222E+02  0.23483505999E+02  0.49336292128E+02  0.00000000000E+00 0. -1.
         -5    1    3    3    0  503 -0.81267311475E+01 -0.57690387045E+02 -0.64008612170E+02  0.86679968554E+02  0.47000000000E+01 0.  1.
         13    1    4    4    0    0  0.49881093649E+02 -0.12646795956E+02 -0.13170717206E+03  0.14140312629E+03  0.00000000000E+00 0. -1.
        -14    1    4    4    0    0 -0.53963793414E+01  0.54518915651E+02 -0.48121361143E+02  0.72918437120E+02  0.00000000000E+00 0.  1.
</event>
<event>
12    1  0.8344842E-002  0.1798555E+03  0.7818608E-02  0.1168187E+00
         21   -1    0    0  503  502  0.00000000000E+00  0.00000000000E+00  0.18526132832E+03  0.18526132832E+03  0.00000000000E+00 0.  1.
         21   -1    0    0  501  503 -0.00000000000E+00 -0.00000000000E+00 -0.10754098586E+04  0.10754098586E+04  0.00000000000E+00 0.  1.
          6    2    1    2  501    0  0.25806118654E+02  0.43341026596E+02 -0.10220830472E+04  0.10376135326E+04  0.17159162938E+03 0.  0.
         24    2    3    3    0    0  0.29558300644E+01 -0.36242744365E+02 -0.37289897137E+03  0.38315362808E+03  0.80192184218E+02 0.  0.
         -6    2    1    2    0  502 -0.25806118654E+02 -0.43341026596E+02  0.13193451698E+03  0.22305765428E+03  0.17263719187E+03 0.  0.
        -24    2    5    5    0    0 -0.33773158066E+02 -0.34418086354E+02 -0.13979180898E+01  0.89107212624E+02  0.74919358597E+02 0.  0.
          5    1    3    3  501    0  0.22850288590E+02  0.79583770961E+02 -0.64918407586E+03  0.65445990453E+03  0.47000000000E+01 0. -1.
        -11    1    4    4    0    0  0.29854694619E+02  0.26453410179E+01 -0.24440089235E+03  0.24623179486E+03  0.00000000000E+00 0.  1.
         12    1    4    4    0    0 -0.26898864554E+02 -0.38888085383E+02 -0.12849807902E+03  0.13692183322E+03  0.00000000000E+00 0. -1.
         -5    1    5    5    0  502  0.79670394119E+01 -0.89229402411E+01  0.13333243507E+03  0.13395044166E+03  0.47000000000E+01 0.  1.
         11    1    6    6    0    0  0.22836227096E+02 -0.15050354288E+02 -0.90065139793E+01  0.28794508612E+02  0.00000000000E+00 0. -1.
        -12    1    6    6    0    0 -0.56609385162E+02 -0.19367732067E+02  0.76085958894E+01  0.60312704012E+02  0.00000000000E+00 0.  1.
</event>
<event>
12    1  0.8344842E-002  0.1786487E+03  0.7818608E-02  0.1169975E+00
         21   -1    0    0  501  502  0.00000000000E+00  0.00000000000E+00  0.57660344515E+03  0.57660344515E+03  0.00000000000E+00 0.  1.
         21   -1    0    0  502  503 -0.00000000000E+00 -0.00000000000E+00 -0.24446612904E+03  0.24446612904E+03  0.00000000000E+00 0. -1.
         -6    2    1    2    0  503 -0.45019602758E+02 -0.54216893419E+01 -0.19639125465E+03  0.26316474358E+03  0.16920401299E+03 0.  0.
        -24    2    3    3    0    0 -0.74923748240E+02 -0.66277609761E+01 -0.20401356883E+03  0.23192531017E+03  0.80686541413E+02 0.  0.
          6    2    1    2  501    0  0.45019602758E+02  0.54216893419E+01  0.52852857076E+03  0.55790483061E+03  0.17279812084E+03 0.  0.
         24    2    5    5    0    0 -0.36370737805E+02 -0.16577100323E+02  0.34091068866E+03  0.35216010051E+03  0.78733778786E+02 0.  0.
          5    1    5    5  501    0  0.81390340563E+02  0.21998789665E+02  0.18761788210E+03  0.20574473010E+03  0.47000000000E+01 0. -1.
        -13    1    6    6    0    0  0.20451761892E+02 -0.21008083513E+02  0.15347904946E+03  0.15625438477E+03  0.00000000000E+00 0.  1.
         14    1    6    6    0    0 -0.56822499698E+02  0.44309831898E+01  0.18743163920E+03  0.19590571574E+03  0.00000000000E+00 0. -1.
         -5    1    3    3    0  503  0.29904145482E+02  0.12060716342E+01  0.76223141878E+01  0.31239433404E+02  0.47000000000E+01 0.  1.
         13    1    4    4    0    0 -0.85247352471E+02  0.14357805790E+02 -0.16886813424E+03  0.18970952652E+03  0.00000000000E+00 0. -1.
        -14    1    4    4    0    0  0.10323604231E+02 -0.20985566766E+02 -0.35145434593E+02  0.42215783654E+02  0.00000000000E+00 0.  1.
</event>
<event>
12    1  0.8344842E-002  0.1937797E+03  0.7818608E-02  0.1155413E+00
         21   -1    0    0  501  502  0.00000000000E+00  0.00000000000E+00  0.95454769303E+02  0.95454769303E+02  0.00000000000E+00 0. -1.
         21   -1    0    0  502  503 -0.00000000000E+00 -0.00000000000E+00 -0.46014097160E+03  0.46014097160E+03  0.00000000000E+00 0. -1.
         -6    2    1    2    0  503 -0.81641901746E+02  0.32369803059E+02 -0.29101213019E+03  0.34962643308E+03  0.17273499506E+03 0.  0.
        -24    2    3    3    0    0 -0.10851484324E+03  0.54142407701E+02 -0.27483134407E+03  0.31115424655E+03  0.81103797372E+02 0.  0.
          6    2    1    2  501    0  0.81641901746E+02 -0.32369803059E+02 -0.73674072109E+02  0.20596930783E+03  0.17112066676E+03 0.  0.
         24    2    5    5    0    0 -0.18746751854E+02 -0.41764292553E+02 -0.15387331060E+02  0.89412144225E+02  0.75246692553E+02 0.  0.
          5    1    5    5  501    0  0.10038865360E+03  0.93944894939E+01 -0.58286741049E+02  0.11655716360E+03  0.47000000000E+01 0. -1.
        -11    1    6    6    0    0  0.47995168734E+01 -0.40999634842E+02 -0.38472564504E+02  0.56428216691E+02  0.00000000000E+00 0.  1.
         12    1    6    6    0    0 -0.23546268727E+02 -0.76465771149E+00  0.23085233444E+02  0.32983927534E+02  0.00000000000E+00 0. -1.
         -5    1    3    3    0  503  0.26872941489E+02 -0.21772604641E+02 -0.16180786124E+02  0.38472186535E+02  0.47000000000E+01 0.  1.
         11    1    4    4    0    0  0.19209510788E+01 -0.93176941101E+01 -0.64984996221E+02  0.65677691878E+02  0.00000000000E+00 0. -1.
        -12    1    4    4    0    0 -0.11043579431E+03  0.63460101811E+02 -0.20984634785E+03  0.24547655467E+03  0.00000000000E+00 0.  1.
</event>
<event>
12    1  0.8344842E-002  0.1929628E+03  0.7818608E-02  0.1156400E+00
         21   -1    0    0  503  502  0.00000000000E+00  0.00000000000E+00  0.17067466433E+02  0.17067466433E+02  0.00000000000E+00 0.  1.
         21   -1    0    0  501  503 -0.00000000000E+00 -0.00000000000E+00 -0.28914070566E+04  0.28914070566E+04  0.00000000000E+00 0.  1.
          6    2    1    2  501    0  0.65454136001E+02  0.52341046297E+02 -0.21798396294E+04  0.21883636455E+04  0.17381256085E+03 0.  0.
         24    2    3    3    0    0  0.21625981372E+02  0.51439583614E+02 -0.58719500312E+03  0.59510889023E+03  0.79012060592E+02 0.  0.
         -6    2    1    2    0  502 -0.65454136001E+02 -0.52341046297E+02 -0.69449996079E+03  0.72011087749E+03  0.17089660993E+03 0.  0.
        -24    2    5    5    0    0  0.22811790006E+02 -0.67866040229E+01 -0.41806905476E+03  0.42633848819E+03  0.80102036203E+02 0.  0.
          5    1    3    3  501    0  0.43828154629E+02  0.90146268263E+00 -0.15926446262E+04  0.15932547553E+04  0.47000000000E+01 0. -1.
        -13    1    4    4    0    0  0.51745301556E+02  0.31229005958E+02 -0.37268052376E+03  0.37754946674E+03  0.00000000000E+00 0.  1.
         14    1    4    4    0    0 -0.30119320184E+02  0.20210577656E+02 -0.21451447936E+03  0.21755942350E+03  0.00000000000E+00 0. -1.
         -5    1    5    5    0  502 -0.88265926007E+02 -0.45554442274E+02 -0.27643090603E+03  0.29377238930E+03  0.47000000000E+01 0.  1.
         11    1    6    6    0    0 -0.22482210710E+02  0.44538221276E+01 -0.27271693928E+03  0.27367830623E+03  0.00000000000E+00 0. -1.
        -12    1    6    6    0    0  0.45294000716E+02 -0.11240426151E+02 -0.14535211548E+03  0.15266018196E+03  0.00000000000E+00 0.  1.
</event>
<event>
12    1  0.8344842E-002  0.2267772E+03  0.7818608E-02  0.1129505E+00
         21   -1    0    0  503  502  0.00000000000E+00  0.00000000000E+00  0.19877061950E+03  0.19877061950E+03  0.00000000000E+00 0.  1.
         21   -1    0    0  501  503 -0.00000000000E+00 -0.00000000000E+00 -0.52556712449E+03  0.52556712449E+03  0.00000000000E+00 0.  1.
          6    2    1    2  501    0 -0.76182486011E+02 -0.12094286862E+03 -0.42264171129E+03  0.47813825746E+03  0.17192797467E+03 0.  0.
         24    2    3    3    0    0 -0.92069113124E+02 -0.38862286114E+02 -0.17422350223E+03  0.21598695852E+03  0.79432604417E+02 0.  0.
         -6    2    1    2    0  502  0.76182486011E+02  0.12094286862E+03  0.95845206307E+02  0.24619948654E+03  0.17605946426E+03 0.  0.
        -24    2    5    5    0    0  0.59075710934E+02  0.15043927512E+03  0.10718824440E+03  0.20995815291E+03  0.80443713958E+02 0.  0.
          5    1    3    3  501    0  0.15886627113E+02 -0.82080582501E+02 -0.24841820906E+03  0.26215129894E+03  0.47000000000E+01 0. -1.
        -13    1    4    4    0    0 -0.40835851330E+02 -0.56244258827E+02 -0.70496874120E+02  0.98998952850E+02  0.00000000000E+00 0.  1.
         14    1    4    4    0    0 -0.51233261794E+02  0.17381972713E+02 -0.10372662811E+03  0.11698800567E+03  0.00000000000E+00 0. -1.
         -5    1    5    5    0  502  0.17106775077E+02 -0.29496406500E+02 -0.11343038095E+02  0.36241333628E+02  0.47000000000E+01 0.  1.
         11    1    6    6    0    0  0.73367083201E+02  0.14168613333E+03  0.10880372576E+03  0.19312156797E+03  0.00000000000E+00 0. -1.
        -12    1    6    6    0    0 -0.14291372267E+02  0.87531417808E+01 -0.16154813588E+01  0.16836584937E+02  0.00000000000E+00 0.  1.
</event>
<event>
12    1  0.8344842E-002  0.1724422E+03  0.7818608E-02  0.1175379E+00
         21   -1    0    0  503  502  0.00000000000E+00  0.00000000000E+00  0.14006448842E+04  0.14006448842E+04  0.00000000000E+00 0.  1.
         21   -1    0    0  501  503 -0.00000000000E+00 -0.00000000000E+00 -0.27618868796E+02  0.27618868796E+02  0.00000000000E+00 0.  1.
          6    2    1    2  501    0 -0.52995945821E+01  0.19079370840E+02  0.34267677805E+03  0.38361919859E+03  0.17130150968E+03 0.  0.
         24    2    3    3    0    0 -0.41520256977E+02  0.41056039302E+02  0.10591480898E+03  0.14305064217E+03  0.76393778287E+02 0.  0.
         -6    2    1    2    0  502  0.52995945821E+01 -0.19079370840E+02  0.10303492373E+04  0.10446445544E+04  0.17108648701E+03 0.  0.
        -24    2    5    5    0    0 -0.33753144387E+02 -0.29845388518E+02  0.31288390225E+03  0.32602113380E+03  0.79771056336E+02 0.  0.
          5    1    3    3  501    0  0.36220662395E+02 -0.21976668462E+02  0.23676196907E+03  0.24056855642E+03  0.47000000000E+01 0. -1.
        -11    1    4    4    0    0  0.17793235193E+02 -0.75201533466E+01  0.24842027400E+02  0.31468686823E+02  0.00000000000E+00 0.  1.
         12    1    4    4    0    0 -0.59313492171E+02  0.48576192649E+02  0.81072781577E+02  0.11158195534E+03  0.00000000000E+00 0. -1.
         -5    1    5    5    0  502  0.39052738969E+02  0.10766017677E+02  0.71746533509E+03  0.71862342058E+03  0.47000000000E+01 0.  1.
         11    1    6    6    0    0 -0.26750109210E+02 -0.25390671847E+02  0.45779901872E+02  0.58788212892E+02  0.00000000000E+00 0. -1.
        -12    1    6    6    0    0 -0.70030351767E+01 -0.44547166709E+01  0.26710400037E+03  0.26723292091E+03  0.00000000000E+00 0.  1.
</event>
<event>
12    1  0.8344842E-002  0.2364868E+03  0.7818608E-02  0.1122222E+00
         21   -1    0    0  501  502  0.00000000000E+00  0.00000000000E+00  0.20361264426E+03  0.20361264426E+03  0.00000000000E+00 0.  1.
         21   -1    0    0  502  503 -0.00000000000E+00 -0.00000000000E+00 -0.73021307718E+03  0.73021307718E+03  0.00000000000E+00 0.  1.
         -6    2    1    2    0  503  0.27179520932E+02  0.16028746105E+03 -0.63218945197E+03  0.67483723877E+03  0.17120455346E+03 0.  0.
        -24    2    3    3    0    0 -0.12851228650E+02  0.70773868330E+02 -0.49111837751E+03  0.50297019061E+03  0.81287498444E+02 0.  0.
          6    2    1    2  501    0 -0.27179520932E+02 -0.16028746105E+03  0.10558901905E+03  0.25898848267E+03  0.17174165681E+03 0.  0.
         24    2    5    5    0    0 -0.35518851467E+02 -0.20486726661E+02  0.93265994163E+01  0.88981620445E+02  0.78418419657E+02 0.  0.
          5    1    5    5  501    0  0.83393305349E+01 -0.13980073439E+03  0.96262419637E+02  0.17000686222E+03  0.47000000000E+01 0. -1.
        -13    1    6    6    0    0 -0.77763821226E+01  0.94874255329E-01  0.41231513079E+02  0.41958536567E+02  0.00000000000E+00 0.  1.
         14    1    6    6    0    0 -0.27742469344E+02 -0.20581600916E+02 -0.31904913663E+02  0.47023083878E+02  0.00000000000E+00 0. -1.
         -5    1    3    3    0  503  0.40030749582E+02  0.89513592717E+02 -0.14107107446E+03  0.17186704816E+03  0.47000000000E+01 0.  1.
         13    1    4    4    0    0 -0.10097279116E+02  0.60184732254E+02 -0.15366263840E+03  0.16533712070E+03  0.00000000000E+00 0. -1.
        -14    1    4    4    0    0 -0.27539495342E+01  0.10589136076E+02 -0.33745573911E+03  0.33763306991E+03  0.00000000000E+00 0.  1.
</event>
<event>
12    1  0.8344842E-002  0.2396363E+03  0.7818608E-02  0.1120143E+00
         21   -1    0    0  503  502  0.00000000000E+00  0.00000000000E+00  0.43051947069E+03  0.43051947069E+03  0.00000000000E+00 0. -1.
         21   -1    0    0  501  503 -0.00000000000E+00 -0.00000000000E+00 -0.20429709698E+03  0.20429709698E+03  0.00000000000E+00 0. -1.
          6    2    1    2  501    0  0.11994301211E+03 -0.11478648782E+03 -0.74261292639E+02  0.25087907529E+03  0.17281003123E+03 0.  0.
         24    2    3    3    0    0 -0.54997007717E+01 -0.68909755378E+02 -0.23027830431E+02  0.10774450070E+03  0.79371250218E+02 0.  0.
         -6    2    1    2    0  502 -0.11994301211E+03  0.11478648782E+03  0.30048366634E+03  0.38393749238E+03  0.17191655061E+03 0.  0.
        -24    2    5    5    0    0 -0.13157175365E+03  0.34800205749E+02  0.19608628097E+03  0.25182414323E+03  0.80270722269E+02 0.  0.
          5    1    3    3  501    0  0.12544271288E+03 -0.45876732438E+02 -0.51233462208E+02  0.14313457459E+03  0.47000000000E+01 0. -1.
        -11    1    4    4    0    0 -0.16636309364E+02  0.13614898058E+02 -0.60519027166E+00  0.21505778145E+02  0.00000000000E+00 0.  1.
         12    1    4    4    0    0  0.11136608592E+02 -0.82524653436E+02 -0.22422640160E+02  0.86238722552E+02  0.00000000000E+00 0. -1.
         -5    1    5    5    0  502  0.11628741538E+02  0.79986282068E+02  0.10439738538E+03  0.13211334914E+03  0.47000000000E+01 0.  1.
         13    1    6    6    0    0 -0.17541670564E+02  0.10298735699E+02  0.96010044909E+02  0.98141239480E+02  0.00000000000E+00 0. -1.
        -14    1    6    6    0    0 -0.11403008308E+03  0.24501470050E+02  0.10007623606E+03  0.15368290375E+03  0.00000000000E+00 0.  1.
</event>
<event>
12    1  0.8344842E-002  0.2081041E+03  0.7818608E-02  0.1143461E+00
         21   -1    0    0  501  502  0.00000000000E+00  0.00000000000E+00  0.24660594407E+03  0.24660594407E+03  0.00000000000E+00 0.  1.
         21   -1    0    0  502  503 -0.00000000000E+00 -0.00000000000E+00 -0.19993630143E+03  0.19993630143E+03  0.00000000000E+00 0. -1.
         -6    2    1    2    0  503 -0.99700966422E+02  0.58589016389E+02 -0.57166996085E+02  0.21397105345E+03  0.17071201108E+03 0.  0.
        -24    2    3    3    0    0  0.79140215270E+01  0.24098672057E+02 -0.58137892667E+02  0.10086224688E+03  0.78420664054E+02 0.  0.
          6    2    1    2  501    0  0.99700966422E+02 -0.58589016389E+02  0.10383663873E+03  0.23257119205E+03  0.17301547989E+03 0.  0.
         24    2    5    5    0    0  0.99905456363E+02  0.20009885330E+02  0.68987199611E+02  0.14646426681E+03  0.79442130000E+02 0.  0.
          5    1    5    5  501    0 -0.20448994135E+00 -0.78598901719E+02  0.34849439123E+02  0.86106925243E+02  0.47000000000E+01 0. -1.
        -11    1    6    6    0    0  0.10364193394E+03  0.14983476697E+00  0.71768866928E+02  0.12606523384E+03  0.00000000000E+00 0.  1.
         12    1    6    6    0    0 -0.37364775808E+01  0.19860050563E+02 -0.27816673166E+01  0.20399032970E+02  0.00000000000E+00 0. -1.
         -5    1    3    3    0  503 -0.10761498795E+03  0.34490344332E+02  0.97089658189E+00  0.11310880657E+03  0.47000000000E+01 0.  1.
         11    1    4    4    0    0 -0.88796261633E+01 -0.21079231572E+02 -0.45669749341E+02  0.51077468314E+02  0.00000000000E+00 0. -1.
        -12    1    4    4    0    0  0.16793647690E+02  0.45177903629E+02 -0.12468143326E+02  0.49784778568E+02  0.00000000000E+00 0.  1.
</event>
<event>
12    1  0.8344842E-002  0.2075303E+03  0.7818608E-02  0.1144638E+00
         21   -1    0    0  501  502  0.00000000000E+00  0.00000000000E+00  0.82360879554E+03  0.82360879554E+03  0.00000000000E+00 0.  1.
         21   -1    0    0  502  503 -0.00000000000E+00 -0.00000000000E+00 -0.72381439719E+02  0.72381439719E+02  0.00000000000E+00 0.  1.
         -6    2    1    2    0  503 -0.11425352224E+03 -0.20780496971E+02  0.12831855677E+03  0.23942021726E+03  0.16544090190E+03 0.  0.
        -24    2    3    3    0    0 -0.42060462740E+02 -0.66269087585E+02  0.49168208143E+02  0.12293881357E+03  0.80844076440E+02 0.  0.
          6    2    1    2  501    0  0.11425352224E+03  0.20780496971E+02  0.62290879905E+03  0.65657001800E+03  0.17199744246E+03 0.  0.
         24    2    5    5    0    0  0.42850428519E+02 -0.12826948833E+01  0.14400471184E+03  0.17184700331E+03  0.83404022593E+02 0.  0.
          5    1    5    5  501    0  0.71403093718E+02  0.22063191854E+02  0.47890408721E+03  0.48472301469E+03  0.47000000000E+01 0. -1.
        -13    1    6    6    0    0  0.59112301987E+02 -0.24852984456E+02  0.11063334476E+03  0.12787365661E+03  0.00000000000E+00 0.  1.
         14    1    6    6    0    0 -0.16261873468E+02  0.23570289573E+02  0.33371367081E+02  0.43973346701E+02  0.00000000000E+00 0. -1.
         -5    1    3    3    0  503 -0.72193059497E+02  0.45488590614E+02  0.79150348630E+02  0.11648140368E+03  0.47000000000E+01 0.  1.
         13    1    4    4    0    0  0.90206407548E+01 -0.34916522000E+01 -0.16224020757E+02  0.18888685614E+02  0.00000000000E+00 0. -1.
        -14    1    4    4    0    0 -0.51081103495E+02 -0.62777435385E+02  0.65392228899E+02  0.10405012796E+03  0.00000000000E+00 0.  1.
</event>
<event>
12    1  0.8344842E-002  0.2318226E+03  0.7818608E-02  0.1125397E+00
         21   -1    0    0  501  502  0.00000000000E+00  0.00000000000E+00  0.54755873264E+02  0.54755873264E+02  0.00000000000E+00 0. -1.
         21   -1    0    0  502  503 -0.00000000000E+00 -0.00000000000E+00 -0.11095657638E+04  0.11095657638E+04  0.00000000000E+00 0. -1.
         -6    2    1    2    0  503  0.10167340361E+03 -0.11805031630E+03 -0.72563176571E+03  0.76170525678E+03  0.17140618606E+03 0.  0.
        -24    2    3    3    0    0  0.72368421305E+02 -0.35566687175E+01 -0.26337490992E+03  0.28455636173E+03  0.79725413325E+02 0.  0.
          6    2    1    2  501    0 -0.10167340361E+03  0.11805031630E+03 -0.32917812481E+03  0.40261638026E+03  0.17166348950E+03 0.  0.
         24    2    5    5    0    0 -0.33452918495E+02  0.10709147380E+03 -0.29469578880E+03  0.32525196781E+03  0.79721722960E+02 0.  0.
          5    1    5    5  501    0 -0.68220485112E+02  0.10958842492E+02 -0.34482336006E+02  0.77364412453E+02  0.47000000000E+01 0. -1.
        -11    1    6    6    0    0  0.13379911906E+01 -0.46138506635E+01 -0.84917408549E+02  0.85053184027E+02  0.00000000000E+00 0.  1.
         12    1    6    6    0    0 -0.34790909686E+02  0.11170532447E+03 -0.20977838025E+03  0.24019878378E+03  0.00000000000E+00 0. -1.
         -5    1    3    3    0  503  0.29304982303E+02 -0.11449364758E+03 -0.46225685579E+03  0.47714889505E+03  0.47000000000E+01 0.  1.
         13    1    4    4    0    0  0.17709444261E+02 -0.22964116106E+02 -0.22245762490E+02  0.36549268027E+02  0.00000000000E+00 0. -1.
        -14    1    4    4    0    0  0.54658977044E+02  0.19407447388E+02 -0.24112914743E+03  0.24800709370E+03  0.00000000000E+00 0.  1.
</event>
<event>
12    1  0.8344842E-002  0.1996006E+03  0.7818608E-02  0.1150527E+00
         21   -1    0    0  501  502  0.00000000000E+00  0.00000000000E+00  0.12812187779E+04  0.12812187779E+04  0.00000000000E+00 0. -1.
         21   -1    0    0  502  503 -0.00000000000E+00 -0.00000000000E+00 -0.31794733213E+02  0.31794733213E+02  0.00000000000E+00 0. -1.
         -6    2    1    2    0  503 -0.96597495933E+02  0.10333239165E+02  0.74600627024E+03  0.77224719946E+03  0.17436321222E+03 0.  0.
        -24    2    3    3    0    0 -0.27456572438E+02 -0.21952420988E+02  0.60944280898E+03  0.61574001079E+03  0.80495039046E+02 0.  0.
          6    2    1    2  501    0  0.96597495933E+02 -0.10333239165E+02  0.50341777449E+03  0.54076631170E+03  0.17193282452E+03 0.  0.
         24    2    5    5    0    0 -0.55512081016E-01  0.89921788311E+01  0.36822793123E+03  0.37339349593E+03  0.61237497517E+02 0.  0.
          5    1    5    5  501    0  0.96653008014E+02 -0.19325417996E+02  0.13518984326E+03  0.16737281577E+03  0.47000000000E+01 0. -1.
        -13    1    6    6    0    0 -0.20290913441E+01  0.23781424711E+02  0.34475305982E+03  0.34557827713E+03  0.00000000000E+00 0.  1.
         14    1    6    6    0    0  0.19735792631E+01 -0.14789245880E+02  0.23474871416E+02  0.27815218798E+02  0.00000000000E+00 0. -1.
         -5    1    3    3    0  503 -0.69140923494E+02  0.32285660152E+02  0.13656346126E+03  0.15650718867E+03  0.47000000000E+01 0.  1.
         13    1    4    4    0    0 -0.44402371427E+02 -0.37185539637E+02  0.30530780705E+03  0.31075262186E+03  0.00000000000E+00 0. -1.
        -14    1    4    4    0    0  0.16945798989E+02  0.15233118649E+02  0.30413500193E+03  0.30498738893E+03  0.00000000000E+00 0.  1.
</event>
<event>
12    1  0.8344842E-002  0.1775717E+03  0.7818608E-02  0.1170903E+00
         21   -1    0    0  503  502  0.00000000000E+00  0.00000000000E+00  0.16524803547E+03  0.16524803547E+03  0.00000000000E+00 0.  1.
         21   -1    0    0  501  503 -0.00000000000E+00 -0.00000000000E+00 -0.18896193856E+03  0.18896193856E+03  0.00000000000E+00 0.  1.
          6    2    1    2  501    0 -0.43555665444E+02  0.96961712932E+01  0.28658640425E+01  0.17466000487E+03  0.16883954630E+03 0.  0.
         24    2    3    3    0    0 -0.58247224592E+02  0.67450630932E+02  0.13708254686E+02  0.11390585313E+03  0.69601008225E+02 0.  0.
         -6    2    1    2    0  502  0.43555665444E+02 -0.96961712932E+01 -0.26579767131E+02  0.17954996915E+03  0.17187377831E+03 0.  0.
        -24    2    5    5    0    0 -0.15981738927E+02  0.42336534720E+02 -0.38625577895E+02  0.99429456352E+02  0.79664818907E+02 0.  0.
          5    1    3    3  501    0  0.14691559147E+02 -0.57754459639E+02 -0.10842390644E+02  0.60754151737E+02  0.47000000000E+01 0. -1.
        -13    1    4    4    0    0  0.18263915354E+01 -0.28953417697E+01 -0.16298893273E+02  0.16654507856E+02  0.00000000000E+00 0.  1.
         14    1    4    4    0    0 -0.60073616127E+02  0.70345972702E+02  0.30007147959E+02  0.97251345279E+02  0.00000000000E+00 0. -1.
         -5    1    5    5    0  502  0.59537404371E+02 -0.52032706013E+02  0.12045810764E+02  0.80120512799E+02  0.47000000000E+01 0.  1.
         11    1    6    6    0    0  0.30365344874E+01  0.63024729562E+02 -0.31054981888E+02  0.70326019211E+02  0.00000000000E+00 0. -1.
        -12    1    6    6    0    0 -0.19018273414E+02 -0.20688194842E+02 -0.75705960073E+01  0.29103437140E+02  0.00000000000E+00 0.  1.
</event>
<event>
12    1  0.8344842E-002  0.1861928E+03  0.7818608E-02  0.1162084E+00
         21   -1    0    0  503  502  0.00000000000E+00  0.00000000000E+00  0.82449370777E+02  0.82449370777E+02  0.00000000000E+00 0. -1.
         21   -1    0    0  501  503 -0.00000000000E+00 -0.00000000000E+00 -0.71177172087E+03  0.71177172087E+03  0.00000000000E+00 0. -1.
          6    2    1    2  501    0  0.45159906886E+02  0.53527808091E+02 -0.56961963706E+03  0.59927815282E+03  0.17251994117E+03 0.  0.
         24    2    3    3    0    0  0.72714083297E+01  0.78159438303E+02 -0.22183838135E+03  0.24854157454E+03  0.79992972541E+02 0.  0.
         -6    2    1    2    0  502 -0.45159906886E+02 -0.53527808091E+02 -0.59702713036E+02  0.19494293883E+03  0.17185369366E+03 0.  0.
        -24    2    5    5    0    0 -0.98618939276E+01 -0.92843750140E+02 -0.17743078791E+02  0.12730867292E+03  0.84708101530E+02 0.  0.
          5    1    3    3  501    0  0.37888498557E+02 -0.24631630212E+02 -0.34778125571E+03  0.35073657829E+03  0.47000000000E+01 0. -1.
        -11    1    4    4    0    0  0.24050034232E+02  0.13454555995E+00 -0.10029278429E+03  0.10313614706E+03  0.00000000000E+00 0.  1.
         12    1    4    4    0    0 -0.16778625902E+02  0.78024892743E+02 -0.12154559707E+03  0.14540542748E+03  0.00000000000E+00 0. -1.
         -5    1    5    5    0  502 -0.35298012959E+02  0.39315942049E+02 -0.41959634245E+02  0.67634265901E+02  0.47000000000E+01 0.  1.
         13    1    6    6    0    0 -0.11175054873E+02 -0.19507753697E+02  0.31692373584E+02  0.38856670587E+02  0.00000000000E+00 0. -1.
        -14    1    6    6    0    0  0.13131609451E+01 -0.73335996443E+02 -0.49435452375E+02  0.88452002337E+02  0.00000000000E+00 0.  1.
</event>
<event>
12    1  0.8344842E-002  0.2774885E+03  0.7818608E-02  0.1097180E+00
         21   -1    0    0  501  502  0.00000000000E+00  0.00000000000E+00  0.40380788520E+03  0.40380788520E+03  0.00000000000E+00 0. -1.
         21   -1    0    0  502  503 -0.00000000000E+00 -0.00000000000E+00 -0.22920738266E+03  0.22920738266E+03  0.00000000000E+00 0.  1.
         -6    2    1    2    0  503  0.86194669875E+02 -0.19888724255E+03 -0.43486582588E+02  0.28008208371E+03  0.17195707136E+03 0.  0.
        -24    2    3    3    0    0  0.10626685616E+03 -0.21121046768E+03 -0.27638496457E+02  0.25130698382E+03  0.80553133129E+02 0.  0.
          6    2    1    2  501    0 -0.86194669875E+02  0.19888724255E+03  0.21808708513E+03  0.35293318415E+03  0.17324606608E+03 0.  0.
         24    2    5    5    0    0 -0.76555864647E+02  0.43808160299E+02  0.12295973451E+03  0.17068683672E+03  0.78961665362E+02 0.  0.
          5    1    5    5  501    0 -0.96388052285E+01  0.15507908225E+03  0.95127350621E+02  0.18224634743E+03  0.47000000000E+01 0. -1.
        -13    1    6    6    0    0 -0.57653751377E+02  0.37945942217E+02  0.29339446381E+02  0.74997684581E+02  0.00000000000E+00 0.  1.
         14    1    6    6    0    0 -0.18902113270E+02  0.58622180811E+01  0.93620288129E+02  0.95689152134E+02  0.00000000000E+00 0. -1.
         -5    1    3    3    0  503 -0.20072186285E+02  0.12323225130E+02 -0.15848086131E+02  0.28775099893E+02  0.47000000000E+01 0.  1.
         11    1    4    4    0    0  0.11407349092E+01 -0.29668289243E+01 -0.17527761856E+02  0.17813640439E+02  0.00000000000E+00 0. -1.
        -12    1    4    4    0    0  0.10512612125E+03 -0.20824363875E+03 -0.10110734601E+02  0.23349334338E+03  0.00000000000E+00 0.  1.
</event>
<event>
12    1  0.8344842E-002  0.3006111E+03  0.7818608E-02  0.1085021E+00
         21   -1    0    0  503  502  0.00000000000E+00  0.00000000000E+00  0.12450186430E+04  0.12450186430E+04  0.00000000000E+00 0. -1.
         21   -1    0    0  501  503 -0.00000000000E+00 -0.00000000000E+00 -0.81379607988E+02  0.81379607988E+02  0.00000000000E+00 0. -1.
          6    2    1    2  501    0 -0.79252088282E+02  0.23205010347E+03  0.36231916750E+03  0.47078893043E+03  0.17389334049E+03 0.  0.
         24    2    3    3    0    0  0.15795846613E+02  0.12274287208E+03  0.23920759094E+03  0.28062917905E+03  0.78848862752E+02 0.  0.
         -6    2    1    2    0  502  0.79252088282E+02 -0.23205010347E+03  0.80131986755E+03  0.85560932058E+03  0.17270099979E+03 0.  0.
        -24    2    5    5    0    0  0.18188413645E+02 -0.22572915182E+03  0.66525398038E+03  0.70626159734E+03  0.70413898365E+02 0.  0.
          5    1    3    3  501    0 -0.95047934895E+02  0.10930723139E+03  0.12311157656E+03  0.19015975138E+03  0.47000000000E+01 0. -1.
        -11    1    4    4    0    0  0.25076247011E+02  0.57093624648E+02  0.49336148405E+02  0.79514499804E+02  0.00000000000E+00 0.  1.
         12    1    4    4    0    0 -0.92804003983E+01  0.65649247430E+02  0.18987144254E+03  0.20111467925E+03  0.00000000000E+00 0. -1.
         -5    1    5    5    0  502  0.61063674637E+02 -0.63209516458E+01  0.13606588716E+03  0.14934772325E+03  0.47000000000E+01 0.  1.
         13    1    6    6    0    0  0.23372036849E+02 -0.22770898455E+03  0.62446870555E+03  0.66510059237E+03  0.00000000000E+00 0. -1.
        -14    1    6    6    0    0 -0.51836232034E+01  0.19798327273E+01  0.40785274833E+02  0.41161004972E+02  0.00000000000E+00 0.  1.
</event>
<event>
12    1  0.8344842E-002  0.1930736E+03  0.7818608E-02  0.1155764E+00
         21   -1    0    0  501  502  0.00000000000E+00  0.00000000000E+00  0.31981899775E+03  0.31981899775E+03  0.00000000000E+00 0. -1.
         21   -1    0    0  502  503 -0.00000000000E+00 -0.00000000000E+00 -0.11665131937E+03  0.11665131937E+03  0.00000000000E+00 0. -1.
         -6    2    1    2    0  503  0.82407460870E+02  0.27333988390E+02  0.92069862008E+02  0.21371451119E+03  0.17221758410E+03 0.  0.
        -24    2    3    3    0    0  0.40730266703E+02  0.43497037774E+02 -0.12318612789E+02  0.10006031483E+03  0.79431552058E+02 0.  0.
          6    2    1    2  501    0 -0.82407460870E+02 -0.27333988390E+02  0.11109781637E+03  0.22275580593E+03  0.17245082704E+03 0.  0.
         24    2    5    5    0    0 -0.32682217916E+02 -0.63686212628E+02  0.11973652792E+03  0.16037951772E+03  0.79124538156E+02 0.  0.
          5    1    5    5  501    0 -0.49725242954E+02  0.36352224238E+02 -0.86387115494E+01  0.62376288212E+02  0.47000000000E+01 0. -1.
        -11    1    6    6    0    0  0.53688898468E+01  0.14220878326E+02  0.39081223791E+01  0.15694960308E+02  0.00000000000E+00 0.  1.
         12    1    6    6    0    0 -0.38051107763E+02 -0.77907090954E+02  0.11582840554E+03  0.14468455741E+03  0.00000000000E+00 0. -1.
         -5    1    3    3    0  503  0.41677194167E+02 -0.16163049383E+02  0.10438847480E+03  0.11365419636E+03  0.47000000000E+01 0.  1.
         11    1    4    4    0    0  0.48002100089E+02 -0.60204063625E+01 -0.12672992866E+02  0.50010515433E+02  0.00000000000E+00 0. -1.
        -12    1    4    4    0    0 -0.72718333859E+01  0.49517444136E+02  0.35438007725E+00  0.50049799398E+02  0.00000000000E+00 0.  1.
</event>
<event>
12    1  0.8344842E-002  0.1930674E+03  0.7818608E-02  0.1155804E+00
         21   -1    0    0  503  502  0.00000000000E+00  0.00000000000E+00  0.10219565924E+03  0.10219565924E+03  0.00000000000E+00 0. -1.
         21   -1    0    0  501  503 -0.00000000000E+00 -0.00000000000E+00 -0.50235078796E+03  0.50235078796E+03  0.00000000000E+00 0. -1.
          6    2    1    2  501    0  0.66299132625E+01  0.84932322300E+02 -0.35853979067E+03  0.40704486177E+03  0.17285046391E+03 0.  0.
         24    2    3    3    0    0 -0.43746773040E+02  0.96502504291E+02 -0.19842425099E+03  0.23872743640E+03  0.79950559867E+02 0.  0.
         -6    2    1    2    0  502 -0.66299132625E+01 -0.84932322300E+02 -0.41615338049E+02  0.19750158543E+03  0.17325583616E+03 0.  0.
        -24    2    5    5    0    0 -0.20313884660E+02 -0.92417204079E+02 -0.85580524607E+02  0.15061553038E+03  0.80046350828E+02 0.  0.
          5    1    3    3  501    0  0.50376686302E+02 -0.11570181991E+02 -0.16011553968E+03  0.16831742537E+03  0.47000000000E+01 0. -1.
        -13    1    4    4    0    0 -0.16877756344E+02  0.21619609700E+02 -0.28309871733E+01  0.27573187541E+02  0.00000000000E+00 0.  1.
         14    1    4    4    0    0 -0.26869016695E+02  0.74882894591E+02 -0.19559326382E+03  0.21115424886E+03  0.00000000000E+00 0. -1.
         -5    1    5    5    0  502  0.13683971398E+02  0.74848817789E+01  0.43965186558E+02  0.46886055043E+02  0.47000000000E+01 0.  1.
         13    1    6    6    0    0 -0.36870927775E+02 -0.94671259372E+02 -0.54413343380E+02  0.11525157094E+03  0.00000000000E+00 0. -1.
        -14    1    6    6    0    0  0.16557043115E+02  0.22540552925E+01 -0.31167181227E+02  0.35363959444E+02  0.00000000000E+00 0.  1.
</event>
<event>
12    1  0.8344842E-002  0.2604812E+03  0.7818608E-02  0.1107457E+00
         21   -1    0    0  503  502  0.00000000000E+00  0.00000000000E+00  0.61295121758E+03  0.61295121758E+03  0.00000000000E+00 0.  1.
         21   -1    0    0  501  503 -0.00000000000E+00 -0.00000000000E+00 -0.28602564387E+03  0.28602564387E+03  0.00000000000E+00 0.  1.
          6    2    1    2  501    0  0.42890645155E+02 -0.19150037758E+03 -0.18966320476E+03  0.32221512336E+03  0.17128471160E+03 0.  0.
         24    2    3    3    0    0  0.70710843992E+02 -0.79111556902E+02 -0.14223772675E+03  0.19700938690E+03  0.85571407161E+02 0.  0.
         -6    2    1    2    0  502 -0.42890645155E+02  0.19150037758E+03  0.51658877847E+03  0.57676173809E+03  0.16516093493E+03 0.  0.
        -24    2    5    5    0    0  0.30010586850E+02  0.48405241451E+02  0.19261692468E+03  0.21513947707E+03  0.77071474619E+02 0.  0.
          5    1    3    3  501    0 -0.27820198837E+02 -0.11238882068E+03 -0.47425478009E+02  0.12520573646E+03  0.47000000000E+01 0. -1.
        -13    1    4    4    0    0  0.45963482483E+02 -0.79521197582E+02 -0.14547862146E+03  0.17204735362E+03  0.00000000000E+00 0.  1.
         14    1    4    4    0    0  0.24747361509E+02  0.40964067970E+00  0.32408947067E+01  0.24962033283E+02  0.00000000000E+00 0. -1.
         -5    1    5    5    0  502 -0.72901232005E+02  0.14309513613E+03  0.32397185379E+03  0.36162226101E+03  0.47000000000E+01 0.  1.
         11    1    6    6    0    0  0.17217521211E+02  0.49643087607E+02  0.51960487798E+02  0.73897032931E+02  0.00000000000E+00 0. -1.
        -12    1    6    6    0    0  0.12793065639E+02 -0.12378461556E+01  0.14065643688E+03  0.14124244414E+03  0.00000000000E+00 0.  1.
</event>
<event>
12    1  0.8344842E-002  0.2977208E+03  0.7818608E-02  0.1086569E+00
         21   -1    0    0  501  502  0.00000000000E+00  0.00000000000E+00  0.96088682783E+03  0.96088682783E+03  0.00000000000E+00 0.  1.
         21   -1    0    0  502  503 -0.00000000000E+00 -0.00000000000E+00 -0.11868484325E+03  0.11868484325E+03  0.00000000000E+00 0. -1.
         -6    2    1    2    0  503 -0.93130491526E+02 -0.22462353499E+03  0.16497454519E+03  0.34037371680E+03  0.17178080686E+03 0.  0.
        -24    2    3    3    0    0 -0.81212530874E+02 -0.24542574479E+03  0.16197698995E+03  0.31575979683E+03  0.81476577303E+02 0.  0.
          6    2    1    2  501    0  0.93130491526E+02  0.22462353499E+03  0.67722743940E+03  0.73919795428E+03  0.16925598962E+03 0.  0.
         24    2    5    5    0    0  0.10800770410E+02  0.65843345906E+02  0.36201087531E+03  0.37674395210E+03  0.80200553367E+02 0.  0.
          5    1    5    5  501    0  0.82329721116E+02  0.15878018908E+03  0.31521656408E+03  0.36245400218E+03  0.47000000000E+01 0. -1.
        -13    1    6    6    0    0 -0.30513902273E+02  0.38838975868E+02  0.12029340260E+03  0.13003871342E+03  0.00000000000E+00 0.  1.
         14    1    6    6    0    0  0.41314672683E+02  0.27004370038E+02  0.24171747271E+03  0.24670523869E+03  0.00000000000E+00 0. -1.
         -5    1    3    3    0  503 -0.11917960651E+02  0.20802209800E+02  0.29975552388E+01  0.24613919965E+02  0.47000000000E+01 0.  1.
         11    1    4    4    0    0 -0.38296109678E+02 -0.50755623100E+02  0.84376596666E+01  0.64139842480E+02  0.00000000000E+00 0. -1.
        -12    1    4    4    0    0 -0.42916421196E+02 -0.19467012169E+03  0.15353933028E+03  0.25161995435E+03  0.00000000000E+00 0.  1.
</event>
<event>
12    1  0.8344842E-002  0.2483829E+03  0.7818608E-02  0.1114404E+00
         21   -1    0    0  501  502  0.00000000000E+00  0.00000000000E+00  0.28539103549E+03  0.28539103549E+03  0.00000000000E+00 0. -1.
         21   -1    0    0  502  503 -0.00000000000E+00 -0.00000000000E+00 -0.21713482939E+03  0.21713482939E+03  0.00000000000E+00 0. -1.
         -6    2    1    2    0  503 -0.16762592230E+03 -0.60290340816E+02  0.14232949704E+02  0.24833583022E+03  0.17243761971E+03 0.  0.
        -24    2    3    3    0    0 -0.14397564687E+03 -0.95914399049E+02 -0.20123905219E+02  0.19328228780E+03  0.83812364124E+02 0.  0.
          6    2    1    2  501    0  0.16762592230E+03  0.60290340816E+02  0.54023256396E+02  0.25419003465E+03  0.17309155514E+03 0.  0.
         24    2    5    5    0    0  0.56312177054E+02  0.86496101582E+02  0.48531446572E+02  0.13960494944E+03  0.80508407804E+02 0.  0.
          5    1    5    5  501    0  0.11131374525E+03 -0.26205760766E+02  0.54918098245E+01  0.11458508521E+03  0.47000000000E+01 0. -1.
        -13    1    6    6    0    0  0.48000926287E+02  0.54969648715E+02 -0.89462877738E+01  0.73524059118E+02  0.00000000000E+00 0.  1.
         14    1    6    6    0    0  0.83112507674E+01  0.31526452867E+02  0.57477734346E+02  0.66080890318E+02  0.00000000000E+00 0. -1.
         -5    1    3    3    0  503 -0.23650275427E+02  0.35624058233E+02  0.34356854922E+02  0.55053542419E+02  0.47000000000E+01 0.  1.
         11    1    4    4    0    0 -0.13769466211E+03 -0.62865899735E+02  0.47555927285E+01  0.15144159595E+03  0.00000000000E+00 0. -1.
        -12    1    4    4    0    0 -0.62809847660E+01 -0.33048499315E+02 -0.24879497947E+02  0.41840691852E+02  0.00000000000E+00 0.  1.
</event>
<event>
12    1  0.8344842E-002  0.2581574E+03  0.7818608E-02  0.1108360E+00
         21   -1    0    0  501  502  0.00000000000E+00  0.00000000000E+00  0.53114724972E+03  0.53114724972E+03  0.00000000000E+00 0. -1.
         21   -1    0    0  502  503 -0.00000000000E+00 -0.00000000000E+00 -0.14448621532E+03  0.14448621532E+03  0.00000000000E+00 0. -1.
         -6    2    1    2    0  503 -0.15056577802E+03  0.11718808079E+03  0.69493244508E+02  0.26668281107E+03  0.17287946929E+03 0.  0.
        -24    2    3    3    0    0 -0.17973985219E+03  0.11221392543E+03  0.51359605388E+02  0.23165728191E+03  0.78287340425E+02 0.  0.
          6    2    1    2  501    0  0.15056577802E+03 -0.11718808079E+03  0.31716778989E+03  0.40895065397E+03  0.17390264704E+03 0.  0.
         24    2    5    5    0    0  0.53050894887E+02 -0.11696632517E+03  0.24399581921E+03  0.28694479796E+03  0.79421902592E+02 0.  0.
          5    1    5    5  501    0  0.97514883129E+02 -0.22175561520E+00  0.73171970681E+02  0.12200585601E+03  0.47000000000E+01 0. -1.
        -13    1    6    6    0    0 -0.77481607513E+01 -0.25598093073E+02  0.10114004570E+02  0.28593521162E+02  0.00000000000E+00 0.  1.
         14    1    6    6    0    0  0.60799055638E+02 -0.91368232098E+02  0.23388181464E+03  0.25835127679E+03  0.00000000000E+00 0. -1.
         -5    1    3    3    0  503  0.29174074172E+02  0.49741553514E+01  0.18133639120E+02  0.35025529161E+02  0.47000000000E+01 0.  1.
         13    1    4    4    0    0 -0.17824462856E+03  0.88251588232E+02  0.57182178475E+02  0.20695239059E+03  0.00000000000E+00 0. -1.
        -14    1    4    4    0    0 -0.14952236304E+01  0.23962337202E+02 -0.58225730872E+01  0.24704891322E+02  0.00000000000E+00 0.  1.
</event>
<event>
12    1  0.8344842E-002  0.1869806E+03  0.7818608E-02  0.1161310E+00
         21   -1    0    0  501  502  0.00000000000E+00  0.00000000000E+00  0.12785372343E+03  0.12785372343E+03  0.00000000000E+00 0.  1.
         21   -1    0    0  502  503 -0.00000000000E+00 -0.00000000000E+00 -0.63977922144E+03  0.63977922144E+03  0.00000000000E+00 0.  1.
         -6    2    1    2    0  503  0.40403587247E+02  0.58209408136E+02 -0.54651478215E+03  0.57747990055E+03  0.17257996226E+03 0.  0.
        -24    2    3    3    0    0  0.32736122824E+02  0.21022392478E+01 -0.48620762146E+03  0.49461948755E+03  0.84702497940E+02 0.  0.
          6    2    1    2  501    0 -0.40403587247E+02 -0.58209408136E+02  0.34589284140E+02  0.19015304431E+03  0.17303461106E+03 0.  0.
         24    2    5    5    0    0  0.25844788390E+02 -0.29817821990E+02  0.65879500333E+02  0.11143775312E+03  0.80754000894E+02 0.  0.
          5    1    5    5  501    0 -0.66248375637E+02 -0.28391586146E+02 -0.31290216193E+02  0.78715291194E+02  0.47000000000E+01 0. -1.
        -13    1    6    6    0    0 -0.76130809185E+01  0.14407482434E+02  0.51687218282E+02  0.54195046683E+02  0.00000000000E+00 0.  1.
         14    1    6    6    0    0  0.33457869308E+02 -0.44225304424E+02  0.14192282050E+02  0.57242706434E+02  0.00000000000E+00 0. -1.
         -5    1    3    3    0  503  0.76674644230E+01  0.56107168888E+02 -0.60307160698E+02  0.82860413001E+02  0.47000000000E+01 0.  1.
         13    1    4    4    0    0 -0.14293964896E+02 -0.28285210111E+02 -0.24250781594E+03  0.24456984960E+03  0.00000000000E+00 0. -1.
        -14    1    4    4    0    0  0.47030087720E+02  0.30387449359E+02 -0.24369980551E+03  0.25004963795E+03  0.00000000000E+00 0.  1.
</event>
<event>
12    1  0.8344842E-002  0.2042241E+03  0.7818608E-02  0.1146233E+00
         21   -1    0    0  501  502  0.00000000000E+00  0.00000000000E+00  0.40141224688E+02  0.40141224688E+02  0.00000000000E+00 0. -1.
         21   -1    0    0  502  503 -0.00000000000E+00 -0.00000000000E+00 -0.11161522564E+04  0.11161522564E+04  0.00000000000E+00 0. -1.
         -6    2    1    2    0  503 -0.10617009331E+01  0.10973838478E+03 -0.69029163305E+03  0.71986806950E+03  0.17223199043E+03 0.  0.
        -24    2    3    3    0    0  0.45781132065E+02  0.11011773999E+03 -0.61044669978E+03  0.62717665522E+03  0.80520524465E+02 0.  0.
          6    2    1    2  501    0  0.10617009331E+01 -0.10973838478E+03 -0.38571939866E+03  0.43642541159E+03  0.17217446115E+03 0.  0.
         24    2    5    5    0    0  0.11556749008E+02 -0.13995045280E+03 -0.25502660396E+03  0.30179401972E+03  0.79507068403E+02 0.  0.
          5    1    5    5  501    0 -0.10495048075E+02  0.30212068023E+02 -0.13069279471E+03  0.13463139187E+03  0.47000000000E+01 0. -1.
        -11    1    6    6    0    0  0.10247781617E+02  0.78489791371E+01 -0.28832054104E+02  0.31589726896E+02  0.00000000000E+00 0.  1.
         12    1    6    6    0    0  0.13089673917E+01 -0.14779943194E+03 -0.22619454985E+03  0.27020429282E+03  0.00000000000E+00 0. -1.
         -5    1    3    3    0  503 -0.46842832999E+02 -0.37935520695E+00 -0.79844933268E+02  0.92691414286E+02  0.47000000000E+01 0.  1.
         13    1    4    4    0    0  0.63590004637E+02  0.50108450909E+02 -0.32279832700E+03  0.33279619207E+03  0.00000000000E+00 0. -1.
        -14    1    4    4    0    0 -0.17808872572E+02  0.60009289076E+02 -0.28764837279E+03  0.29438046315E+03  0.00000000000E+00 0.  1.
</event>
<event>
12    1  0.8344842E-002  0.1888434E+03  0.7818608E-02  0.1159604E+00
         21   -1    0    0  503  502  0.00000000000E+00  0.00000000000E+00  0.59679046061E+02  0.59679046061E+02  0.00000000000E+00 0.  1.
         21   -1    0    0  501  503 -0.00000000000E+00 -0.00000000000E+00 -0.91334312519E+03  0.91334312519E+03  0.00000000000E+00 0.  1.
          6    2    1    2  501    0 -0.56138626602E+02 -0.52711651407E+02 -0.71318983922E+03  0.73766111491E+03  0.17197124784E+03 0.  0.
         24    2    3    3    0    0 -0.97570680671E+02 -0.70824817671E+01 -0.48874735143E+03  0.50486258280E+03  0.80262411516E+02 0.  0.
         -6    2    1    2    0  502  0.56138626602E+02  0.52711651407E+02 -0.14047423990E+03  0.23536105634E+03  0.17242897429E+03 0.  0.
        -24    2    5    5    0    0  0.43609504871E+02 -0.19070828905E+02 -0.21488758025E+02  0.95756836244E+02  0.80262815399E+02 0.  0.
          5    1    3    3  501    0  0.41432054069E+02 -0.45629169640E+02 -0.22444248779E+03  0.23279853211E+03  0.47000000000E+01 0. -1.
        -13    1    4    4    0    0 -0.21036579796E+02 -0.17130332963E+02 -0.33451314650E+02  0.43069437525E+02  0.00000000000E+00 0.  1.
         14    1    4    4    0    0 -0.76534100875E+02  0.10047851196E+02 -0.45529603678E+03  0.46179314527E+03  0.00000000000E+00 0. -1.
         -5    1    5    5    0  502  0.12529121731E+02  0.71782480313E+02 -0.11898548188E+03  0.13960422010E+03  0.47000000000E+01 0.  1.
         11    1    6    6    0    0  0.46747852770E+02 -0.34278554198E+02 -0.40865986209E+02  0.70925382236E+02  0.00000000000E+00 0. -1.
        -12    1    6    6    0    0 -0.31383478987E+01  0.15207725292E+02  0.19377228184E+02  0.24831454009E+02  0.00000000000E+00 0.  1.
</event>
<event>
12    1  0.8344842E-002  0.1768066E+03  0.7818608E-02  0.1171933E+00
         21   -1    0    0  501  502  0.00000000000E+00  0.00000000000E+00  0.58128197104E+03  0.58128197104E+03  0.00000000000E+00 0. -1.
         21   -1    0    0  502  503 -0.00000000000E+00 -0.00000000000E+00 -0.52667791700E+02  0.52667791700E+02  0.00000000000E+00 0.  1.
         -6    2    1    2    0  503 -0.91212489066E+01 -0.39648334559E+02  0.24754446130E+03  0.30189439374E+03  0.16794873337E+03 0.  0.
        -24    2    3    3    0    0  0.72376271704E+01 -0.63902702489E+02  0.83153173395E+02  0.13485406111E+03  0.84470284234E+02 0.  0.
          6    2    1    2  501    0  0.91212489066E+01  0.39648334559E+02  0.28106971804E+03  0.33205536899E+03  0.17206218080E+03 0.  0.
         24    2    5    5    0    0 -0.13648473677E+02 -0.28751167572E+02  0.22475057384E+03  0.24045357773E+03  0.79323339145E+02 0.  0.
          5    1    5    5  501    0  0.22769722584E+02  0.68399502131E+02  0.56319144201E+02  0.91601791259E+02  0.47000000000E+01 0. -1.
        -13    1    6    6    0    0  0.17594717737E+02 -0.33339810950E+02  0.18913204628E+03  0.19285239956E+03  0.00000000000E+00 0.  1.
         14    1    6    6    0    0 -0.31243191414E+02  0.45886433783E+01  0.35618527557E+02  0.47601178169E+02  0.00000000000E+00 0. -1.
         -5    1    3    3    0  503 -0.16358876077E+02  0.24254367930E+02  0.16439128790E+03  0.16704033264E+03  0.47000000000E+01 0.  1.
         11    1    4    4    0    0  0.10438994736E+02 -0.56804175475E+02  0.10045846068E+03  0.11587747532E+03  0.00000000000E+00 0. -1.
        -12    1    4    4    0    0 -0.32013675654E+01 -0.70985270141E+01 -0.17305287290E+02  0.18976585790E+02  0.00000000000E+00 0.  1.
</event>
<event>
12    1  0.8344842E-002  0.1783651E+03  0.7818608E-02  0.1170100E+00
         21   -1    0    0  501  502  0.00000000000E+00  0.00000000000E+00  0.10907701416E+04  0.10907701416E+04  0.00000000000E+00 0. -1.
         21   -1    0    0  502  503 -0.00000000000E+00 -0.00000000000E+00 -0.62789774935E+02  0.62789774935E+02  0.00000000000E+00 0. -1.
         -6    2    1    2    0  503  0.47076166667E+02  0.41163726543E+01  0.87119260827E+02  0.19594113501E+03  0.16902678128E+03 0.  0.
        -24    2    3    3    0    0  0.74326444083E+02  0.50378953435E+01  0.59124083907E+01  0.11015028640E+03  0.80921742078E+02 0.  0.
          6    2    1    2  501    0 -0.47076166667E+02 -0.41163726543E+01  0.94086110584E+03  0.95761878153E+03  0.17199127960E+03 0.  0.
         24    2    5    5    0    0  0.59471963147E+01  0.55810714738E+02  0.55777458899E+03  0.56623648477E+03  0.79756250749E+02 0.  0.
          5    1    5    5  501    0 -0.53023362982E+02 -0.59927087392E+02  0.38308651685E+03  0.39138229676E+03  0.47000000000E+01 0. -1.
        -11    1    6    6    0    0  0.41309705658E+02  0.34593268308E+02  0.37610740757E+03  0.37994732270E+03  0.00000000000E+00 0.  1.
         12    1    6    6    0    0 -0.35362509344E+02  0.21217446430E+02  0.18166718142E+03  0.18628916207E+03  0.00000000000E+00 0. -1.
         -5    1    3    3    0  503 -0.27250277416E+02 -0.92152268928E+00  0.81206852437E+02  0.85790848614E+02  0.47000000000E+01 0.  1.
         11    1    4    4    0    0  0.43323311712E+02 -0.35885300903E+02  0.14504791112E+02  0.58095207408E+02  0.00000000000E+00 0. -1.
        -12    1    4    4    0    0  0.31003132371E+02  0.40923196246E+02 -0.85923827208E+01  0.52055078990E+02  0.00000000000E+00 0.  1.
</event>
<event>
12    1  0.8344842E-002  0.2126333E+03  0.7818608E-02  0.1139587E+00
         21   -1    0    0  501  502  0.00000000000E+00  0.00000000000E+00  0.73402323653E+02  0.73402323653E+02  0.00000000000E+00 0.  1.
         21   -1    0    0  502  503 -0.00000000000E+00 -0.00000000000E+00 -0.12600661663E+04  0.12600661663E+04  0.00000000000E+00 0.  1.
         -6    2    1    2    0  503 -0.12394344637E+03 -0.14783989906E+02 -0.10701986949E+04  0.10910286797E+04  0.17157444177E+03 0.  0.
        -24    2    3    3    0    0 -0.14921941482E+03 -0.13402208831E+02 -0.60765781767E+03  0.62777179953E+03  0.49024034407E+02 0.  0.
          6    2    1    2  501    0  0.12394344637E+03  0.14783989906E+02 -0.11646514771E+03  0.24243981023E+03  0.17214060154E+03 0.  0.
         24    2    5    5    0    0  0.14175429581E+03  0.48889524864E+02 -0.74398372158E+02  0.18523738478E+03  0.79330353073E+02 0.  0.
          5    1    5    5  501    0 -0.17810849434E+02 -0.34105534958E+02 -0.42066775549E+02  0.57202425451E+02  0.47000000000E+01 0. -1.
        -11    1    6    6    0    0  0.75331882772E+02  0.60527255686E+02 -0.20204357468E+02  0.98725160438E+02  0.00000000000E+00 0.  1.
         12    1    6    6    0    0  0.66422413037E+02 -0.11637730822E+02 -0.54194014691E+02  0.86512224342E+02  0.00000000000E+00 0. -1.
         -5    1    3    3    0  503  0.25275968449E+02 -0.13817810755E+01 -0.46254087723E+03  0.46325688015E+03  0.47000000000E+01 0.  1.
         11    1    4    4    0    0 -0.11497085919E+02  0.13055471183E+02 -0.67224865573E+02  0.69439260247E+02  0.00000000000E+00 0. -1.
        -12    1    4    4    0    0 -0.13772232891E+03 -0.26457680014E+02 -0.54043295210E+03  0.55833253929E+03  0.00000000000E+00 0.  1.
</event>
<event>
12    1  0.8344842E-002  0.1830239E+03  0.7818608E-02  0.1166323E+00
         21   -1    0    0  501  502  0.00000000000E+00  0.00000000000E+00  0.72771618956E+03  0.72771618956E+03  0.00000000000E+00 0.  1.
         21   -1    0    0  502  503 -0.00000000000E+00 -0.00000000000E+00 -0.44582647733E+02  0.44582647733E+02  0.00000000000E+00 0.  1.
         -6    2    1    2    0  503 -0.28433033517E+02  0.42363825886E+02  0.34343274815E+03  0.38643051749E+03  0.16964480896E+03 0.  0.
        -24    2    3    3    0    0 -0.80776070301E+02  0.34738233767E+02  0.19469129435E+03  0.22849365278E+03  0.81074847194E+02 0.  0.
          6    2    1    2  501    0  0.28433033517E+02 -0.42363825886E+02  0.33970079368E+03  0.38586831981E+03  0.17576859749E+03 0.  0.
         24    2    5    5    0    0  0.11658018718E+02 -0.95813151577E+02  0.26273233031E+03  0.29055585529E+03  0.77963826476E+02 0.  0.
          5    1    5    5  501    0  0.16775014799E+02  0.53449325691E+02  0.76968463371E+02  0.95312464516E+02  0.47000000000E+01 0. -1.
        -13    1    6    6    0    0  0.44140661185E+02 -0.68756375565E+02  0.16774177170E+03  0.18658279429E+03  0.00000000000E+00 0.  1.
         14    1    6    6    0    0 -0.32482642467E+02 -0.27056776012E+02  0.94990558605E+02  0.10397306100E+03  0.00000000000E+00 0. -1.
         -5    1    3    3    0  503  0.52343036783E+02  0.76255921193E+01  0.14874145380E+03  0.15793686471E+03  0.47000000000E+01 0.  1.
         13    1    4    4    0    0  0.14840293871E+02  0.31742317661E+01  0.49720602378E+02  0.51985078342E+02  0.00000000000E+00 0. -1.
        -14    1    4    4    0    0 -0.95616364172E+02  0.31564002001E+02  0.14497069197E+03  0.17650857444E+03  0.00000000000E+00 0.  1.
</event>
<event>
12    1  0.8344842E-002  0.2058971E+03  0.7818608E-02  0.1145105E+00
         21   -1    0    0  501  502  0.00000000000E+00  0.00000000000E+00  0.58235612227E+02  0.58235612227E+02  0.00000000000E+00 0.  1.
         21   -1    0    0  502  503 -0.00000000000E+00 -0.00000000000E+00 -0.72425926601E+03  0.72425926601E+03  0.00000000000E+00 0.  1.
         -6    2    1    2    0  503  0.23622745554E+02  0.10993890689E+03 -0.32285387252E+03  0.38292064384E+03  0.17247898169E+03 0.  0.
        -24    2    3    3    0    0  0.25823704661E+02  0.36272885528E+02 -0.57594100594E+02  0.10757292999E+03  0.79197657138E+02 0.  0.
          6    2    1    2  501    0 -0.23622745554E+02 -0.10993890689E+03 -0.34316978127E+03  0.39957423439E+03  0.17102477206E+03 0.  0.
         24    2    5    5    0    0  0.20894313480E+02 -0.13184265013E+03 -0.26836330072E+03  0.30968740530E+03  0.77899750307E+02 0.  0.
          5    1    5    5  501    0 -0.44517059034E+02  0.21903743237E+02 -0.74806480550E+02  0.89886829097E+02  0.47000000000E+01 0. -1.
        -13    1    6    6    0    0  0.82304563986E+01 -0.79643993789E+02 -0.23039128358E+03  0.24390787135E+03  0.00000000000E+00 0.  1.
         14    1    6    6    0    0  0.12663857081E+02 -0.52198656343E+02 -0.37972017138E+02  0.65779533943E+02  0.00000000000E+00 0. -1.
         -5    1    3    3    0  503 -0.22009591071E+01  0.73666021366E+02 -0.26525977192E+03  0.27534771385E+03  0.47000000000E+01 0.  1.
         11    1    4    4    0    0  0.31222043519E-01 -0.23557499931E+02 -0.55938733164E+01  0.24212562783E+02  0.00000000000E+00 0. -1.
        -12    1    4    4    0    0  0.25792482618E+02  0.59830385459E+02 -0.52000227278E+02  0.83360367206E+02  0.00000000000E+00 0.  1.
</event>
<event>
12    1  0.8344842E-002  0.2008723E+03  0.7818608E-02  0.1149518E+00
         21   -1    0    0  501  502  0.00000000000E+00  0.00000000000E+00  0.30498116851E+02  0.30498116851E+02  0.00000000000E+00 0. -1.
         21   -1    0    0  502  503 -0.00000000000E+00 -0.00000000000E+00 -0.23600133641E+04  0.23600133641E+04  0.00000000000E+00 0. -1.
         -6    2    1    2    0  503  0.31245415163E+02  0.99683902540E+02 -0.19591993031E+04  0.19692234823E+04  0.16871887174E+03 0.  0.
        -24    2    3    3    0    0  0.37713720553E+01 -0.20976068596E+02 -0.74895189588E+03  0.75265678528E+03  0.71477796443E+02 0.  0.
          6    2    1    2  501    0 -0.31245415163E+02 -0.99683902540E+02 -0.37031594414E+03  0.42128799861E+03  0.17157075187E+03 0.  0.
         24    2    5    5    0    0 -0.70770173828E+02 -0.47652100285E+02 -0.31420171956E+03  0.33503018046E+03  0.79014942103E+02 0.  0.
          5    1    5    5  501    0  0.39524758665E+02 -0.52031802255E+02 -0.56114224575E+02  0.86257818156E+02  0.47000000000E+01 0. -1.
        -11    1    6    6    0    0  0.10346689747E+02  0.10733137829E+02 -0.25745799959E+02  0.29750637840E+02  0.00000000000E+00 0.  1.
         12    1    6    6    0    0 -0.81116863574E+02 -0.58385238114E+02 -0.28845591960E+03  0.30527954262E+03  0.00000000000E+00 0. -1.
         -5    1    3    3    0  503  0.27474043107E+02  0.12065997114E+03 -0.12102474072E+04  0.12165666970E+04  0.47000000000E+01 0.  1.
         13    1    4    4    0    0  0.10858351177E+02  0.19001120265E+02 -0.49468140877E+03  0.49516526791E+03  0.00000000000E+00 0. -1.
        -14    1    4    4    0    0 -0.70869791220E+01 -0.39977188860E+02 -0.25427048711E+03  0.25749151737E+03  0.00000000000E+00 0.  1.
</event>
<event>
12    1  0.8344842E-002  0.1958825E+03  0.7818608E-02  0.1153477E+00
         21   -1    0    0  503  502  0.00000000000E+00  0.00000000000E+00  0.95504830502E+03  0.95504830502E+03  0.00000000000E+00 0. -1.
         21   -1    0    0  501  503 -0.00000000000E+00 -0.00000000000E+00 -0.50830661208E+02  0.50830661208E+02  0.00000000000E+00 0.  1.
          6    2    1    2  501    0  0.93076320443E+02 -0.22086991131E+02  0.68365960183E+03  0.71089455472E+03  0.16979275650E+03 0.  0.
         24    2    3    3    0    0  0.53206818010E+02  0.27976693103E+02  0.19375119176E+03  0.21680115266E+03  0.76482381292E+02 0.  0.
         -6    2    1    2    0  502 -0.93076320443E+02  0.22086991131E+02  0.22055804198E+03  0.29498441150E+03  0.17093541629E+03 0.  0.
        -24    2    5    5    0    0  0.53019607652E+01  0.11028819827E+02  0.15959836337E+03  0.17862831247E+03  0.79288654736E+02 0.  0.
          5    1    3    3  501    0  0.39869502434E+02 -0.50063684234E+02  0.48990841007E+03  0.49409340206E+03  0.47000000000E+01 0. -1.
        -11    1    4    4    0    0  0.65183104589E+02  0.82052939621E+01  0.95823563526E+02  0.11618226758E+03  0.00000000000E+00 0.  1.
         12    1    4    4    0    0 -0.11976286579E+02  0.19771399141E+02  0.97927628234E+02  0.10061888508E+03  0.00000000000E+00 0. -1.
         -5    1    5    5    0  502 -0.98378281208E+02  0.11058171303E+02  0.60959678610E+02  0.11635609903E+03  0.47000000000E+01 0.  1.
         11    1    6    6    0    0  0.17812090452E+02 -0.28031394267E+02  0.38886781254E+02  0.51139137528E+02  0.00000000000E+00 0. -1.
        -12    1    6    6    0    0 -0.12510129687E+02  0.39060214094E+02  0.12071158212E+03  0.12748917494E+03  0.00000000000E+00 0.  1.
</event>
<event>
12    1  0.8344842E-002  0.1824597E+03  0.7818608E-02  0.1165495E+00
         21   -1    0    0  501  502  0.00000000000E+00  0.00000000000E+00  0.18696738196E+04  0.18696738196E+04  0.00000000000E+00 0. -1.
         21   -1    0    0  502  503 -0.00000000000E+00 -0.00000000000E+00 -0.30741490169E+02  0.30741490169E+02  0.00000000000E+00 0. -1.
         -6    2    1    2    0  503 -0.35081715035E+02  0.52319216869E+02  0.30290279822E+03  0.35361229027E+03  0.17124111504E+03 0.  0.
        -24    2    3    3    0    0 -0.81126705840E+02  0.69589494981E+02  0.22465398388E+03  0.26107380839E+03  0.79157316403E+02 0.  0.
          6    2    1    2  501    0  0.35081715035E+02 -0.52319216869E+02  0.15360295312E+04  0.15468030195E+04  0.17101120778E+03 0.  0.
         24    2    5    5    0    0 -0.22387646873E+02 -0.31795589941E+01  0.11721721670E+04  0.11751422803E+04  0.80377071622E+02 0.  0.
          5    1    5    5  501    0  0.57469361909E+02 -0.49139657875E+02  0.36385736423E+03  0.37166073917E+03  0.47000000000E+01 0. -1.
        -13    1    6    6    0    0  0.67009829746E+01  0.26868427430E+02  0.82433553282E+03  0.82480051299E+03  0.00000000000E+00 0.  1.
         14    1    6    6    0    0 -0.29088629848E+02 -0.30047986425E+02  0.34783663416E+03  0.35034176733E+03  0.00000000000E+00 0. -1.
         -5    1    3    3    0  503  0.46044990805E+02 -0.17270278112E+02  0.78248814339E+02  0.92538481886E+02  0.47000000000E+01 0.  1.
         11    1    4    4    0    0 -0.40755752051E+02  0.68201303478E+02  0.19616352624E+03  0.21164257168E+03  0.00000000000E+00 0. -1.
        -12    1    4    4    0    0 -0.40370953790E+02  0.13881915027E+01  0.28490457638E+02  0.49431236703E+02  0.00000000000E+00 0.  1.
</event>
<event>
12    1  0.8344842E-002  0.1773737E+03  0.7818608E-02  0.1170868E+00
         21   -1    0    0  503  502  0.00000000000E+00  0.00000000000E+00  0.25225093625E+03  0.25225093625E+03  0.00000000000E+00 0.  1.
         21   -1    0    0  501  503 -0.00000000000E+00 -0.00000000000E+00 -0.24986348192E+03  0.24986348192E+03  0.00000000000E+00 0.  1.
          6    2    1    2  501    0  0.10807709020E+02  0.33445229960E+02 -0.17747187339E+03  0.25091369001E+03  0.17385633151E+03 0.  0.
         24    2    3    3    0    0 -0.66086576669E+02  0.29069702465E+02 -0.92461591073E+02  0.13610639707E+03  0.69016826075E+02 0.  0.
         -6    2    1    2    0  502 -0.10807709020E+02 -0.33445229960E+02  0.17985932772E+03  0.25120072815E+03  0.17180523297E+03 0.  0.
        -24    2    5    5    0    0  0.27236681325E+02  0.23826805263E+02  0.42177904387E+02  0.97234088954E+02  0.79786834613E+02 0.  0.
          5    1    3    3  501    0  0.76894285689E+02  0.43755274948E+01 -0.85010282320E+02  0.11480729294E+03  0.47000000000E+01 0. -1.
        -11    1    4    4    0    0 -0.46484224465E+02  0.49320170503E+02 -0.81171274752E+02  0.10574515680E+03  0.00000000000E+00 0.  1.
         12    1    4    4    0    0 -0.19602352205E+02 -0.20250468038E+02 -0.11290316321E+02  0.30361240264E+02  0.00000000000E+00 0. -1.
         -5    1    5    5    0  502 -0.38044390344E+02 -0.57272035223E+02  0.13768142334E+03  0.15396663920E+03  0.47000000000E+01 0.  1.
         11    1    6    6    0    0 -0.15219831171E+02  0.26154954471E+02 -0.81593260481E+01  0.31341657675E+02  0.00000000000E+00 0. -1.
        -12    1    6    6    0    0  0.42456512495E+02 -0.23281492076E+01  0.50337230435E+02  0.65892431279E+02  0.00000000000E+00 0.  1.
</event>
<event>
12    1  0.8344842E-002  0.1924065E+03  0.7818608E-02  0.1156734E+00
         21   -1    0    0  503  502  0.00000000000E+00  0.00000000000E+00  0.32296457597E+02  0.32296457597E+02  0.00000000000E+00 0. -1.
         21   -1    0    0  501  503 -0.00000000000E+00 -0.00000000000E+00 -0.14068462363E+04  0.14068462363E+04  0.00000000000E+00 0.  1.
          6    2    1    2  501    0 -0.77210757819E+02 -0.23117306430E+02 -0.36816900706E+03  0.41453423154E+03  0.17261025572E+03 0.  0.
         24    2    3    3    0    0 -0.89253497343E+02  0.15272649186E+02 -0.14332540197E+03  0.18607077052E+03  0.76685853934E+02 0.  0.
         -6    2    1    2    0  502  0.77210757819E+02  0.23117306430E+02 -0.10063807716E+04  0.10246084624E+04  0.17471214217E+03 0.  0.
        -24    2    5    5    0    0  0.15368985991E+02  0.37496210759E+02 -0.86462691067E+03  0.86921411003E+03  0.79443708879E+02 0.  0.
          5    1    3    3  501    0  0.12042739524E+02 -0.38389955617E+02 -0.22484360510E+03  0.22846346102E+03  0.47000000000E+01 0. -1.
        -11    1    4    4    0    0 -0.34594977981E+02  0.17537443115E+02 -0.73137905710E+01  0.39469810552E+02  0.00000000000E+00 0.  1.
         12    1    4    4    0    0 -0.54658519362E+02 -0.22647939289E+01 -0.13601161139E+03  0.14660095997E+03  0.00000000000E+00 0. -1.
         -5    1    5    5    0  502  0.61841771827E+02 -0.14378904328E+02 -0.14175386098E+03  0.15539435233E+03  0.47000000000E+01 0.  1.
         11    1    6    6    0    0 -0.11351943206E+02  0.54968079062E+02 -0.61447229538E+03  0.61703043532E+03  0.00000000000E+00 0. -1.
        -12    1    6    6    0    0  0.26720929197E+02 -0.17471868303E+02 -0.25015461529E+03  0.25218367471E+03  0.00000000000E+00 0.  1.
</event>
<event>
12    1  0.8344842E-002  0.1819309E+03  0.7818608E-02  0.1167620E+00
         21   -1    0    0  503  502  0.00000000000E+00  0.00000000000E+00  0.45284519453E+02  0.45284519453E+02  0.00000000000E+00 0. -1.
         21   -1    0    0  501  503 -0.00000000000E+00 -0.00000000000E+00 -0.93959272298E+03  0.93959272298E+03  0.00000000000E+00 0. -1.
          6    2    1    2  501    0  0.12787988038E+02  0.35963759417E+02 -0.19394840691E+03  0.26127328785E+03  0.17085321704E+03 0.  0.
         24    2    3    3    0    0  0.52687417066E+02  0.70698556074E+02 -0.12018768578E+03  0.17038211932E+03  0.82527189592E+02 0.  0.
         -6    2    1    2    0  502 -0.12787988038E+02 -0.35963759417E+02 -0.70035979662E+03  0.72360395458E+03  0.17788174089E+03 0.  0.
        -24    2    5    5    0    0 -0.72239591247E+02 -0.46966668659E+02 -0.39041598754E+03  0.40778310043E+03  0.80237068477E+02 0.  0.
          5    1    3    3  501    0 -0.39899429028E+02 -0.34734796657E+02 -0.73760721135E+02  0.90891168536E+02  0.47000000000E+01 0. -1.
        -13    1    4    4    0    0  0.72450926106E+01  0.73545246886E+02 -0.86335939182E+02  0.11364545350E+03  0.00000000000E+00 0.  1.
         14    1    4    4    0    0  0.45442324456E+02 -0.28466908121E+01 -0.33851746596E+02  0.56736665818E+02  0.00000000000E+00 0. -1.
         -5    1    5    5    0  502  0.59451603208E+02  0.11002909243E+02 -0.30994380907E+03  0.31582085415E+03  0.47000000000E+01 0.  1.
         13    1    6    6    0    0 -0.66561867544E+01  0.12322171375E+02 -0.16585407955E+03  0.16644433433E+03  0.00000000000E+00 0. -1.
        -14    1    6    6    0    0 -0.65583404492E+02 -0.59288840035E+02 -0.22456190800E+03  0.24133876610E+03  0.00000000000E+00 0.  1.
</event>
<event>
12    1  0.8344842E-002  0.4348956E+03  0.7818608E-02  0.1032460E+00
         21   -1    0    0  503  502  0.00000000000E+00  0.00000000000E+00  0.18658651163E+04  0.18658651163E+04  0.00000000000E+00 0.  1.
         21   -1    0    0  501  503 -0.00000000000E+00 -0.00000000000E+00 -0.16418214130E+03  0.16418214130E+03  0.00000000000E+00 0. -1.
          6    2    1    2  501    0  0.38968967964E+03 -0.84452573525E+02  0.22203134273E+03  0.48829506325E+03  0.17361989531E+03 0.  0.
         24    2    3    3    0    0  0.21661018858E+03  0.51279077992E+01  0.16775783468E+03  0.28593677571E+03  0.81675451465E+02 0.  0.
         -6    2    1    2    0  502 -0.38968967964E+03  0.84452573525E+02  0.14796516323E+04  0.15417521944E+04  0.16923531643E+03 0.  0.
        -24    2    5    5    0    0 -0.33643534355E+03  0.94567123531E+02  0.10536586614E+04  0.11122985535E+04  0.69855680329E+02 0.  0.
          5    1    3    3  501    0  0.17307949106E+03 -0.89580481324E+02  0.54273508051E+02  0.20235828754E+03  0.47000000000E+01 0. -1.
        -11    1    4    4    0    0  0.13672361684E+02  0.88352959829E+01 -0.73575572545E+01  0.17864198216E+02  0.00000000000E+00 0.  1.
         12    1    4    4    0    0  0.20293782689E+03 -0.37073881837E+01  0.17511539193E+03  0.26807257749E+03  0.00000000000E+00 0. -1.
         -5    1    5    5    0  502 -0.53254336091E+02 -0.10114550006E+02  0.42599297092E+03  0.42945364093E+03  0.47000000000E+01 0.  1.
         13    1    6    6    0    0 -0.30472190730E+03  0.99857146436E+02  0.99514371624E+03  0.10455323555E+04  0.00000000000E+00 0. -1.
        -14    1    6    6    0    0 -0.31713436249E+02 -0.52900229048E+01  0.58514945155E+02  0.66766197941E+02  0.00000000000E+00 0.  1.
</event>
<event>
12    1  0.8344842E-002  0.1997280E+03  0.7818608E-02  0.1150071E+00
         21   -1    0    0  503  502  0.00000000000E+00  0.00000000000E+00  0.18976933230E+03  0.18976933230E+03  0.00000000000E+00 0.  1.
         21   -1    0    0  501  503 -0.00000000000E+00 -0.00000000000E+00 -0.29237460772E+03  0.29237460772E+03  0.00000000000E+00 0.  1.
          6    2    1    2  501    0 -0.92803324278E+02 -0.39953482988E+02 -0.17954017005E+03  0.26856276517E+03  0.17228623965E+03 0.  0.
         24    2    3    3    0    0  0.69910794604E+01 -0.20504992398E+02 -0.26278969330E+02  0.84583819499E+02  0.77424210598E+02 0.  0.
         -6    2    1    2    0  502  0.92803324278E+02  0.39953482988E+02  0.76934894632E+02  0.21358117486E+03  0.17172420459E+03 0.  0.
        -24    2    5    5    0    0 -0.87501049479E+01 -0.68343993724E+01  0.64371914498E+01  0.81315453383E+02  0.80296277458E+02 0.  0.
          5    1    3    3  501    0 -0.99794403739E+02 -0.19448490591E+02 -0.15326120072E+03  0.18397894567E+03  0.47000000000E+01 0. -1.
        -13    1    4    4    0    0  0.22081368486E+02 -0.57358788710E+01 -0.48703903939E+02  0.53782500867E+02  0.00000000000E+00 0.  1.
         14    1    4    4    0    0 -0.15090289025E+02 -0.14769113527E+02  0.22424934609E+02  0.30801318631E+02  0.00000000000E+00 0. -1.
         -5    1    5    5    0  502  0.10155342923E+03  0.46787882361E+02  0.70497703183E+02  0.13226572148E+03  0.47000000000E+01 0.  1.
         11    1    6    6    0    0  0.15813939003E+02 -0.35135543551E+02 -0.10874364643E+02  0.40035470445E+02  0.00000000000E+00 0. -1.
        -12    1    6    6    0    0 -0.24564043951E+02  0.28301144178E+02  0.17311556092E+02  0.41279982938E+02  0.00000000000E+00 0.  1.
</event>
<event>
12    1  0.8344842E-002  0.1902236E+03  0.7818608E-02  0.1158353E+00
         21   -1    0    0  501  502  0.00000000000E+00  0.00000000000E+00  0.90406276818E+02  0.90406276818E+02  0.00000000000E+00 0.  1.
         21   -1    0    0  502  503 -0.00000000000E+00 -0.00000000000E+00 -0.40527506620E+03  0.40527506620E+03  0.00000000000E+00 0.  1.
         -6    2    1    2    0  503  0.63947403679E+02 -0.49618170624E+02 -0.12771095827E+03  0.22911812347E+03  0.17214468434E+03 0.  0.
        -24    2    3    3    0    0 -0.12333160645E+02  0.21395678325E+02 -0.37295790816E+02  0.91064931755E+02  0.79321900384E+02 0.  0.
          6    2    1    2  501    0 -0.63947403679E+02  0.49618170624E+02 -0.18715783111E+03  0.26656321955E+03  0.17168769024E+03 0.  0.
         24    2    5    5    0    0 -0.89635275160E+02  0.14624585691E+02 -0.18794756253E+03  0.22289250393E+03  0.78156387998E+02 0.  0.
          5    1    5    5  501    0  0.25687871481E+02  0.34993584934E+02  0.78973141910E+00  0.43670715628E+02  0.47000000000E+01 0. -1.
        -13    1    6    6    0    0 -0.14785916068E+02  0.37176766462E+02 -0.47045384159E+02  0.61757618552E+02  0.00000000000E+00 0.  1.
         14    1    6    6    0    0 -0.74849359092E+02 -0.22552180772E+02 -0.14090217837E+03  0.16113488537E+03  0.00000000000E+00 0. -1.
         -5    1    3    3    0  503  0.76280564324E+02 -0.71013848949E+02 -0.90415167458E+02  0.13805319171E+03  0.47000000000E+01 0.  1.
         13    1    4    4    0    0 -0.21135319945E+02  0.45761119658E+02 -0.40895594657E+02  0.64909409826E+02  0.00000000000E+00 0. -1.
        -14    1    4    4    0    0  0.88021593001E+01 -0.24365441333E+02  0.35998038416E+01  0.26155521929E+02  0.00000000000E+00 0.  1.
</event>
<event>
12    1  0.8344842E-002  0.1748855E+03  0.7818608E-02  0.1173502E+00
         21   -1    0    0  501  502  0.00000000000E+00  0.00000000000E+00  0.98676969278E+02  0.98676969278E+02  0.00000000000E+00 0. -1.
         21   -1    0    0  502  503 -0.00000000000E+00 -0.00000000000E+00 -0.12192304085E+04  0.12192304085E+04  0.00000000000E+00 0. -1.
         -6    2    1    2    0  503  0.25005443139E+02  0.24807337712E+01 -0.11297183144E+04  0.11427818826E+04  0.17045684254E+03 0.  0.
        -24    2    3    3    0    0  0.15081401071E+02  0.64644973990E+02 -0.57030321779E+03  0.57981632446E+03  0.80838039155E+02 0.  0.
          6    2    1    2  501    0 -0.25005443139E+02 -0.24807337712E+01  0.91648752013E+01  0.17512549512E+03  0.17307084641E+03 0.  0.
         24    2    5    5    0    0 -0.12675379163E+02 -0.71718313742E+02  0.64420563386E+01  0.10458914491E+03  0.74787748865E+02 0.  0.
          5    1    5    5  501    0 -0.12330063976E+02  0.69237579971E+02  0.27228188626E+01  0.70536350206E+02  0.47000000000E+01 0. -1.
        -13    1    6    6    0    0 -0.46826008375E+00 -0.75440916874E+02 -0.17511391219E+02  0.77448047288E+02  0.00000000000E+00 0.  1.
         14    1    6    6    0    0 -0.12207119079E+02  0.37226031322E+01  0.23953447557E+02  0.27141097623E+02  0.00000000000E+00 0. -1.
         -5    1    3    3    0  503  0.99240420682E+01 -0.62164240219E+02 -0.55941509660E+03  0.56296555816E+03  0.47000000000E+01 0.  1.
         13    1    4    4    0    0 -0.20739642672E+02  0.24221557699E+02 -0.73936535378E+02  0.80519736085E+02  0.00000000000E+00 0. -1.
        -14    1    4    4    0    0  0.35821043743E+02  0.40423416292E+02 -0.49636668241E+03  0.49929658838E+03  0.00000000000E+00 0.  1.
</event>
<event>
12    1  0.8344842E-002  0.2268312E+03  0.7818608E-02  0.1129021E+00
         21   -1    0    0  503  502  0.00000000000E+00  0.00000000000E+00  0.22271389469E+03  0.22271389469E+03  0.00000000000E+00 0.  1.
         21   -1    0    0  501  503 -0.00000000000E+00 -0.00000000000E+00 -0.25615390479E+03  0.25615390479E+03  0.00000000000E+00 0. -1.
          6    2    1    2  501    0  0.77873789916E+02  0.12154154053E+03 -0.92835518745E+02  0.24509348001E+03  0.17497344705E+03 0.  0.
         24    2    3    3    0    0  0.98508583957E+02  0.31377868733E+02 -0.72328030660E+02  0.15023606330E+03  0.81553779426E+02 0.  0.
         -6    2    1    2    0  502 -0.77873789916E+02 -0.12154154053E+03  0.59395508642E+02  0.23377431947E+03  0.17402854010E+03 0.  0.
        -24    2    5    5    0    0 -0.78324304190E+02 -0.80169190508E+01  0.26549383539E+02  0.11549921399E+03  0.80226124467E+02 0.  0.
          5    1    3    3  501    0 -0.20634794041E+02  0.90163671793E+02 -0.20507488085E+02  0.94857416704E+02  0.47000000000E+01 0. -1.
        -13    1    4    4    0    0  0.78122647640E+02  0.54480495223E+02 -0.34159996572E+02  0.10118388113E+03  0.00000000000E+00 0.  1.
         14    1    4    4    0    0  0.20385936317E+02 -0.23102626490E+02 -0.38168034088E+02  0.49052182178E+02  0.00000000000E+00 0. -1.
         -5    1    5    5    0  502  0.45051427417E+00 -0.11352462147E+03  0.32846125103E+02  0.11827510549E+03  0.47000000000E+01 0.  1.
         13    1    6    6    0    0 -0.60377205919E+01  0.29886129446E+02  0.35257549216E+01  0.30693089629E+02  0.00000000000E+00 0. -1.
        -14    1    6    6    0    0 -0.72286583598E+02 -0.37903048497E+02  0.23023628617E+02  0.84806124356E+02  0.00000000000E+00 0.  1.
</event>
<event>
12    1  0.8344842E-002  0.1965316E+03  0.7818608E-02  0.1153108E+00
         21   -1    0    0  501  502  0.00000000000E+00  0.00000000000E+00  0.22731320597E+03  0.22731320597E+03  0.00000000000E+00 0. -1.
         21   -1    0    0  502  503 -0.00000000000E+00 -0.00000000000E+00 -0.22689851767E+03  0.22689851767E+03  0.00000000000E+00 0. -1.
         -6    2    1    2    0  503 -0.49126152538E+02 -0.78513345039E+02 -0.11521200570E+03  0.22781233608E+03  0.17334050306E+03 0.  0.
        -24    2    3    3    0    0 -0.34886359222E+02 -0.11595273902E+03 -0.10199987575E+03  0.18537261043E+03  0.96420611394E+02 0.  0.
          6    2    1    2  501    0  0.49126152538E+02  0.78513345039E+02  0.11562669400E+03  0.22639938756E+03  0.17119995942E+03 0.  0.
         24    2    5    5    0    0  0.78663230847E+02  0.21922659657E+02  0.11856326375E+03  0.16232397801E+03  0.74988795379E+02 0.  0.
          5    1    5    5  501    0 -0.29537078309E+02  0.56590685382E+02 -0.29365697410E+01  0.64075409549E+02  0.47000000000E+01 0. -1.
        -11    1    6    6    0    0  0.85870442029E+01  0.11814830920E+02  0.80744870775E+02  0.82055235752E+02  0.00000000000E+00 0.  1.
         12    1    6    6    0    0  0.70076186644E+02  0.10107828738E+02  0.37818392971E+02  0.80268742256E+02  0.00000000000E+00 0. -1.
         -5    1    3    3    0  503 -0.14239793316E+02  0.37439393977E+02 -0.13212129956E+02  0.42439725647E+02  0.47000000000E+01 0.  1.
         13    1    4    4    0    0 -0.11550999135E+02 -0.36652521732E+02  0.15726966107E+02  0.41523130822E+02  0.00000000000E+00 0. -1.
        -14    1    4    4    0    0 -0.23335360088E+02 -0.79300217283E+02 -0.11772684185E+03  0.14384947961E+03  0.00000000000E+00 0.  1.
</event>
<event>
12    1  0.8344842E-002  0.2453097E+03  0.7818608E-02  0.1116748E+00
         21   -1    0    0  503  502  0.00000000000E+00  0.00000000000E+00  0.12002189159E+03  0.12002189159E+03  0.00000000000E+00 0. -1.
         21   -1    0    0  501  503 -0.00000000000E+00 -0.00000000000E+00 -0.10720026723E+04  0.10720026723E+04  0.00000000000E+00 0. -1.
          6    2    1    2  501    0 -0.11673299859E+03  0.13022187660E+03 -0.91416110047E+03  0.94650269030E+03  0.17202469305E+03 0.  0.
         24    2    3    3    0    0 -0.55160123390E+02  0.11649821121E+03 -0.38874092759E+03  0.41728817233E+03  0.79971479657E+02 0.  0.
         -6    2    1    2    0  502  0.11673299859E+03 -0.13022187660E+03 -0.37819680234E+02  0.24552187359E+03  0.16812594116E+03 0.  0.
        -24    2    5    5    0    0  0.12265819256E+03 -0.55211277266E+02 -0.57984696527E+02  0.16748075739E+03  0.81205059718E+02 0.  0.
          5    1    3    3  501    0 -0.61572875200E+02  0.13723665388E+02 -0.52542017288E+03  0.52921451796E+03  0.47000000000E+01 0. -1.
        -11    1    4    4    0    0  0.37689130950E+01 -0.10475747220E+02 -0.20316814795E+02  0.23167195539E+02  0.00000000000E+00 0.  1.
         12    1    4    4    0    0 -0.58929036485E+02  0.12697395843E+03 -0.36842411280E+03  0.39412097680E+03  0.00000000000E+00 0. -1.
         -5    1    5    5    0  502 -0.59251939697E+01 -0.75010599332E+02  0.20165016294E+02  0.78041116201E+02  0.47000000000E+01 0.  1.
         13    1    6    6    0    0  0.12536910711E+03 -0.67073134319E+02 -0.43767548242E+02  0.14876765994E+03  0.00000000000E+00 0. -1.
        -14    1    6    6    0    0 -0.27109145554E+01  0.11861857053E+02 -0.14217148285E+02  0.18713097441E+02  0.00000000000E+00 0.  1.
</event>
<event>
12    1  0.8344842E-002  0.2631223E+03  0.7818608E-02  0.1105301E+00
         21   -1    0    0  503  502  0.00000000000E+00  0.00000000000E+00  0.17794418014E+04  0.17794418014E+04  0.00000000000E+00 0. -1.
         21   -1    0    0  501  503 -0.00000000000E+00 -0.00000000000E+00 -0.29034539799E+03  0.29034539799E+03  0.00000000000E+00 0. -1.
          6    2    1    2  501    0 -0.18380228012E+03 -0.79488507685E+02 -0.21852466536E+03  0.34203271684E+03  0.17067996071E+03 0.  0.
         24    2    3    3    0    0 -0.21141678937E+02 -0.30706120703E+02 -0.45054741535E+02  0.99232187745E+02  0.80170199656E+02 0.  0.
         -6    2    1    2    0  502  0.18380228012E+03  0.79488507685E+02  0.17076210688E+04  0.17277544825E+04  0.17048207084E+03 0.  0.
        -24    2    5    5    0    0  0.45921662128E+02  0.79013869248E+02  0.97317121635E+03  0.98045938300E+03  0.76722844114E+02 0.  0.
          5    1    3    3  501    0 -0.16266060118E+03 -0.48782386981E+02 -0.17346992382E+03  0.24280052909E+03  0.47000000000E+01 0. -1.
        -13    1    4    4    0    0 -0.20537582296E+02  0.15046883136E+02  0.10256032721E+02  0.27447899479E+02  0.00000000000E+00 0.  1.
         14    1    4    4    0    0 -0.60409664066E+00 -0.45753003839E+02 -0.55310774256E+02  0.71784288266E+02  0.00000000000E+00 0. -1.
         -5    1    5    5    0  502  0.13788061799E+03  0.47463843619E+00  0.73444985241E+03  0.74729509954E+03  0.47000000000E+01 0.  1.
         11    1    6    6    0    0  0.28509236987E+02  0.91373877626E+02  0.70995251929E+03  0.71637597793E+03  0.00000000000E+00 0. -1.
        -12    1    6    6    0    0  0.17412425142E+02 -0.12360008378E+02  0.26321869705E+03  0.26408340507E+03  0.00000000000E+00 0.  1.
</event>
<event>
12    1  0.8344842E-002  0.2352078E+03  0.7818608E-02  0.1123262E+00
         21   -1    0    0  503  502  0.00000000000E+00  0.00000000000E+00  0.94465936054E+02  0.94465936054E+02  0.00000000000E+00 0.  1.
         21   -1    0    0  501  503 -0.00000000000E+00 -0.00000000000E+00 -0.59669445272E+03  0.59669445272E+03  0.00000000000E+00 0.  1.
          6    2    1    2  501    0  0.25177149261E+02 -0.15796580185E+03 -0.30421441556E+03  0.38369933059E+03  0.17056283963E+03 0.  0.
         24    2    3    3    0    0  0.23174480497E+02 -0.83158315856E+02 -0.68512370484E+02  0.13635803865E+03  0.80294506375E+02 0.  0.
         -6    2    1    2    0  502 -0.25177149261E+02  0.15796580185E+03 -0.19801410110E+03  0.30746105818E+03  0.17244023505E+03 0.  0.
        -24    2    5    5    0    0  0.21873576486E+02  0.11585529626E+03 -0.58227457555E+02  0.15400272121E+03  0.80159205991E+02 0.  0.
          5    1    3    3  501    0  0.20026687638E+01 -0.74807485991E+02 -0.23570204508E+03  0.24734129194E+03  0.47000000000E+01 0. -1.
        -11    1    4    4    0    0  0.43942997806E+02 -0.77748924382E+02 -0.71870726509E+02  0.11463543792E+03  0.00000000000E+00 0.  1.
         12    1    4    4    0    0 -0.20768517309E+02 -0.54093914738E+01  0.33583560253E+01  0.21722600731E+02  0.00000000000E+00 0. -1.
         -5    1    5    5    0  502 -0.47050725747E+02  0.42110505585E+02 -0.13978664354E+03  0.15345833697E+03  0.47000000000E+01 0.  1.
         11    1    6    6    0    0  0.32092625073E+02  0.30016448781E+02 -0.50905788175E+02  0.67248219688E+02  0.00000000000E+00 0. -1.
        -12    1    6    6    0    0 -0.10219048587E+02  0.85838847482E+02 -0.73216693800E+01  0.86754501517E+02  0.00000000000E+00 0.  1.
</event>
<event>
12    1  0.8344842E-002  0.2127022E+03  0.7818608E-02  0.1140168E+00
         21   -1    0    0  503  502  0.00000000000E+00  0.00000000000E+00  0.27648540600E+03  0.27648540600E+03  0.00000000000E+00 0.  1.
         21   -1    0    0  501  503 -0.00000000000E+00 -0.00000000000E+00 -0.20893881749E+03  0.20893881749E+03  0.00000000000E+00 0. -1.
          6    2    1    2  501    0  0.97095788016E+02  0.63063611107E+02  0.15048544001E+03  0.26055343875E+03  0.17843098299E+03 0.  0.
         24    2    3    3    0    0  0.79477411653E+02  0.49874573446E+02  0.18385650759E+03  0.22030327040E+03  0.76981709046E+02 0.  0.
         -6    2    1    2    0  502 -0.97095788016E+02 -0.63063611107E+02 -0.82938851490E+02  0.22487078475E+03  0.17402127930E+03 0.  0.
        -24    2    5    5    0    0 -0.10472694899E+03 -0.63232216172E+01 -0.97880207058E+02  0.16551557837E+03  0.82505483299E+02 0.  0.
          5    1    3    3  501    0  0.17618376363E+02  0.13189037661E+02 -0.33371067581E+02  0.40250168343E+02  0.47000000000E+01 0. -1.
        -13    1    4    4    0    0  0.18953972531E+02  0.32018541734E+02  0.15136665021E+02  0.40169126421E+02  0.00000000000E+00 0.  1.
         14    1    4    4    0    0  0.60523439123E+02  0.17856031712E+02  0.16871984257E+03  0.18013414398E+03  0.00000000000E+00 0. -1.
         -5    1    5    5    0  502  0.76311609726E+01 -0.56740389490E+02  0.14941355568E+02  0.59355206372E+02  0.47000000000E+01 0.  1.
         13    1    6    6    0    0 -0.96395493656E+02 -0.30200305189E+02 -0.97247911626E+02  0.14021877886E+03  0.00000000000E+00 0. -1.
        -14    1    6    6    0    0 -0.83314553333E+01  0.23877083572E+02 -0.63229543260E+00  0.25296799509E+02  0.00000000000E+00 0.  1.
</event>
<event>
12    1  0.8344842E-002  0.3728799E+03  0.7818608E-02  0.1053764E+00
         21   -1    0    0  501  502  0.00000000000E+00  0.00000000000E+00  0.31012282315E+03  0.31012282315E+03  0.00000000000E+00 0.  1.
         21   -1    0    0  502  503 -0.00000000000E+00 -0.00000000000E+00 -0.44624004818E+03  0.44624004818E+03  0.00000000000E+00 0. -1.
         -6    2    1    2    0  503 -0.18526520644E+03  0.27395015137E+03 -0.70408157511E+02  0.37946903779E+03  0.17224273523E+03 0.  0.
        -24    2    3    3    0    0 -0.15759837930E+03  0.11761902155E+03 -0.45470586881E+02  0.21869326876E+03  0.84188408599E+02 0.  0.
          6    2    1    2  501    0  0.18526520644E+03 -0.27395015137E+03 -0.65709067522E+02  0.37689383354E+03  0.16840248826E+03 0.  0.
         24    2    5    5    0    0  0.11273322604E+03 -0.80542025346E+02  0.22770497789E+01  0.15938109015E+03  0.78748643416E+02 0.  0.
          5    1    5    5  501    0  0.72531980396E+02 -0.19340812603E+03 -0.67986117300E+02  0.21751274339E+03  0.47000000000E+01 0. -1.
        -11    1    6    6    0    0  0.44186769093E+02 -0.37002183641E+02  0.39683413042E+02  0.69974319773E+02  0.00000000000E+00 0.  1.
         12    1    6    6    0    0  0.68546456952E+02 -0.43539841705E+02 -0.37406363263E+02  0.89406770376E+02  0.00000000000E+00 0. -1.
         -5    1    3    3    0  503 -0.27666827141E+02  0.15633112983E+03 -0.24937570631E+02  0.16077576903E+03  0.47000000000E+01 0.  1.
         13    1    4    4    0    0  0.17898352701E+01  0.31072572492E+02 -0.15827521563E+02  0.34917312474E+02  0.00000000000E+00 0. -1.
        -14    1    4    4    0    0 -0.15938821457E+03  0.86546449054E+02 -0.29643065318E+02  0.18377595629E+03  0.00000000000E+00 0.  1.
</event>
<event>
12    1  0.8344842E-002  0.1879426E+03  0.7818608E-02  0.1160452E+00
         21   -1    0    0  501  502  0.00000000000E+00  0.00000000000E+00  0.58571530692E+03  0.58571530692E+03  0.00000000000E+00 0.  1.
         21   -1    0    0  502  503 -0.00000000000E+00 -0.00000000000E+00 -0.62908371724E+02  0.62908371724E+02  0.00000000000E+00 0.  1.
         -6    2    1    2    0  503  0.33189907679E+02  0.68107425300E+02  0.19296316005E+03  0.26899313063E+03  0.17141275285E+03 0.  0.
        -24    2    3    3    0    0  0.78368171831E+02  0.44764611885E+02  0.17970988100E+03  0.21623233178E+03  0.79469108130E+02 0.  0.
          6    2    1    2  501    0 -0.33189907679E+02 -0.68107425300E+02  0.32984377514E+03  0.37963054801E+03  0.17199490000E+03 0.  0.
         24    2    5    5    0    0  0.27810161133E+02  0.96545134188E+01  0.19426763171E+03  0.21178863377E+03  0.79043645975E+02 0.  0.
          5    1    5    5  501    0 -0.61000068813E+02 -0.77761938719E+02  0.13557614343E+03  0.16784191424E+03  0.47000000000E+01 0. -1.
        -13    1    6    6    0    0 -0.43688273551E+01  0.17402146555E+02  0.16950562984E+03  0.17045257377E+03  0.00000000000E+00 0.  1.
         14    1    6    6    0    0  0.32178988488E+02 -0.77476331360E+01  0.24762001878E+02  0.41336060000E+02  0.00000000000E+00 0. -1.
         -5    1    3    3    0  503 -0.45178264152E+02  0.23342813416E+02  0.13253279053E+02  0.52760798852E+02  0.47000000000E+01 0.  1.
         11    1    4    4    0    0  0.26770603118E+02 -0.11506768509E+02  0.10665568953E+03  0.11056449259E+03  0.00000000000E+00 0. -1.
        -12    1    4    4    0    0  0.51597568713E+02  0.56271380393E+02  0.73054191466E+02  0.10566783919E+03  0.00000000000E+00 0.  1.
</event>
<event>
12    1  0.8344842E-002  0.1744908E+03  0.7818608E-02  0.1173486E+00
         21   -1    0    0  503  502  0.00000000000E+00  0.00000000000E+00  0.11712379025E+04  0.11712379025E+04  0.00000000000E+00 0.  1.
         21   -1    0    0  501  503 -0.00000000000E+00 -0.00000000000E+00 -0.33706574420E+02  0.33706574420E+02  0.00000000000E+00 0.  1.
          6    2    1    2  501    0  0.17942877030E+02 -0.19450479203E+02  0.85837235920E+03  0.87573821114E+03  0.17150521693E+03 0.  0.
         24    2    3    3    0    0  0.18465520791E+02 -0.28740612734E+02  0.20982863999E+03  0.22711071754E+03  0.79901324017E+02 0.  0.
         -6    2    1    2    0  502 -0.17942877030E+02  0.19450479203E+02  0.27915896883E+03  0.32920626573E+03  0.17247251242E+03 0.  0.
        -24    2    5    5    0    0 -0.70926034748E+02 -0.17279565280E+02  0.17453116045E+03  0.20622098427E+03  0.82078514873E+02 0.  0.
          5    1    3    3  501    0 -0.52264376148E+00  0.92901335306E+01  0.64854371921E+03  0.64862749361E+03  0.47000000000E+01 0. -1.
        -13    1    4    4    0    0 -0.71184923611E+01 -0.18874489040E+02  0.19480035019E+03  0.19584201721E+03  0.00000000000E+00 0.  1.
         14    1    4    4    0    0  0.25584013152E+02 -0.98661236939E+01  0.15028289802E+02  0.31268700326E+02  0.00000000000E+00 0. -1.
         -5    1    5    5    0  502  0.52983157719E+02  0.36730044483E+02  0.10462780838E+03  0.12298528146E+03  0.47000000000E+01 0.  1.
         11    1    6    6    0    0 -0.67394169130E+02 -0.37602890543E+02  0.87021261743E+02  0.11631273105E+03  0.00000000000E+00 0. -1.
        -12    1    6    6    0    0 -0.35318656181E+01  0.20323325264E+02  0.87509898708E+02  0.89908253216E+02  0.00000000000E+00 0.  1.
</event>
<event>
12    1  0.8344842E-002  0.2268578E+03  0.7818608E-02  0.1129322E+00
         21   -1    0    0  501  502  0.00000000000E+00  0.00000000000E+00  0.77855813754E+03  0.77855813754E+03  0.00000000000E+00 0.  1.
         21   -1    0    0  502  503 -0.00000000000E+00 -0.00000000000E+00 -0.65591399511E+02  0.65591399511E+02  0.00000000000E+00 0.  1.
         -6    2    1    2    0  503 -0.18480861176E+02 -0.14253810552E+03  0.33419346368E+03  0.40391796723E+03  0.17551580934E+03 0.  0.
        -24    2    3    3    0    0 -0.34584350812E+02 -0.11478585834E+02  0.18652256131E+03  0.20576472984E+03  0.78870925670E+02 0.  0.
          6    2    1    2  501    0  0.18480861176E+02  0.14253810552E+03  0.37877327434E+03  0.44023156982E+03  0.17226719929E+03 0.  0.
         24    2    5    5    0    0 -0.43855959682E+02  0.13152479569E+03  0.30158710754E+03  0.34029675819E+03  0.74999887493E+02 0.  0.
          5    1    5    5  501    0  0.62336820858E+02  0.11013309837E+02  0.77186166806E+02  0.99934811624E+02  0.47000000000E+01 0. -1.
        -11    1    6    6    0    0 -0.12358747244E+02  0.10768806896E+03  0.15968381255E+03  0.19299839072E+03  0.00000000000E+00 0.  1.
         12    1    6    6    0    0 -0.31497212437E+02  0.23836726729E+02  0.14190329499E+03  0.14729836747E+03  0.00000000000E+00 0. -1.
         -5    1    3    3    0  503  0.16103489636E+02 -0.13105951969E+03  0.14767090238E+03  0.19815323739E+03  0.47000000000E+01 0.  1.
         13    1    4    4    0    0 -0.23397046012E+02  0.33030014965E+02  0.76354952315E+02  0.86420381819E+02  0.00000000000E+00 0. -1.
        -14    1    4    4    0    0 -0.11187304801E+02 -0.44508600799E+02  0.11016760899E+03  0.11934434802E+03  0.00000000000E+00 0.  1.
</event>
<event>
12    1  0.8344842E-002  0.1993716E+03  0.7818608E-02  0.1150882E+00
         21   -1    0    0  503  502  0.00000000000E+00  0.00000000000E+00  0.64394273362E+03  0.64394273362E+03  0.00000000000E+00 0. -1.
         21   -1    0    0  501  503 -0.00000000000E+00 -0.00000000000E+00 -0.81070025617E+02  0.81070025617E+02  0.00000000000E+00 0. -1.
          6    2    1    2  501    0  0.44516061488E+02 -0.86638627318E+02  0.10190066933E+03  0.22390352779E+03  0.17395721277E+03 0.  0.
         24    2    3    3    0    0  0.86177678634E+02 -0.80988813924E+02  0.36345680977E+02  0.14588329174E+03  0.77299068617E+02 0.  0.
         -6    2    1    2    0  502 -0.44516061488E+02  0.86638627318E+02  0.46097203867E+03  0.50110923144E+03  0.17066724914E+03 0.  0.
        -24    2    5    5    0    0 -0.52344675126E+02  0.76525370470E+02  0.46999822598E+03  0.48476520461E+03  0.74181357715E+02 0.  0.
          5    1    3    3  501    0 -0.41661617147E+02 -0.56498133947E+01  0.65554988355E+02  0.78020236048E+02  0.47000000000E+01 0. -1.
        -11    1    4    4    0    0  0.62274335691E+02 -0.16803778036E+02  0.42298134232E+02  0.77133598396E+02  0.00000000000E+00 0.  1.
         12    1    4    4    0    0  0.23903342943E+02 -0.64185035887E+02 -0.59524532555E+01  0.68749693348E+02  0.00000000000E+00 0. -1.
         -5    1    5    5    0  502  0.78286136387E+01  0.10113256848E+02 -0.90261873166E+01  0.16344026831E+02  0.47000000000E+01 0.  1.
         13    1    6    6    0    0 -0.28586099114E+02  0.81222425404E+02  0.27231806916E+03  0.28560703465E+03  0.00000000000E+00 0. -1.
        -14    1    6    6    0    0 -0.23758576012E+02 -0.46970549343E+01  0.19768015683E+03  0.19915816996E+03  0.00000000000E+00 0.  1.
</event>
<event>
12    1  0.8344842E-002  0.2618980E+03  0.7818608E-02  0.1106156E+00
         21   -1    0    0  501  502  0.00000000000E+00  0.00000000000E+00  0.28937919845E+03  0.28937919845E+03  0.00000000000E+00 0. -1.
         21   -1    0    0  502  503 -0.00000000000E+00 -0.00000000000E+00 -0.76907062996E+03  0.76907062996E+03  0.00000000000E+00 0.  1.
         -6    2    1    2    0  503  0.19568623914E+03 -0.17986007766E+02 -0.68053577196E+03  0.72919097788E+03  0.17312984907E+03 0.  0.
        -24    2    3    3    0    0  0.10973673541E+03 -0.64777272444E+01 -0.58326742516E+03  0.59879550633E+03  0.79190006312E+02 0.  0.
          6    2    1    2  501    0 -0.19568623914E+03  0.17986007766E+02  0.20084434046E+03  0.32925885053E+03  0.17162849674E+03 0.  0.
         24    2    5    5    0    0 -0.11011713315E+03  0.76245262521E+02  0.14796633886E+03  0.21292147168E+03  0.74178114001E+02 0.  0.
          5    1    5    5  501    0 -0.85569105991E+02 -0.58259254755E+02  0.52878001593E+02  0.11633737885E+03  0.47000000000E+01 0. -1.
        -13    1    6    6    0    0 -0.34520977287E+02  0.37284402365E+02  0.11456495477E+02  0.52087194406E+02  0.00000000000E+00 0.  1.
         14    1    6    6    0    0 -0.75596155861E+02  0.38960860156E+02  0.13650984339E+03  0.16083427727E+03  0.00000000000E+00 0. -1.
         -5    1    3    3    0  503  0.85949503730E+02 -0.11508280521E+02 -0.97268346808E+02  0.13039547156E+03  0.47000000000E+01 0.  1.
         11    1    4    4    0    0  0.21209425046E+02  0.29503631993E+01 -0.32326222083E+03  0.32397068968E+03  0.00000000000E+00 0. -1.
        -12    1    4    4    0    0  0.88527310363E+02 -0.94280904437E+01 -0.26000520432E+03  0.27482481664E+03  0.00000000000E+00 0.  1.
</event>
<event>
12    1  0.8344842E-002  0.2448771E+03  0.7818608E-02  0.1116938E+00
         21   -1    0    0  501  502  0.00000000000E+00  0.00000000000E+00  0.38097272486E+02  0.38097272486E+02  0.00000000000E+00 0. -1.
         21   -1    0    0  502  503 -0.00000000000E+00 -0.00000000000E+00 -0.16545768266E+04  0.16545768266E+04  0.00000000000E+00 0.  1.
         -6    2    1    2    0  503 -0.42669326496E+02  0.16637876205E+03 -0.10070515552E+04  0.10358885210E+04  0.17149235930E+03 0.  0.
        -24    2    3    3    0    0  0.17907589422E+02  0.18527570586E+02 -0.34869013879E+03  0.35839949368E+03  0.78749168600E+02 0.  0.
          6    2    1    2  501    0  0.42669326496E+02 -0.16637876205E+03 -0.60942799890E+03  0.65678557803E+03  0.17453436849E+03 0.  0.
         24    2    5    5    0    0  0.62174452954E+02 -0.17137449479E+03 -0.60314448009E+03  0.63517586003E+03  0.80188710132E+02 0.  0.
          5    1    5    5  501    0 -0.19505126458E+02  0.49957327354E+01 -0.62835188067E+01  0.21609718006E+02  0.47000000000E+01 0. -1.
        -13    1    6    6    0    0  0.31687525694E+02 -0.13685969592E+03 -0.53348004490E+03  0.55166623420E+03  0.00000000000E+00 0.  1.
         14    1    6    6    0    0  0.30486927260E+02 -0.34514798875E+02 -0.69664435185E+02  0.83509625821E+02  0.00000000000E+00 0. -1.
         -5    1    3    3    0  503 -0.60576915918E+02  0.14785119147E+03 -0.65836141639E+03  0.67748902733E+03  0.47000000000E+01 0.  1.
         11    1    4    4    0    0  0.39556286973E+02  0.30270608006E+02 -0.29692860669E+03  0.30107741034E+03  0.00000000000E+00 0. -1.
        -12    1    4    4    0    0 -0.21648697551E+02 -0.11743037421E+02 -0.51761532098E+02  0.57322083342E+02  0.00000000000E+00 0.  1.
</event>
<event>
12    1  0.8344842E-002  0.1998556E+03  0.7818608E-02  0.1150108E+00
         21   -1    0    0  503  502  0.00000000000E+00  0.00000000000E+00  0.15630040287E+03  0.15630040287E+03  0.00000000000E+00 0.  1.
         21   -1    0    0  501  503 -0.00000000000E+00 -0.00000000000E+00 -0.79165664162E+03  0.79165664162E+03  0.00000000000E+00 0. -1.
          6    2    1    2  501    0  0.31765259414E+02  0.98090981512E+02 -0.70856439304E+03  0.73621039430E+03  0.17120564602E+03 0.  0.
         24    2    3    3    0    0  0.18161560400E+02  0.98543768766E+02 -0.71017320554E+03  0.72172095260E+03  0.80588056893E+02 0.  0.
         -6    2    1    2    0  502 -0.31765259414E+02 -0.98090981512E+02  0.73208154287E+02  0.21174665019E+03  0.16984209623E+03 0.  0.
        -24    2    5    5    0    0 -0.13678325890E+02 -0.43137124920E+02 -0.26386207486E+02  0.96472236656E+02  0.81010816280E+02 0.  0.
          5    1    3    3  501    0  0.13603699014E+02 -0.45278725382E+00  0.16088124973E+01  0.14489441701E+02  0.47000000000E+01 0. -1.
        -11    1    4    4    0    0  0.31882697149E+02  0.36105395158E+01 -0.14982278237E+03  0.15322013083E+03  0.00000000000E+00 0.  1.
         12    1    4    4    0    0 -0.13721136750E+02  0.94933229250E+02 -0.56035042317E+03  0.56850082177E+03  0.00000000000E+00 0. -1.
         -5    1    5    5    0  502 -0.18086933524E+02 -0.54953856592E+02  0.99594361773E+02  0.11527441353E+03  0.47000000000E+01 0.  1.
         11    1    6    6    0    0 -0.58714136047E+01 -0.66045206090E+02 -0.28514533696E+02  0.72177014188E+02  0.00000000000E+00 0. -1.
        -12    1    6    6    0    0 -0.78069122854E+01  0.22908081170E+02  0.21283262095E+01  0.24295222468E+02  0.00000000000E+00 0.  1.
</event>
<event>
12    1  0.8344842E-002  0.1936471E+03  0.7818608E-02  0.1155573E+00
         21   -1    0    0  503  502  0.00000000000E+00  0.00000000000E+00  0.58307336214E+02  0.58307336214E+02  0.00000000000E+00 0. -1.
         21   -1    0    0  501  503 -0.00000000000E+00 -0.00000000000E+00 -0.90665987359E+03  0.90665987359E+03  0.00000000000E+00 0.  1.
          6    2    1    2  501    0  0.63689650739E+02  0.58773806936E+02 -0.68821820510E+03  0.71494301536E+03  0.17317183773E+03 0.  0.
         24    2    3    3    0    0 -0.21286292681E+02 -0.85070629490E+01 -0.42013625259E+03  0.42574126973E+03  0.64928280696E+02 0.  0.
         -6    2    1    2    0  502 -0.63689650739E+02 -0.58773806936E+02 -0.16013433228E+03  0.25002419445E+03  0.17134281847E+03 0.  0.
        -24    2    5    5    0    0 -0.66744015841E+02 -0.93873427712E+02 -0.16175046597E+03  0.21444309816E+03  0.80966937854E+02 0.  0.
          5    1    3    3  501    0  0.84975943419E+02  0.67280869885E+02 -0.26808195250E+03  0.28920174562E+03  0.47000000000E+01 0. -1.
        -11    1    4    4    0    0 -0.15968698840E+02 -0.33848546423E+02 -0.32487288976E+03  0.32702158635E+03  0.00000000000E+00 0.  1.
         12    1    4    4    0    0 -0.53175938404E+01  0.25341483474E+02 -0.95263362835E+02  0.98719683384E+02  0.00000000000E+00 0. -1.
         -5    1    5    5    0  502  0.30543651022E+01  0.35099620776E+02  0.16161336953E+01  0.35581096286E+02  0.47000000000E+01 0.  1.
         13    1    6    6    0    0 -0.37577085766E+02  0.35172264211E+01 -0.31140636551E+02  0.48930026580E+02  0.00000000000E+00 0. -1.
        -14    1    6    6    0    0 -0.29166930075E+02 -0.97390654133E+02 -0.13060982942E+03  0.16551307158E+03  0.00000000000E+00 0.  1.
</event>
<event>
12    1  0.8344842E-002  0.2314223E+03  0.7818608E-02  0.1125896E+00
         21   -1    0    0  501  502  0.00000000000E+00  0.00000000000E+00  0.13371761709E+03  0.13371761709E+03  0.00000000000E+00 0.  1.
         21   -1    0    0  502  503 -0.00000000000E+00 -0.00000000000E+00 -0.99612926940E+03  0.99612926940E+03  0.00000000000E+00 0. -1.
         -6    2    1    2    0  503  0.28780825855E+01 -0.15471523499E+03 -0.86841186684E+03  0.89834681595E+03  0.17012567110E+03 0.  0.
        -24    2    3    3    0    0  0.16080804705E+02 -0.10918176966E+03 -0.81694229881E+03  0.82821255350E+03  0.79762541862E+02 0.  0.
          6    2    1    2  501    0 -0.28780825855E+01  0.15471523499E+03  0.60002145286E+01  0.23150007054E+03  0.17207903064E+03 0.  0.
         24    2    5    5    0    0  0.66041418352E+02  0.91943122575E+02 -0.42170370442E+01  0.13760269072E+03  0.78113445483E+02 0.  0.
          5    1    5    5  501    0 -0.68919500937E+02  0.62772112415E+02  0.10217251573E+02  0.93897379815E+02  0.47000000000E+01 0. -1.
        -11    1    6    6    0    0  0.31016797134E+02  0.56796827489E+02  0.35711609415E+02  0.73913735965E+02  0.00000000000E+00 0.  1.
         12    1    6    6    0    0  0.35024621217E+02  0.35146295085E+02 -0.39928646460E+02  0.63688954754E+02  0.00000000000E+00 0. -1.
         -5    1    3    3    0  503 -0.13202722120E+02 -0.45533465331E+02 -0.51469568024E+02  0.70134262447E+02  0.47000000000E+01 0.  1.
         11    1    4    4    0    0 -0.16847749465E+02 -0.64016608936E+02 -0.25334731776E+03  0.26185269962E+03  0.00000000000E+00 0. -1.
        -12    1    4    4    0    0  0.32928554170E+02 -0.45165160722E+02 -0.56359498106E+03  0.56635985389E+03  0.00000000000E+00 0.  1.
</event>
<event>
12    1  0.8344842E-002  0.2155402E+03  0.7818608E-02  0.1137715E+00
         21   -1    0    0  501  502  0.00000000000E+00  0.00000000000E+00  0.86083496166E+03  0.86083496166E+03  0.00000000000E+00 0.  1.
         21   -1    0    0  502  503 -0.00000000000E+00 -0.00000000000E+00 -0.18531931619E+03  0.18531931619E+03  0.00000000000E+00 0.  1.
         -6    2    1    2    0  503  0.11846241872E+03 -0.44543332388E+02 -0.10307420127E+03  0.23891815653E+03  0.17447103326E+03 0.  0.
        -24    2    3    3    0    0  0.83842674488E+02 -0.60463137012E+02 -0.13537188273E+03  0.18874648029E+03  0.81328360267E+02 0.  0.
          6    2    1    2  501    0 -0.11846241872E+03  0.44543332388E+02  0.77858984675E+03  0.80723612132E+03  0.17149505240E+03 0.  0.
         24    2    5    5    0    0  0.47875199858E+01  0.30745745544E+02  0.37478191462E+03  0.38478629371E+03  0.81429645030E+02 0.  0.
          5    1    5    5  501    0 -0.12324993870E+03  0.13797586844E+02  0.40380793213E+03  0.42244982760E+03  0.47000000000E+01 0. -1.
        -11    1    6    6    0    0  0.32820566793E+02  0.38403709919E+02  0.30562225572E+03  0.30976926531E+03  0.00000000000E+00 0.  1.
         12    1    6    6    0    0 -0.28033046807E+02 -0.76579643749E+01  0.69159658897E+02  0.75017028403E+02  0.00000000000E+00 0. -1.
         -5    1    3    3    0  503  0.34619744228E+02  0.15919804623E+02  0.32297681461E+02  0.50171676247E+02  0.47000000000E+01 0.  1.
         13    1    4    4    0    0  0.51273995879E+01  0.14669806717E+02 -0.63151254875E+00  0.15552886026E+02  0.00000000000E+00 0. -1.
        -14    1    4    4    0    0  0.78715274900E+02 -0.75132943728E+02 -0.13474037018E+03  0.17319359426E+03  0.00000000000E+00 0.  1.
</event>
<event>
12    1  0.8344842E-002  0.1882111E+03  0.7818608E-02  0.1161758E+00
         21   -1    0    0  501  502  0.00000000000E+00  0.00000000000E+00  0.20756912989E+04  0.20756912989E+04  0.00000000000E+00 0. -1.
         21   -1    0    0  502  503 -0.00000000000E+00 -0.00000000000E+00 -0.25985736968E+02  0.25985736968E+02  0.00000000000E+00 0.  1.
         -6    2    1    2    0  503 -0.73070797758E+02 -0.18682989381E+02  0.39998700221E+03  0.44205544023E+03  0.17243843748E+03 0.  0.
        -24    2    3    3    0    0  0.91872405625E+01 -0.45803173254E+02  0.13646484831E+03  0.16462453921E+03  0.79348900544E+02 0.  0.
          6    2    1    2  501    0  0.73070797758E+02  0.18682989381E+02  0.16497185597E+04  0.16596215956E+04  0.16457253369E+03 0.  0.
         24    2    5    5    0    0  0.29647229848E+02  0.52407416827E+01  0.38360988677E+03  0.39268846323E+03  0.78366193701E+02 0.  0.
          5    1    5    5  501    0  0.43423567910E+02  0.13442247698E+02  0.12661086729E+04  0.12669331324E+04  0.47000000000E+01 0. -1.
        -13    1    6    6    0    0  0.51434824002E+02 -0.14064213705E+02  0.21053967850E+03  0.21718724514E+03  0.00000000000E+00 0.  1.
         14    1    6    6    0    0 -0.21787594154E+02  0.19304955388E+02  0.17307020827E+03  0.17550121809E+03  0.00000000000E+00 0. -1.
         -5    1    3    3    0  503 -0.82258038320E+02  0.27120183874E+02  0.26352215390E+03  0.27743090102E+03  0.47000000000E+01 0.  1.
         13    1    4    4    0    0  0.14336943214E+02 -0.53577039146E+02  0.14290615288E+03  0.15329127697E+03  0.00000000000E+00 0. -1.
        -14    1    4    4    0    0 -0.51497026518E+01  0.77738658914E+01 -0.64413045759E+01  0.11333262237E+02  0.00000000000E+00 0.  1.
</event>
<event>
12    1  0.8344842E-002  0.2069390E+03  0.7818608E-02  0.1144351E+00
         21   -1    0    0  503  502  0.00000000000E+00  0.00000000000E+00  0.39698297845E+03  0.39698297845E+03  0.00000000000E+00 0. -1.
         21   -1    0    0  501  503 -0.00000000000E+00 -0.00000000000E+00 -0.17133854462E+03  0.17133854462E+03  0.00000000000E+00 0.  1.
          6    2    1    2  501    0  0.10208273514E+03  0.43806437318E+02 -0.61012453990E+02  0.21574581006E+03  0.17459623780E+03 0.  0.
         24    2    3    3    0    0  0.15078233605E+02  0.74971477498E+02 -0.55103102463E+02  0.12302012078E+03  0.79053922414E+02 0.  0.
         -6    2    1    2    0  502 -0.10208273514E+03 -0.43806437318E+02  0.28665688782E+03  0.35257571300E+03  0.17261973611E+03 0.  0.
        -24    2    5    5    0    0 -0.88739312657E+02  0.34858003965E+02  0.14546136366E+03  0.19032773215E+03  0.77303889012E+02 0.  0.
          5    1    3    3  501    0  0.87004501539E+02 -0.31165040180E+02 -0.59093515276E+01  0.92725689283E+02  0.47000000000E+01 0. -1.
        -13    1    4    4    0    0  0.12747181097E+02  0.66860975437E+02 -0.75076081674E+02  0.10133754833E+03  0.00000000000E+00 0.  1.
         14    1    4    4    0    0  0.23310525078E+01  0.81105020612E+01  0.19972979211E+02  0.21682572450E+02  0.00000000000E+00 0. -1.
         -5    1    5    5    0  502 -0.13343422487E+02 -0.78664441283E+02  0.14119552416E+03  0.16224798085E+03  0.47000000000E+01 0.  1.
         11    1    6    6    0    0 -0.59159441890E+02  0.43854767113E+02  0.14102304412E+03  0.15909298896E+03  0.00000000000E+00 0. -1.
        -12    1    6    6    0    0 -0.29579870766E+02 -0.89967631478E+01  0.44383195370E+01  0.31234743188E+02  0.00000000000E+00 0.  1.
</event>
<event>
12    1  0.8344842E-002  0.1898903E+03  0.7818608E-02  0.1158617E+00
         21   -1    0    0  501  502  0.00000000000E+00  0.00000000000E+00  0.88804783428E+03  0.88804783428E+03  0.00000000000E+00 0. -1.
         21   -1    0    0  502  503 -0.00000000000E+00 -0.00000000000E+00 -0.61817499944E+02  0.61817499944E+02  0.00000000000E+00 0. -1.
         -6    2    1    2    0  503 -0.12234354160E+02 -0.81305462086E+02  0.13472548122E+03  0.23282886307E+03  0.17116678007E+03 0.  0.
        -24    2    3    3    0    0 -0.15542826476E+02 -0.11976515420E+03  0.77068726350E+02  0.16328401934E+03  0.78337799141E+02 0.  0.
          6    2    1    2  501    0  0.12234354160E+02  0.81305462086E+02  0.69150485311E+03  0.71703647116E+03  0.17088616535E+03 0.  0.
         24    2    5    5    0    0 -0.26941168547E+02 -0.14930959341E+02  0.32897197161E+03  0.33987821451E+03  0.79661047466E+02 0.  0.
          5    1    5    5  501    0  0.39175522707E+02  0.96236421427E+02  0.36253288150E+03  0.37715825665E+03  0.47000000000E+01 0. -1.
        -11    1    6    6    0    0 -0.22045627725E+01 -0.26140116942E+02  0.30738006141E+02  0.40410281270E+02  0.00000000000E+00 0.  1.
         12    1    6    6    0    0 -0.24736605775E+02  0.11209157602E+02  0.29823396547E+03  0.29946793324E+03  0.00000000000E+00 0. -1.
         -5    1    3    3    0  503  0.33084723162E+01  0.38459692114E+02  0.57656754873E+02  0.69544843728E+02  0.47000000000E+01 0.  1.
         11    1    4    4    0    0  0.12587305269E+02 -0.16843343450E+02 -0.12076041861E+02  0.24248077440E+02  0.00000000000E+00 0. -1.
        -12    1    4    4    0    0 -0.28130131745E+02 -0.10292181075E+03  0.89144768211E+02  0.13903594190E+03  0.00000000000E+00 0.  1.
</event>
<event>
12    1  0.8344842E-002  0.1908047E+03  0.7818608E-02  0.1157913E+00
         21   -1    0    0  501  502  0.00000000000E+00  0.00000000000E+00  0.33048496974E+03  0.33048496974E+03  0.00000000000E+00 0. -1.
         21   -1    0    0  502  503 -0.00000000000E+00 -0.00000000000E+00 -0.14097136904E+03  0.14097136904E+03  0.00000000000E+00 0. -1.
         -6    2    1    2    0  503 -0.70066071231E+02 -0.44678980913E+02 -0.16097074153E+02  0.19148254435E+03  0.17175850290E+03 0.  0.
        -24    2    3    3    0    0 -0.25574566272E+02 -0.12081894893E+02 -0.73395421866E+02  0.11181288462E+03  0.79468248952E+02 0.  0.
          6    2    1    2  501    0  0.70066071231E+02  0.44678980913E+02  0.20561067486E+03  0.27997379444E+03  0.17089210129E+03 0.  0.
         24    2    5    5    0    0  0.36730088639E+02  0.30489606469E-01  0.20512969816E+03  0.22405334335E+03  0.82295852010E+02 0.  0.
          5    1    5    5  501    0  0.33335982592E+02  0.44648491307E+02  0.48097669814E+00  0.55920451088E+02  0.47000000000E+01 0. -1.
        -13    1    6    6    0    0  0.57272401164E+02 -0.18584952760E+02  0.11576956397E+03  0.13049184015E+03  0.00000000000E+00 0.  1.
         14    1    6    6    0    0 -0.20542312525E+02  0.18615442366E+02  0.89360134192E+02  0.93561503200E+02  0.00000000000E+00 0. -1.
         -5    1    3    3    0  503 -0.44491504959E+02 -0.32597086020E+02  0.57298347713E+02  0.79669659728E+02  0.47000000000E+01 0.  1.
         13    1    4    4    0    0 -0.46657982935E+02 -0.15081404048E+02 -0.17610389128E+02  0.52101266058E+02  0.00000000000E+00 0. -1.
        -14    1    4    4    0    0  0.21083416664E+02  0.29995091550E+01 -0.55785032738E+02  0.59711618559E+02  0.00000000000E+00 0.  1.
</event>
<event>
12    1  0.8344842E-002  0.2016530E+03  0.7818608E-02  0.1149378E+00
         21   -1    0    0  501  502  0.00000000000E+00  0.00000000000E+00  0.10462166206E+04  0.10462166206E+04  0.00000000000E+00 0. -1.
         21   -1    0    0  502  503 -0.00000000000E+00 -0.00000000000E+00 -0.43879394256E+02  0.43879394256E+02  0.00000000000E+00 0. -1.
         -6    2    1    2    0  503  0.66453712683E+02 -0.71254853525E+02  0.69644189179E+03  0.72371386981E+03  0.17098861550E+03 0.  0.
        -24    2    3    3    0    0  0.81109929702E+02 -0.10701329452E+03  0.56469533108E+03  0.58633586189E+03  0.82935276541E+02 0.  0.
          6    2    1    2  501    0 -0.66453712683E+02  0.71254853525E+02  0.30589533456E+03  0.36638214505E+03  0.17655189161E+03 0.  0.
         24    2    5    5    0    0 -0.86422191763E+02 -0.69595704438E+01  0.20908256070E+03  0.24024317624E+03  0.80523510152E+02 0.  0.
          5    1    5    5  501    0  0.19968479080E+02  0.78214423969E+02  0.96812773853E+02  0.12613896882E+03  0.47000000000E+01 0. -1.
        -13    1    6    6    0    0 -0.13721477303E+02 -0.36817680769E+02  0.60161858464E+02  0.71855895863E+02  0.00000000000E+00 0.  1.
         14    1    6    6    0    0 -0.72700714461E+02  0.29858110325E+02  0.14892070224E+03  0.16838728037E+03  0.00000000000E+00 0. -1.
         -5    1    3    3    0  503 -0.14656217019E+02  0.35758440998E+02  0.13174656071E+03  0.13737800792E+03  0.47000000000E+01 0.  1.
         13    1    4    4    0    0  0.37500877148E+02 -0.10764921651E+03  0.39430381072E+03  0.41045117219E+03  0.00000000000E+00 0. -1.
        -14    1    4    4    0    0  0.43609052554E+02  0.63592198625E+00  0.17039152036E+03  0.17588468970E+03  0.00000000000E+00 0.  1.
</event>
<event>
12    1  0.8344842E-002  0.2246911E+03  0.7818608E-02  0.1130564E+00
         21   -1    0    0  501  502  0.00000000000E+00  0.00000000000E+00  0.61406544449E+03  0.61406544449E+03  0.00000000000E+00 0. -1.
         21   -1    0    0  502  503 -0.00000000000E+00 -0.00000000000E+00 -0.83697667979E+02  0.83697667979E+02  0.00000000000E+00 0. -1.
         -6    2    1    2    0  503  0.59507714330E+02  0.13152286502E+03  0.21521844302E+03  0.31113509919E+03  0.17218199571E+03 0.  0.
        -24    2    3    3    0    0  0.69548777539E+02  0.79148027070E+02  0.22096975641E+03  0.25729167613E+03  0.79182894083E+02 0.  0.
          6    2    1    2  501    0 -0.59507714330E+02 -0.13152286502E+03  0.31514933349E+03  0.38662801328E+03  0.17123868185E+03 0.  0.
         24    2    5    5    0    0  0.28311057422E+02 -0.64564419577E+02  0.20293075606E+03  0.22911398467E+03  0.79638219259E+02 0.  0.
          5    1    5    5  501    0 -0.87818771752E+02 -0.66958445444E+02  0.11221857743E+03  0.15751402861E+03  0.47000000000E+01 0. -1.
        -11    1    6    6    0    0  0.17243908718E+02 -0.19957246649E+01  0.96150894817E+00  0.17385620618E+02  0.00000000000E+00 0.  1.
         12    1    6    6    0    0  0.11067148704E+02 -0.62568694912E+02  0.20196924711E+03  0.21172836405E+03  0.00000000000E+00 0. -1.
         -5    1    3    3    0  503 -0.10041063209E+02  0.52374837952E+02 -0.57513133878E+01  0.53843423057E+02  0.47000000000E+01 0.  1.
         13    1    4    4    0    0  0.12501736257E+02  0.21396364933E+02  0.33273092060E+01  0.25003376338E+02  0.00000000000E+00 0. -1.
        -14    1    4    4    0    0  0.57047041283E+02  0.57751662137E+02  0.21764244720E+03  0.23228829980E+03  0.00000000000E+00 0.  1.
</event>
<event>
12    1  0.8344842E-002  0.1768271E+03  0.7818608E-02  0.1171184E+00
         21   -1    0    0  501  502  0.00000000000E+00  0.00000000000E+00  0.27289711425E+02  0.27289711425E+02  0.00000000000E+00 0. -1.
         21   -1    0    0  502  503 -0.00000000000E+00 -0.00000000000E+00 -0.11403035076E+04  0.11403035076E+04  0.00000000000E+00 0. -1.
         -6    2    1    2    0  503  0.38915964568E+02 -0.27579721568E+02 -0.58053298522E+03  0.60686601873E+03  0.17027250049E+03 0.  0.
        -24    2    3    3    0    0  0.82791418536E+02 -0.50443962112E+02 -0.45291961660E+03  0.46991679162E+03  0.79288080104E+02 0.  0.
          6    2    1    2  501    0 -0.38915964568E+02  0.27579721568E+02 -0.53248081092E+03  0.56072720025E+03  0.16912742466E+03 0.  0.
         24    2    5    5    0    0 -0.73570030273E+02 -0.16382158570E+02 -0.24984105006E+03  0.27255906254E+03  0.78657280690E+02 0.  0.
          5    1    5    5  501    0  0.34654065705E+02  0.43961880138E+02 -0.28263976086E+03  0.28816813771E+03  0.47000000000E+01 0. -1.
        -13    1    6    6    0    0  0.15545270108E+01 -0.31456579747E+02 -0.88780900805E+02  0.94201811614E+02  0.00000000000E+00 0.  1.
         14    1    6    6    0    0 -0.75124557284E+02  0.15074421177E+02 -0.16106014925E+03  0.17835725093E+03  0.00000000000E+00 0. -1.
         -5    1    3    3    0  503 -0.43875453968E+02  0.22864240544E+02 -0.12761336862E+03  0.13694922711E+03  0.47000000000E+01 0.  1.
         13    1    4    4    0    0  0.62010108753E+02 -0.32400529753E+02 -0.14741946283E+03  0.16317948994E+03  0.00000000000E+00 0. -1.
        -14    1    4    4    0    0  0.20781309783E+02 -0.18043432358E+02 -0.30550015377E+03  0.30673730168E+03  0.00000000000E+00 0.  1.
</event>
<event>
12    1  0.8344842E-002  0.1799724E+03  0.7818608E-02  0.1167838E+00
         21   -1    0    0  503  502  0.00000000000E+00  0.00000000000E+00  0.14817647098E+03  0.14817647098E+03  0.00000000000E+00 0.  1.
         21   -1    0    0  501  503 -0.00000000000E+00 -0.00000000000E+00 -0.36344514138E+03  0.36344514138E+03  0.00000000000E+00 0.  1.
          6    2    1    2  501    0 -0.45000751027E+02  0.28447749403E+02 -0.26916033148E+03  0.32378595251E+03  0.17191776220E+03 0.  0.
         24    2    3    3    0    0 -0.53199269821E+02  0.34322554360E+02 -0.28805134683E+03  0.30186132014E+03  0.64331004477E+02 0.  0.
         -6    2    1    2    0  502  0.45000751027E+02 -0.28447749403E+02  0.53891661073E+02  0.18783565985E+03  0.17188246548E+03 0.  0.
        -24    2    5    5    0    0  0.48743977374E+02 -0.61575525298E+02 -0.14248371351E+02  0.11183161195E+03  0.78331173225E+02 0.  0.
          5    1    3    3  501    0  0.81985187935E+01 -0.58748049570E+01  0.18891015350E+02  0.21924632372E+02  0.47000000000E+01 0. -1.
        -13    1    4    4    0    0 -0.48446248489E+02  0.42596330962E+02 -0.14754184709E+03  0.16102820575E+03  0.00000000000E+00 0.  1.
         14    1    4    4    0    0 -0.47530213321E+01 -0.82737766024E+01 -0.14050949974E+03  0.14083311438E+03  0.00000000000E+00 0. -1.
         -5    1    5    5    0  502 -0.37432263464E+01  0.33127775895E+02  0.68140032424E+02  0.76004047905E+02  0.47000000000E+01 0.  1.
         11    1    6    6    0    0  0.15756711905E+02 -0.61645021437E+02  0.17561005082E+02  0.66005844722E+02  0.00000000000E+00 0. -1.
        -12    1    6    6    0    0  0.32987265469E+02  0.69496139013E-01 -0.31809376433E+02  0.45825767226E+02  0.00000000000E+00 0.  1.
</event>
<event>
12    1  0.8344842E-002  0.2089266E+03  0.7818608E-02  0.1142433E+00
         21   -1    0    0  503  502  0.00000000000E+00  0.00000000000E+00  0.70683788159E+03  0.70683788159E+03  0.00000000000E+00 0. -1.
         21   -1    0    0  501  503 -0.00000000000E+00 -0.00000000000E+00 -0.21971876921E+03  0.21971876921E+03  0.00000000000E+00 0. -1.
          6    2    1    2  501    0  0.76035065117E+02  0.90984065034E+02 -0.14926959981E+03  0.25677172131E+03  0.17201997622E+03 0.  0.
         24    2    3    3    0    0  0.74090225862E+02  0.46108308262E+02 -0.20601244163E+02  0.12040731360E+03  0.80362754111E+02 0.  0.
         -6    2    1    2    0  502 -0.76035065117E+02 -0.90984065034E+02  0.63638871219E+03  0.66978492949E+03  0.17193553312E+03 0.  0.
        -24    2    5    5    0    0 -0.82439955337E+02 -0.61280806595E+00  0.25267669579E+03  0.27549444236E+03  0.72491057443E+02 0.  0.
          5    1    3    3  501    0  0.19448392552E+01  0.44875756772E+02 -0.12866835564E+03  0.13636440771E+03  0.47000000000E+01 0. -1.
        -11    1    4    4    0    0  0.90675373461E+02  0.35792761751E+02 -0.95111701587E+01  0.97946962709E+02  0.00000000000E+00 0.  1.
         12    1    4    4    0    0 -0.16585147600E+02  0.10315546510E+02 -0.11090074005E+02  0.22460350891E+02  0.00000000000E+00 0. -1.
         -5    1    5    5    0  502  0.64048902196E+01 -0.90371256968E+02  0.38371201641E+03  0.39429048713E+03  0.47000000000E+01 0.  1.
         13    1    6    6    0    0 -0.45026387994E+02 -0.32154783136E+02  0.17636676839E+03  0.18484193974E+03  0.00000000000E+00 0. -1.
        -14    1    6    6    0    0 -0.37413567343E+02  0.31541975070E+02  0.76309927402E+02  0.90652502628E+02  0.00000000000E+00 0.  1.
</event>
<event>
12    1  0.8344842E-002  0.1746748E+03  0.7818608E-02  0.1174828E+00
         21   -1    0    0  501  502  0.00000000000E+00  0.00000000000E+00  0.10659062908E+04  0.10659062908E+04  0.00000000000E+00 0.  1.
         21   -1    0    0  502  503 -0.00000000000E+00 -0.00000000000E+00 -0.28485544833E+02  0.28485544833E+02  0.00000000000E+00 0.  1.
         -6    2    1    2    0  503 -0.10097547028E+02  0.27703462083E+02  0.60999898590E+03  0.63265527328E+03  0.16518017359E+03 0.  0.
        -24    2    3    3    0    0 -0.27558358703E+02  0.42557672365E+02  0.59954433498E+03  0.60702487662E+03  0.80344088853E+02 0.  0.
          6    2    1    2  501    0  0.10097547028E+02 -0.27703462083E+02  0.42742176011E+03  0.46173656239E+03  0.17216808579E+03 0.  0.
         24    2    5    5    0    0 -0.58854597421E+02 -0.28994772777E+02  0.28782646772E+03  0.30596428834E+03  0.80408393405E+02 0.  0.
          5    1    5    5  501    0  0.68952144448E+02  0.12913106934E+01  0.13959529239E+03  0.15577227406E+03  0.47000000000E+01 0. -1.
        -13    1    6    6    0    0 -0.42944063385E+02 -0.84705347572E+01  0.48892880242E+02  0.65623595432E+02  0.00000000000E+00 0.  1.
         14    1    6    6    0    0 -0.15910534036E+02 -0.20524238019E+02  0.23893358748E+03  0.24034069291E+03  0.00000000000E+00 0. -1.
         -5    1    3    3    0  503  0.17460811675E+02 -0.14854210282E+02  0.10454650918E+02  0.25630396666E+02  0.47000000000E+01 0.  1.
         11    1    4    4    0    0 -0.48712279880E+02  0.49804980724E+02  0.37898998313E+03  0.38533988845E+03  0.00000000000E+00 0. -1.
        -12    1    4    4    0    0  0.21153921177E+02 -0.72473083584E+01  0.22055435185E+03  0.22168498817E+03  0.00000000000E+00 0.  1.
</event>
<event>
12    1  0.8344842E-002  0.1752666E+03  0.7818608E-02  0.1172869E+00
         21   -1    0    0  501  502  0.00000000000E+00  0.00000000000E+00  0.42897451219E+03  0.42897451219E+03  0.00000000000E+00 0.  1.
         21   -1    0    0  502  503 -0.00000000000E+00 -0.00000000000E+00 -0.13902237719E+03  0.13902237719E+03  0.00000000000E+00 0.  1.
         -6    2    1    2    0  503 -0.13310836354E+02  0.25115401349E+02 -0.53404107594E+02  0.18322224572E+03  0.17294632367E+03 0.  0.
        -24    2    3    3    0    0  0.25629469096E+01  0.50127709044E+02  0.25812512272E+02  0.98517137290E+02  0.80746421835E+02 0.  0.
          6    2    1    2  501    0  0.13310836354E+02 -0.25115401349E+02  0.34335624260E+03  0.38477464366E+03  0.17131857846E+03 0.  0.
         24    2    5    5    0    0 -0.24302376258E+02  0.38502428058E+02  0.24349131420E+03  0.26044815451E+03  0.80449851696E+02 0.  0.
          5    1    5    5  501    0  0.37613212613E+02 -0.63617829407E+02  0.99864928392E+02  0.12432648915E+03  0.47000000000E+01 0. -1.
        -13    1    6    6    0    0 -0.11835763181E+02  0.67630835553E+01  0.21657926811E+03  0.21700784310E+03  0.00000000000E+00 0.  1.
         14    1    6    6    0    0 -0.12466613077E+02  0.31739344502E+02  0.26912046091E+02  0.43440311415E+02  0.00000000000E+00 0. -1.
         -5    1    3    3    0  503 -0.15873783264E+02 -0.25012307694E+02 -0.79216619866E+02  0.84705108431E+02  0.47000000000E+01 0.  1.
         11    1    4    4    0    0  0.16163296681E+02 -0.18632704384E+02  0.10288407281E+02  0.26726038925E+02  0.00000000000E+00 0. -1.
        -12    1    4    4    0    0 -0.13600349772E+02  0.68760413427E+02  0.15524104991E+02  0.71791098364E+02  0.00000000000E+00 0.  1.
</event>
<event>
12    1  0.8344842E-002  0.1965984E+03  0.7818608E-02  0.1153133E+00
         21   -1    0    0  501  502  0.00000000000E+00  0.00000000000E+00  0.73414671344E+02  0.73414671344E+02  0.00000000000E+00 0. -1.
         21   -1    0    0  502  503 -0.00000000000E+00 -0.00000000000E+00 -0.88731714157E+03  0.88731714157E+03  0.00000000000E+00 0. -1.
         -6    2    1    2    0  503  0.67953000937E+02  0.60731735263E+02 -0.71721985807E+03  0.74367684455E+03  0.17419807778E+03 0.  0.
        -24    2    3    3    0    0  0.89011960950E+02  0.44989572648E+01 -0.60147778150E+03  0.61320108662E+03  0.79351630011E+02 0.  0.
          6    2    1    2  501    0 -0.67953000937E+02 -0.60731735263E+02 -0.96682612148E+02  0.21705496836E+03  0.17163734382E+03 0.  0.
         24    2    5    5    0    0 -0.67797092113E+02 -0.56074143987E+02  0.96616786878E+00  0.11918213401E+03  0.80390871774E+02 0.  0.
          5    1    5    5  501    0 -0.15590882422E+00 -0.46575912765E+01 -0.97648780017E+02  0.97872834346E+02  0.47000000000E+01 0. -1.
        -13    1    6    6    0    0  0.49906792175E+00 -0.45179952420E+02 -0.16069575119E+02  0.47955275142E+02  0.00000000000E+00 0.  1.
         14    1    6    6    0    0 -0.68296160035E+02 -0.10894191567E+02  0.17035742987E+02  0.71226858870E+02  0.00000000000E+00 0. -1.
         -5    1    3    3    0  503 -0.21058960013E+02  0.56232777998E+02 -0.11574207657E+03  0.13047575793E+03  0.47000000000E+01 0.  1.
         13    1    4    4    0    0 -0.24402447729E+01  0.81882770630E+01 -0.24539013331E+03  0.24553883644E+03  0.00000000000E+00 0. -1.
        -14    1    4    4    0    0  0.91452205723E+02 -0.36893197982E+01 -0.35608764820E+03  0.36766225019E+03  0.00000000000E+00 0.  1.
</event>
<event>
12    1  0.8344842E-002  0.2051791E+03  0.7818608E-02  0.1146369E+00
         21   -1    0    0  503  502  0.00000000000E+00  0.00000000000E+00  0.32688869967E+03  0.32688869967E+03  0.00000000000E+00 0.  1.
         21   -1    0    0  501  503 -0.00000000000E+00 -0.00000000000E+00 -0.30369167099E+03  0.30369167099E+03  0.00000000000E+00 0.  1.
          6    2    1    2  501    0 -0.15053536519E+02  0.10902746568E+03 -0.22952687937E+03  0.30786531906E+03  0.17316139608E+03 0.  0.
         24    2    3    3    0    0 -0.66763264799E+02  0.11211199105E+03 -0.18837165640E+03  0.24153845668E+03  0.76357796309E+02 0.  0.
         -6    2    1    2    0  502  0.15053536519E+02 -0.10902746568E+03  0.25272390805E+03  0.32271505160E+03  0.16781547484E+03 0.  0.
        -24    2    5    5    0    0  0.65305996083E+02 -0.31665727045E+02  0.12082059250E+03  0.16168485893E+03  0.79226173974E+02 0.  0.
          5    1    3    3  501    0  0.51709728280E+02 -0.30845253674E+01 -0.41155222968E+02  0.66326862380E+02  0.47000000000E+01 0. -1.
        -11    1    4    4    0    0 -0.46147302812E+01  0.72599198958E+02 -0.12381261543E+03  0.14360189123E+03  0.00000000000E+00 0.  1.
         12    1    4    4    0    0 -0.62148534517E+02  0.39512792090E+02 -0.64559040973E+02  0.97936565453E+02  0.00000000000E+00 0. -1.
         -5    1    5    5    0  502 -0.50252459565E+02 -0.77361738635E+02  0.13190331555E+03  0.16103019267E+03  0.47000000000E+01 0.  1.
         11    1    6    6    0    0  0.24554450447E+02  0.52884648945E+01 -0.38553241721E+01  0.25411659178E+02  0.00000000000E+00 0. -1.
        -12    1    6    6    0    0  0.40751545636E+02 -0.36954191940E+02  0.12467591667E+03  0.13627319975E+03  0.00000000000E+00 0.  1.
</event>
<event>
12    1  0.8344842E-002  0.3811939E+03  0.7818608E-02  0.1050715E+00
         21   -1    0    0  503  502  0.00000000000E+00  0.00000000000E+00  0.60150938899E+03  0.60150938899E+03  0.00000000000E+00 0.  1.
         21   -1    0    0  501  503 -0.00000000000E+00 -0.00000000000E+00 -0.54796842156E+03  0.54796842156E+03  0.00000000000E+00 0. -1.
          6    2    1    2  501    0 -0.28756156983E+03  0.17673996914E+03 -0.40402149337E+03  0.55546568520E+03  0.17714425532E+03 0.  0.
         24    2    3    3    0    0 -0.20102849897E+03  0.19572280859E+03 -0.32025861219E+03  0.43345490367E+03  0.81226225012E+02 0.  0.
         -6    2    1    2    0  502  0.28756156983E+03 -0.17673996914E+03  0.45756246080E+03  0.59401212535E+03  0.17192535125E+03 0.  0.
        -24    2    5    5    0    0  0.22024383458E+03 -0.17501486161E+03  0.30011044086E+03  0.42269988978E+03  0.97320972309E+02 0.  0.
          5    1    3    3  501    0 -0.86533070853E+02 -0.18982839454E+02 -0.83762881181E+02  0.12201078153E+03  0.47000000000E+01 0. -1.
        -11    1    4    4    0    0  0.64764506787E+01  0.45213195547E+01 -0.20440175602E+01  0.81587224304E+01  0.00000000000E+00 0.  1.
         12    1    4    4    0    0 -0.20750494965E+03  0.19120148904E+03 -0.31821459463E+03  0.42529618124E+03  0.00000000000E+00 0. -1.
         -5    1    5    5    0  502  0.67317735250E+02 -0.17251075255E+01  0.15745201994E+03  0.17131223558E+03  0.47000000000E+01 0.  1.
         11    1    6    6    0    0  0.98973671416E+02 -0.21245308398E+02  0.89651655615E+02  0.13522045007E+03  0.00000000000E+00 0. -1.
        -12    1    6    6    0    0  0.12127016316E+03 -0.15376955321E+03  0.21045878524E+03  0.28747943971E+03  0.00000000000E+00 0.  1.
</event>
<event>
12    1  0.8344842E-002  0.2215308E+03  0.7818608E-02  0.1132915E+00
         21   -1    0    0  501  502  0.00000000000E+00  0.00000000000E+00  0.15398267277E+03  0.15398267277E+03  0.00000000000E+00 0.  1.
         21   -1    0    0  502  503 -0.00000000000E+00 -0.00000000000E+00 -0.31792074295E+03  0.31792074295E+03  0.00000000000E+00 0. -1.
         -6    2    1    2    0  503 -0.62069507496E+02  0.12489776116E+03 -0.91277769404E+02  0.23876094035E+03  0.17094759708E+03 0.  0.
        -24    2    3    3    0    0 -0.76865082032E+00  0.62185298886E+02  0.13563220266E+02  0.10199701576E+03  0.79698356691E+02 0.  0.
          6    2    1    2  501    0  0.62069507496E+02 -0.12489776116E+03 -0.72660300777E+02  0.23314247538E+03  0.17211571693E+03 0.  0.
         24    2    5    5    0    0  0.10196983389E+03 -0.10553597929E+03 -0.26529377346E+02  0.16897810255E+03  0.79461319710E+02 0.  0.
          5    1    5    5  501    0 -0.39900326397E+02 -0.19361781865E+02 -0.46130923431E+02  0.64164372826E+02  0.47000000000E+01 0. -1.
        -13    1    6    6    0    0  0.96762599795E+02 -0.78226135302E+02  0.79553490947E+01  0.12468206183E+03  0.00000000000E+00 0.  1.
         14    1    6    6    0    0  0.52072340982E+01 -0.27309843988E+02 -0.34484726441E+02  0.44296040718E+02  0.00000000000E+00 0. -1.
         -5    1    3    3    0  503 -0.61300856676E+02  0.62712462270E+02 -0.10484098967E+03  0.13676392459E+03  0.47000000000E+01 0.  1.
         13    1    4    4    0    0 -0.62577525170E+01  0.24846120943E+02 -0.33178990650E+02  0.41920575056E+02  0.00000000000E+00 0. -1.
        -14    1    4    4    0    0  0.54891016967E+01  0.37339177943E+02  0.46742210916E+02  0.60076440709E+02  0.00000000000E+00 0.  1.
</event>
<event>
12    1  0.8344842E-002  0.1860585E+03  0.7818608E-02  0.1163972E+00
         21   -1    0    0  501  502  0.00000000000E+00  0.00000000000E+00  0.11892026631E+03  0.11892026631E+03  0.00000000000E+00 0.  1.
         21   -1    0    0  502  503 -0.00000000000E+00 -0.00000000000E+00 -0.29337977839E+03  0.29337977839E+03  0.00000000000E+00 0.  1.
         -6    2    1    2    0  503  0.51970013284E+02  0.45519685164E+02 -0.13521788226E+03  0.23000354306E+03  0.17275656317E+03 0.  0.
        -24    2    3    3    0    0 -0.34173757223E+02 -0.28671894342E+02 -0.22390728378E+02  0.69762486148E+02  0.48739476283E+02 0.  0.
          6    2    1    2  501    0 -0.51970013284E+02 -0.45519685164E+02 -0.39241629820E+02  0.18229650165E+03  0.16407067070E+03 0.  0.
         24    2    5    5    0    0 -0.59383736864E+02 -0.77141615488E+02 -0.60940295996E+02  0.14295400696E+03  0.85116810234E+02 0.  0.
          5    1    5    5  501    0  0.74137235801E+01  0.31621930324E+02  0.21698666177E+02  0.39342494692E+02  0.47000000000E+01 0. -1.
        -11    1    6    6    0    0 -0.71474916783E+02 -0.28686265596E+02 -0.50015236876E+02  0.91831854401E+02  0.00000000000E+00 0.  1.
         12    1    6    6    0    0  0.12091179919E+02 -0.48455349892E+02 -0.10925059120E+02  0.51122152554E+02  0.00000000000E+00 0. -1.
         -5    1    3    3    0  503  0.86143770507E+02  0.74191579506E+02 -0.11282715388E+03  0.16024105691E+03  0.47000000000E+01 0.  1.
         11    1    4    4    0    0 -0.29452568946E+02  0.58380716741E+01 -0.17035908411E+02  0.34521863707E+02  0.00000000000E+00 0. -1.
        -12    1    4    4    0    0 -0.47211882774E+01 -0.34509966016E+02 -0.53548199665E+01  0.35240622441E+02  0.00000000000E+00 0.  1.
</event>
<event>
12    1  0.8344842E-002  0.1961464E+03  0.7818608E-02  0.1153271E+00
         21   -1    0    0  501  502  0.00000000000E+00  0.00000000000E+00  0.31350513952E+03  0.31350513952E+03  0.00000000000E+00 0. -1.
         21   -1    0    0  502  503 -0.00000000000E+00 -0.00000000000E+00 -0.12413717631E+03  0.12413717631E+03  0.00000000000E+00 0. -1.
         -6    2    1    2    0  503 -0.91527063178E+02  0.21359636466E+02  0.12292227259E+03  0.23054708598E+03  0.17090534337E+03 0.  0.
        -24    2    3    3    0    0 -0.26489352784E+02  0.41616223131E+02  0.13210258403E+03  0.16165150416E+03  0.79034930571E+02 0.  0.
          6    2    1    2  501    0  0.91527063178E+02 -0.21359636466E+02  0.66445690621E+02  0.20709522984E+03  0.17216261806E+03 0.  0.
         24    2    5    5    0    0  0.81516145328E+02 -0.43201075276E+02  0.10639239447E+03  0.16024337743E+03  0.76468186561E+02 0.  0.
          5    1    5    5  501    0  0.10010917850E+02  0.21841438810E+02 -0.39946703851E+02  0.46851852408E+02  0.47000000000E+01 0. -1.
        -11    1    6    6    0    0  0.17898506558E+01  0.13296928363E+02  0.39783463825E+02  0.41984948055E+02  0.00000000000E+00 0.  1.
         12    1    6    6    0    0  0.79726294673E+02 -0.56498003639E+02  0.66608930647E+02  0.11825842938E+03  0.00000000000E+00 0. -1.
         -5    1    3    3    0  503 -0.65037710394E+02 -0.20256586665E+02 -0.91803114476E+01  0.68895581824E+02  0.47000000000E+01 0.  1.
         13    1    4    4    0    0 -0.42190391478E+02 -0.63045253721E+01  0.57192192639E+02  0.71349303234E+02  0.00000000000E+00 0. -1.
        -14    1    4    4    0    0  0.15701038693E+02  0.47920748503E+02  0.74910391394E+02  0.90302200925E+02  0.00000000000E+00 0.  1.
</event>
<event>
12    1  0.8344842E-002  0.2899518E+03  0.7818608E-02  0.1091268E+00
         21   -1    0    0  501  502  0.00000000000E+00  0.00000000000E+00  0.20715615879E+03  0.20715615879E+03  0.00000000000E+00 0. -1.
         21   -1    0    0  502  503 -0.00000000000E+00 -0.00000000000E+00 -0.42864988257E+03  0.42864988257E+03  0.00000000000E+00 0.  1.
         -6    2    1    2    0  503  0.17289800710E+03 -0.15496608097E+03 -0.22391205356E+02  0.28407625892E+03  0.16214113511E+03 0.  0.
        -24    2    3    3    0    0  0.17729990174E+02 -0.57530251426E+02 -0.64088329343E+01  0.10009696502E+03  0.79713530130E+02 0.  0.
          6    2    1    2  501    0 -0.17289800710E+03  0.15496608097E+03 -0.19910251843E+03  0.35172978244E+03  0.17367734424E+03 0.  0.
         24    2    5    5    0    0 -0.19636436585E+03  0.15249045184E+03 -0.19815869145E+03  0.32765117073E+03  0.79221970442E+02 0.  0.
          5    1    5    5  501    0  0.23466358756E+02  0.24756291266E+01 -0.94382698370E+00  0.24078611717E+02  0.47000000000E+01 0. -1.
        -11    1    6    6    0    0 -0.40210051063E+02  0.65432276535E+02 -0.91543139355E+02  0.11949216452E+03  0.00000000000E+00 0.  1.
         12    1    6    6    0    0 -0.15615431479E+03  0.87058175309E+02 -0.10661555209E+03  0.20815900620E+03  0.00000000000E+00 0. -1.
         -5    1    3    3    0  503  0.15516801692E+03 -0.97435829545E+02 -0.15982372422E+02  0.18397929390E+03  0.47000000000E+01 0.  1.
         13    1    4    4    0    0  0.44332760711E+01 -0.47244917447E+02  0.32632656076E+02  0.57590158916E+02  0.00000000000E+00 0. -1.
        -14    1    4    4    0    0  0.13296714103E+02 -0.10285333979E+02 -0.39041489011E+02  0.42506806104E+02  0.00000000000E+00 0.  1.
</event>
<event>
12    1  0.8344842E-002  0.1879922E+03  0.7818608E-02  0.1160312E+00
         21   -1    0    0  503  502  0.00000000000E+00  0.00000000000E+00  0.74615862551E+03  0.74615862551E+03  0.00000000000E+00 0. -1.
         21   -1    0    0  501  503 -0.00000000000E+00 -0.00000000000E+00 -0.12324812094E+03  0.12324812094E+03  0.00000000000E+00 0. -1.
          6    2    1    2  501    0 -0.23650313679E+02  0.71526518860E+02 -0.29745898333E+02  0.19021499957E+03  0.17210911469E+03 0.  0.
         24    2    3    3    0    0 -0.91959489284E+01  0.83357908125E+02  0.36165535518E+02  0.12154682977E+03  0.80203363666E+02 0.  0.
         -6    2    1    2    0  502  0.23650313679E+02 -0.71526518860E+02  0.65265640290E+03  0.67919174688E+03  0.17223724495E+03 0.  0.
        -24    2    5    5    0    0  0.68240343056E+01 -0.11190798346E+03  0.41132072187E+03  0.43387809602E+03  0.80594675741E+02 0.  0.
          5    1    3    3  501    0 -0.14454364751E+02 -0.11831389264E+02 -0.65911433852E+02  0.68668169807E+02  0.47000000000E+01 0. -1.
        -13    1    4    4    0    0  0.26695991394E+02  0.72379810010E+02  0.15455700183E+02  0.78679041184E+02  0.00000000000E+00 0.  1.
         14    1    4    4    0    0 -0.35891940322E+02  0.10978098115E+02  0.20709835335E+02  0.42867788582E+02  0.00000000000E+00 0. -1.
         -5    1    5    5    0  502  0.16826279374E+02  0.40381464604E+02  0.24133568103E+03  0.24531365086E+03  0.47000000000E+01 0.  1.
         11    1    6    6    0    0  0.67221967478E+01  0.38303865135E+01  0.12230602992E+03  0.12255049875E+03  0.00000000000E+00 0. -1.
        -12    1    6    6    0    0  0.10183755782E+00 -0.11573836998E+03  0.28901469195E+03  0.31132759727E+03  0.00000000000E+00 0.  1.
</event>
<event>
12    1  0.8344842E-002  0.2756662E+03  0.7818608E-02  0.1098156E+00
         21   -1    0    0  503  502  0.00000000000E+00  0.00000000000E+00  0.10970934794E+03  0.10970934794E+03  0.00000000000E+00 0.  1.
         21   -1    0    0  501  503 -0.00000000000E+00 -0.00000000000E+00 -0.87089313468E+03  0.87089313468E+03  0.00000000000E+00 0.  1.
          6    2    1    2  501    0  0.16139538494E+03 -0.14243235015E+03 -0.15823905685E+03  0.31785446688E+03  0.17221038980E+03 0.  0.
         24    2    3    3    0    0  0.67306099325E+02 -0.13606892214E+03 -0.62041657317E+02  0.18306085961E+03  0.81346471952E+02 0.  0.
         -6    2    1    2    0  502 -0.16139538494E+03  0.14243235015E+03 -0.60294472989E+03  0.66274801574E+03  0.17133925533E+03 0.  0.
        -24    2    5    5    0    0 -0.18444587128E+03  0.10124666598E+03 -0.46079059598E+03  0.51288983849E+03  0.80354503792E+02 0.  0.
          5    1    3    3  501    0  0.94089285613E+02 -0.63634280015E+01 -0.96197399530E+02  0.13479360726E+03  0.47000000000E+01 0. -1.
        -11    1    4    4    0    0  0.67236247476E+02 -0.72746755534E+02 -0.72505912230E+01  0.99324591559E+02  0.00000000000E+00 0.  1.
         12    1    4    4    0    0  0.69851848926E-01 -0.63322166610E+02 -0.54791066094E+02  0.83736268051E+02  0.00000000000E+00 0. -1.
         -5    1    5    5    0  502  0.23050486340E+02  0.41185684170E+02 -0.14215413391E+03  0.14985817725E+03  0.47000000000E+01 0.  1.
         11    1    6    6    0    0 -0.31754699300E+01  0.10633072186E+02 -0.19220077386E+01  0.11262324233E+02  0.00000000000E+00 0. -1.
        -12    1    6    6    0    0 -0.18127040135E+03  0.90613593789E+02 -0.45886858824E+03  0.50162751426E+03  0.00000000000E+00 0.  1.
</event>
<event>
12    1  0.8344842E-002  0.1900789E+03  0.7818608E-02  0.1162522E+00
         21   -1    0    0  503  502  0.00000000000E+00  0.00000000000E+00  0.14016107081E+03  0.14016107081E+03  0.00000000000E+00 0. -1.
         21   -1    0    0  501  503 -0.00000000000E+00 -0.00000000000E+00 -0.37150969980E+03  0.37150969980E+03  0.00000000000E+00 0. -1.
          6    2    1    2  501    0  0.57244839272E+01  0.11932330257E+02 -0.26730569788E+03  0.31822076674E+03  0.17215391381E+03 0.  0.
         24    2    3    3    0    0  0.35203666532E+02  0.22737155218E+02 -0.54433585816E+02  0.10299439162E+03  0.76736908176E+02 0.  0.
         -6    2    1    2    0  502 -0.57244839272E+01 -0.11932330257E+02  0.35957068886E+02  0.19345000388E+03  0.18961762306E+03 0.  0.
        -24    2    5    5    0    0  0.65915441666E+02  0.16300066110E+02  0.14383568493E+02  0.11334474149E+03  0.89608067580E+02 0.  0.
          5    1    3    3  501    0 -0.29479182605E+02 -0.10804824962E+02 -0.21287211206E+03  0.21522637511E+03  0.47000000000E+01 0. -1.
        -13    1    4    4    0    0  0.82924064955E+00  0.73340183095E+01  0.19044057367E+02  0.20424289110E+02  0.00000000000E+00 0.  1.
         14    1    4    4    0    0  0.34374425883E+02  0.15403136909E+02 -0.73477643183E+02  0.82570102514E+02  0.00000000000E+00 0. -1.
         -5    1    5    5    0  502 -0.71639925593E+02 -0.28232396367E+02  0.21573500393E+02  0.80105262391E+02  0.47000000000E+01 0.  1.
         11    1    6    6    0    0 -0.90696483233E+01  0.33002831325E+02  0.12690253555E+02  0.36503259189E+02  0.00000000000E+00 0. -1.
        -12    1    6    6    0    0  0.74985089989E+02 -0.16702765215E+02  0.16933149382E+01  0.76841482299E+02  0.00000000000E+00 0.  1.
</event>
<event>
12    1  0.8344842E-002  0.1830873E+03  0.7818608E-02  0.1166474E+00
         21   -1    0    0  503  502  0.00000000000E+00  0.00000000000E+00  0.10695692264E+03  0.10695692264E+03  0.00000000000E+00 0.  1.
         21   -1    0    0  501  503 -0.00000000000E+00 -0.00000000000E+00 -0.36465173924E+03  0.36465173924E+03  0.00000000000E+00 0.  1.
          6    2    1    2  501    0 -0.40374256673E+02 -0.47673603312E+01 -0.22858438727E+03  0.29286817116E+03  0.17851648454E+03 0.  0.
         24    2    3    3    0    0  0.38994355118E+02 -0.37530846623E+01 -0.17747967273E+03  0.19834734203E+03  0.79422846096E+02 0.  0.
         -6    2    1    2    0  502  0.40374256673E+02  0.47673603312E+01 -0.29110429329E+02  0.17874049072E+03  0.17160401394E+03 0.  0.
        -24    2    5    5    0    0  0.63722334065E+02  0.55470303164E+02 -0.35383399083E+02  0.12237240330E+03  0.81151277044E+02 0.  0.
          5    1    3    3  501    0 -0.79368611790E+02 -0.10142756688E+01 -0.51104714534E+02  0.94520829134E+02  0.47000000000E+01 0. -1.
        -11    1    4    4    0    0  0.15638798415E+02 -0.10889808098E+02 -0.17234043703E+03  0.17339084801E+03  0.00000000000E+00 0.  1.
         12    1    4    4    0    0  0.23355556703E+02  0.71367234361E+01 -0.51392356986E+01  0.24956494022E+02  0.00000000000E+00 0. -1.
         -5    1    5    5    0  502 -0.23348077392E+02 -0.50702942833E+02  0.62729697535E+01  0.56368087420E+02  0.47000000000E+01 0.  1.
         13    1    6    6    0    0  0.22023359563E+01  0.35936607493E+01 -0.41456881464E+02  0.41670585573E+02  0.00000000000E+00 0. -1.
        -14    1    6    6    0    0  0.61519998109E+02  0.51876642415E+02  0.60734823815E+01  0.80701817723E+02  0.00000000000E+00 0.  1.
</event>
<event>
12    1  0.8344842E-002  0.1852151E+03  0.7818608E-02  0.1163147E+00
         21   -1    0    0  503  502  0.00000000000E+00  0.00000000000E+00  0.78801607584E+03  0.78801607584E+03  0.00000000000E+00 0. -1.
         21   -1    0    0  501  503 -0.00000000000E+00 -0.00000000000E+00 -0.55442422511E+02  0.55442422511E+02  0.00000000000E+00 0.  1.
          6    2    1    2  501    0 -0.48610307756E+02 -0.43456333094E+02  0.16740078060E+03  0.24871064024E+03  0.17199577413E+03 0.  0.
         24    2    3    3    0    0 -0.24301246438E+02 -0.17683112303E+02  0.84282437224E+01  0.85770323400E+02  0.79889110927E+02 0.  0.
         -6    2    1    2    0  502  0.48610307756E+02  0.43456333094E+02  0.56517287272E+03  0.59474785810E+03  0.17335865639E+03 0.  0.
        -24    2    5    5    0    0  0.35477100214E+02  0.86631337465E+02  0.50216200206E+03  0.51710108119E+03  0.80394269601E+02 0.  0.
          5    1    3    3  501    0 -0.24309061317E+02 -0.25773220791E+02  0.15897253688E+03  0.16294031685E+03  0.47000000000E+01 0. -1.
        -11    1    4    4    0    0  0.52317905299E+01  0.28978206786E+02  0.81262634282E+01  0.30547410005E+02  0.00000000000E+00 0.  1.
         12    1    4    4    0    0 -0.29533036968E+02 -0.46661319089E+02  0.30198029421E+00  0.55222913395E+02  0.00000000000E+00 0. -1.
         -5    1    5    5    0  502  0.13133207542E+02 -0.43175004371E+02  0.63010870660E+02  0.77646776907E+02  0.47000000000E+01 0.  1.
         13    1    6    6    0    0 -0.16463955485E+02  0.65132448283E+02  0.27212465554E+03  0.28029471241E+03  0.00000000000E+00 0. -1.
        -14    1    6    6    0    0  0.51941055699E+02  0.21498889182E+02  0.23003734652E+03  0.23680636878E+03  0.00000000000E+00 0.  1.
</event>
<event>
12    1  0.8344842E-002  0.2203525E+03  0.7818608E-02  0.1133659E+00
         21   -1    0    0  503  502  0.00000000000E+00  0.00000000000E+00  0.46875882722E+02  0.46875882722E+02  0.00000000000E+00 0. -1.
         21   -1    0    0  501  503 -0.00000000000E+00 -0.00000000000E+00 -0.12302452030E+04  0.12302452030E+04  0.00000000000E+00 0. -1.
          6    2    1    2  501    0 -0.74579957678E+01 -0.13838993439E+03 -0.33697720124E+03  0.40251554805E+03  0.17104893050E+03 0.  0.
         24    2    3    3    0    0  0.39022929109E+02 -0.20757829520E+02 -0.15122991915E+03  0.17774470635E+03  0.82274028147E+02 0.  0.
         -6    2    1    2    0  502  0.74579957678E+01  0.13838993439E+03 -0.84639211899E+03  0.87460553762E+03  0.17131208863E+03 0.  0.
        -24    2    5    5    0    0  0.52695371873E+02  0.99793004854E+02 -0.32711227457E+03  0.35191079881E+03  0.64057194034E+02 0.  0.
          5    1    3    3  501    0 -0.46480924877E+02 -0.11763210487E+03 -0.18574728209E+03  0.22477084170E+03  0.47000000000E+01 0. -1.
        -13    1    4    4    0    0  0.10279486717E+02  0.27462243116E+02 -0.90089859458E+02  0.94741888419E+02  0.00000000000E+00 0.  1.
         14    1    4    4    0    0  0.28743442392E+02 -0.48220072636E+02 -0.61140059688E+02  0.83002817930E+02  0.00000000000E+00 0. -1.
         -5    1    5    5    0  502 -0.45237376105E+02  0.38596929540E+02 -0.51927984442E+03  0.52269473881E+03  0.47000000000E+01 0.  1.
         11    1    6    6    0    0  0.48403611209E+02  0.43036120342E+02 -0.11184041543E+03  0.12924123087E+03  0.00000000000E+00 0. -1.
        -12    1    6    6    0    0  0.42917606640E+01  0.56756884511E+02 -0.21527185914E+03  0.22266956794E+03  0.00000000000E+00 0.  1.
</event>
<event>
12    1  0.8344842E-002  0.1888642E+03  0.7818608E-02  0.1159879E+00
         21   -1    0    0  503  502  0.00000000000E+00  0.00000000000E+00  0.89390956031E+03  0.89390956031E+03  0.00000000000E+00 0.  1.
         21   -1    0    0  501  503 -0.00000000000E+00 -0.00000000000E+00 -0.90101019553E+02  0.90101019553E+02  0.00000000000E+00 0.  1.
          6    2    1    2  501    0  0.15833371100E+02 -0.74904839610E+02  0.32555912023E+02  0.18997009319E+03  0.17078442043E+03 0.  0.
         24    2    3    3    0    0 -0.61553206061E+01 -0.35761924488E+02 -0.43625142651E+02  0.10141890201E+03  0.84058535554E+02 0.  0.
         -6    2    1    2    0  502 -0.15833371100E+02  0.74904839610E+02  0.77125262873E+03  0.79404048667E+03  0.17265064875E+03 0.  0.
        -24    2    5    5    0    0 -0.48944041504E+02  0.10042299236E+03  0.44906776760E+03  0.46912100840E+03  0.77021841316E+02 0.  0.
          5    1    3    3  501    0  0.21988691706E+02 -0.39142915122E+02  0.76181054673E+02  0.88551191174E+02  0.47000000000E+01 0. -1.
        -11    1    4    4    0    0 -0.23787049416E+02 -0.58230768872E+02 -0.27856583626E+02  0.68794152474E+02  0.00000000000E+00 0.  1.
         12    1    4    4    0    0  0.17631728810E+02  0.22468844384E+02 -0.15768559025E+02  0.32624749539E+02  0.00000000000E+00 0. -1.
         -5    1    5    5    0  502  0.33110670403E+02 -0.25518152745E+02  0.32218486114E+03  0.32491947827E+03  0.47000000000E+01 0.  1.
         11    1    6    6    0    0  0.12531325787E+02  0.57596261573E+02  0.16035308068E+03  0.17084341941E+03  0.00000000000E+00 0. -1.
        -12    1    6    6    0    0 -0.61475367291E+02  0.42826730782E+02  0.28871468692E+03  0.29827758899E+03  0.00000000000E+00 0.  1.
</event>
<event>
12    1  0.8344842E-002  0.1945389E+03  0.7818608E-02  0.1154472E+00
         21   -1    0    0  503  502  0.00000000000E+00  0.00000000000E+00  0.80165553666E+03  0.80165553666E+03  0.00000000000E+00 0. -1.
         21   -1    0    0  501  503 -0.00000000000E+00 -0.00000000000E+00 -0.10312667988E+03  0.10312667988E+03  0.00000000000E+00 0. -1.
          6    2    1    2  501    0 -0.60240425714E+02  0.66332150616E+02  0.15925803343E+02  0.19499893172E+03  0.17245894893E+03 0.  0.
         24    2    3    3    0    0 -0.68729301550E+02 -0.19730798957E+02  0.10409492992E+02  0.10821522368E+03  0.80555296364E+02 0.  0.
         -6    2    1    2    0  502  0.60240425714E+02 -0.66332150616E+02  0.68260305344E+03  0.70978328482E+03  0.17267460658E+03 0.  0.
        -24    2    5    5    0    0  0.32150217199E+02 -0.11108599932E+03  0.51878021212E+03  0.53758578157E+03  0.80571883152E+02 0.  0.
          5    1    3    3  501    0  0.84888758357E+01  0.86062949573E+02  0.55163103505E+01  0.86783708045E+02  0.47000000000E+01 0. -1.
        -11    1    4    4    0    0 -0.15664083388E+01 -0.13106996476E+02  0.34197607547E+02  0.36656832292E+02  0.00000000000E+00 0.  1.
         12    1    4    4    0    0 -0.67162893211E+02 -0.66238024812E+01 -0.23788114555E+02  0.71558391387E+02  0.00000000000E+00 0. -1.
         -5    1    5    5    0  502  0.28090208515E+02  0.44753848702E+02  0.16382284132E+03  0.17219750325E+03  0.47000000000E+01 0.  1.
         11    1    6    6    0    0  0.47020544347E+02 -0.11397831128E+03  0.48721138761E+03  0.50257031672E+03  0.00000000000E+00 0. -1.
        -12    1    6    6    0    0 -0.14870327148E+02  0.28923119616E+01  0.31568824505E+02  0.35015464849E+02  0.00000000000E+00 0.  1.
</event>
<event>
12    1  0.8344842E-002  0.1840795E+03  0.7818608E-02  0.1164212E+00
         21   -1    0    0  503  502  0.00000000000E+00  0.00000000000E+00  0.21527941471E+03  0.21527941471E+03  0.00000000000E+00 0. -1.
         21   -1    0    0  501  503 -0.00000000000E+00 -0.00000000000E+00 -0.35605888489E+03  0.35605888489E+03  0.00000000000E+00 0.  1.
          6    2    1    2  501    0  0.62047751603E+02 -0.92973544512E+01 -0.28424486138E+03  0.33795540157E+03  0.17170424557E+03 0.  0.
         24    2    3    3    0    0  0.85503146484E+02 -0.30049248797E+02 -0.11631126281E+03  0.16706192539E+03  0.78534270534E+02 0.  0.
         -6    2    1    2    0  502 -0.62047751603E+02  0.92973544512E+01  0.14346539120E+03  0.23338289803E+03  0.17305748855E+03 0.  0.
        -24    2    5    5    0    0 -0.86751801632E+02 -0.68007562204E+01  0.16052690525E+03  0.19899358985E+03  0.79103957690E+02 0.  0.
          5    1    3    3  501    0 -0.23455394882E+02  0.20751894346E+02 -0.16793359858E+03  0.17089347617E+03  0.47000000000E+01 0. -1.
        -13    1    4    4    0    0  0.49049781254E+01  0.22546090432E+02 -0.29508596296E+02  0.37458540542E+02  0.00000000000E+00 0.  1.
         14    1    4    4    0    0  0.80598168359E+02 -0.52595339229E+02 -0.86802666510E+02  0.12960338485E+03  0.00000000000E+00 0. -1.
         -5    1    5    5    0  502  0.24704050029E+02  0.16098110672E+02 -0.17061514055E+02  0.34389308177E+02  0.47000000000E+01 0.  1.
         11    1    6    6    0    0 -0.90287085856E+02 -0.23530942516E+00  0.87980581240E+02  0.12606504638E+03  0.00000000000E+00 0. -1.
        -12    1    6    6    0    0  0.35352842244E+01 -0.65654467952E+01  0.72546324010E+02  0.72928543476E+02  0.00000000000E+00 0.  1.
</event>
<event>
12    1  0.8344842E-002  0.1877923E+03  0.7818608E-02  0.1160840E+00
         21   -1    0    0  503  502  0.00000000000E+00  0.00000000000E+00  0.44213757498E+02  0.44213757498E+02  0.00000000000E+00 0.  1.
         21   -1    0    0  501  503 -0.00000000000E+00 -0.00000000000E+00 -0.86315871395E+03  0.86315871395E+03  0.00000000000E+00 0.  1.
          6    2    1    2  501    0 -0.13603552382E+02  0.69931496676E+02 -0.27646390801E+03  0.33330658393E+03  0.17200440574E+03 0.  0.
         24    2    3    3    0    0  0.17832968406E+02 -0.26148661864E+02 -0.10444317791E+03  0.13372483805E+03  0.77279930253E+02 0.  0.
         -6    2    1    2    0  502  0.13603552382E+02 -0.69931496676E+02 -0.54248104845E+03  0.57406588752E+03  0.17375409183E+03 0.  0.
        -24    2    5    5    0    0  0.29785643967E+02  0.23502829345E+02 -0.20897880391E+03  0.22731284792E+03  0.80990263422E+02 0.  0.
          5    1    3    3  501    0 -0.31436520788E+02  0.96080158539E+02 -0.17202073010E+03  0.19958174588E+03  0.47000000000E+01 0. -1.
        -13    1    4    4    0    0  0.10877382309E+02 -0.74770953394E+01  0.10624897718E+02  0.16944404744E+02  0.00000000000E+00 0.  1.
         14    1    4    4    0    0  0.69555860963E+01 -0.18671566524E+02 -0.11506807563E+03  0.11678043330E+03  0.00000000000E+00 0. -1.
         -5    1    5    5    0  502 -0.16182091584E+02 -0.93434326021E+02 -0.33350224453E+03  0.34675303961E+03  0.47000000000E+01 0.  1.
         13    1    6    6    0    0 -0.33803060047E+01 -0.92662139869E+01  0.29664787844E+01  0.10299960520E+02  0.00000000000E+00 0. -1.
        -14    1    6    6    0    0  0.33165949971E+02  0.32769043332E+02 -0.21194528270E+03  0.21701288740E+03  0.00000000000E+00 0.  1.
</event>
<event>
12    1  0.8344842E-002  0.1923762E+03  0.7818608E-02  0.1156784E+00
         21   -1    0    0  503  502  0.00000000000E+00  0.00000000000E+00  0.17295249861E+04  0.17295249861E+04  0.00000000000E+00 0.  1.
         21   -1    0    0  501  503 -0.00000000000E+00 -0.00000000000E+00 -0.59326795676E+02  0.59326795676E+02  0.00000000000E+00 0. -1.
          6    2    1    2  501    0  0.76098650449E+02  0.40923004711E+02  0.11627988778E+03  0.22307060617E+03  0.16962837652E+03 0.  0.
         24    2    3    3    0    0 -0.26550249879E+02 -0.13782767739E-01  0.39929915843E+02  0.88668130295E+02  0.74583665720E+02 0.  0.
         -6    2    1    2    0  502 -0.76098650449E+02 -0.40923004711E+02  0.15539183027E+04  0.15657811756E+04  0.17188048658E+03 0.  0.
        -24    2    5    5    0    0 -0.95055803729E+02  0.18383553529E+02  0.86136200783E+03  0.87041583781E+03  0.79408194312E+02 0.  0.
          5    1    3    3  501    0  0.10264890033E+03  0.40936787479E+02  0.76349971938E+02  0.13440247588E+03  0.47000000000E+01 0. -1.
        -13    1    4    4    0    0  0.34403479854E+01 -0.21258217926E+02 -0.12302488252E+02  0.24801190311E+02  0.00000000000E+00 0.  1.
         14    1    4    4    0    0 -0.29990597865E+02  0.21244435158E+02  0.52232404095E+02  0.63866939985E+02  0.00000000000E+00 0. -1.
         -5    1    5    5    0  502  0.18957153280E+02 -0.59306558240E+02  0.69255629486E+03  0.69536533784E+03  0.47000000000E+01 0.  1.
         11    1    6    6    0    0 -0.54063529167E+02 -0.22907417814E+02  0.27642885130E+03  0.28259604528E+03  0.00000000000E+00 0. -1.
        -12    1    6    6    0    0 -0.40992274562E+02  0.41290971342E+02  0.58493315653E+03  0.58781979253E+03  0.00000000000E+00 0.  1.
</event>
<event>
12    1  0.8344842E-002  0.2080662E+03  0.7818608E-02  0.1143299E+00
         21   -1    0    0  501  502  0.00000000000E+00  0.00000000000E+00  0.10530033851E+03  0.10530033851E+03  0.00000000000E+00 0.  1.
         21   -1    0    0  502  503 -0.00000000000E+00 -0.00000000000E+00 -0.91982458023E+03  0.91982458023E+03  0.00000000000E+00 0.  1.
         -6    2    1    2    0  503 -0.38699374419E+02  0.11011709206E+03 -0.78956475719E+03  0.81651947997E+03  0.17224441884E+03 0.  0.
        -24    2    3    3    0    0  0.36556957346E+02  0.98955401614E+02 -0.51396914405E+03  0.53057694940E+03  0.78860862031E+02 0.  0.
          6    2    1    2  501    0  0.38699374419E+02 -0.11011709206E+03 -0.24959484527E+02  0.20860543877E+03  0.17108429990E+03 0.  0.
         24    2    5    5    0    0 -0.32147816487E+02 -0.10216969164E+03 -0.30621901794E+02  0.13693509203E+03  0.79632848530E+02 0.  0.
          5    1    5    5  501    0  0.70847190906E+02 -0.79474004241E+01  0.56624172671E+01  0.71670346741E+02  0.47000000000E+01 0. -1.
        -13    1    6    6    0    0 -0.14325783852E+02 -0.18345164775E+02 -0.44405021850E+02  0.50135607297E+02  0.00000000000E+00 0.  1.
         14    1    6    6    0    0 -0.17822032635E+02 -0.83824526862E+02  0.13783120056E+02  0.86799484730E+02  0.00000000000E+00 0. -1.
         -5    1    3    3    0  503 -0.75256331765E+02  0.11161690447E+02 -0.27559561314E+03  0.28594253057E+03  0.47000000000E+01 0.  1.
         13    1    4    4    0    0 -0.16910096950E+02 -0.31370338093E+00 -0.40949881109E+02  0.44305107510E+02  0.00000000000E+00 0. -1.
        -14    1    4    4    0    0  0.53467054296E+02  0.99269104995E+02 -0.47301926294E+03  0.48627184189E+03  0.00000000000E+00 0.  1.
</event>
<event>
12    1  0.8344842E-002  0.2331834E+03  0.7818608E-02  0.1124435E+00
         21   -1    0    0  503  502  0.00000000000E+00  0.00000000000E+00  0.56094005666E+03  0.56094005666E+03  0.00000000000E+00 0.  1.
         21   -1    0    0  501  503 -0.00000000000E+00 -0.00000000000E+00 -0.20496908292E+03  0.20496908292E+03  0.00000000000E+00 0. -1.
          6    2    1    2  501    0 -0.13534138621E+03  0.80044110495E+02 -0.10010714847E+03  0.25367703551E+03  0.17206465855E+03 0.  0.
         24    2    3    3    0    0 -0.14239454275E+03  0.26784870835E+02 -0.34425083437E+02  0.16869164092E+03  0.79234766577E+02 0.  0.
         -6    2    1    2    0  502  0.13534138621E+03 -0.80044110495E+02  0.45607812221E+03  0.51223210407E+03  0.17219211489E+03 0.  0.
        -24    2    5    5    0    0  0.16570375931E+03 -0.72897032078E+02  0.41923793612E+03  0.46373216859E+03  0.80717804521E+02 0.  0.
          5    1    3    3  501    0  0.70531565392E+01  0.53259239660E+02 -0.65682065032E+02  0.84985394588E+02  0.47000000000E+01 0. -1.
        -13    1    4    4    0    0 -0.14478728431E+03  0.40727570719E+02 -0.27343817617E+02  0.15287176678E+03  0.00000000000E+00 0.  1.
         14    1    4    4    0    0  0.23927415612E+01 -0.13942699884E+02 -0.70812658195E+01  0.15819874141E+02  0.00000000000E+00 0. -1.
         -5    1    5    5    0  502 -0.30362373097E+02 -0.71470784170E+01  0.36840186091E+02  0.48499935476E+02  0.47000000000E+01 0.  1.
         11    1    6    6    0    0  0.74022804859E+02 -0.76262306658E+02  0.23503538200E+03  0.25794756415E+03  0.00000000000E+00 0. -1.
        -12    1    6    6    0    0  0.91680954452E+02  0.33652745798E+01  0.18420255412E+03  0.20578460444E+03  0.00000000000E+00 0.  1.
</event>
<event>
12    1  0.8344842E-002  0.2425328E+03  0.7818608E-02  0.1118429E+00
         21   -1    0    0  503  502  0.00000000000E+00  0.00000000000E+00  0.61884099286E+02  0.61884099286E+02  0.00000000000E+00 0. -1.
         21   -1    0    0  501  503 -0.00000000000E+00 -0.00000000000E+00 -0.94395009187E+03  0.94395009187E+03  0.00000000000E+00 0.  1.
          6    2    1    2  501    0  0.21515168831E+02 -0.16873779641E+03 -0.42434748993E+03  0.48782997404E+03  0.17021147121E+03 0.  0.
         24    2    3    3    0    0 -0.18720676334E+02 -0.19816994294E+02 -0.14787350204E+03  0.17119724591E+03  0.81845875999E+02 0.  0.
         -6    2    1    2    0  502 -0.21515168831E+02  0.16873779641E+03 -0.45771850265E+03  0.51800421712E+03  0.17287797678E+03 0.  0.
        -24    2    5    5    0    0 -0.64639881907E+02  0.11000230784E+03 -0.20221174431E+03  0.25226864921E+03  0.80442897589E+02 0.  0.
          5    1    3    3  501    0  0.40235845165E+02 -0.14892080211E+03 -0.27647398789E+03  0.31663272812E+03  0.47000000000E+01 0. -1.
        -13    1    4    4    0    0  0.27168954072E+02  0.10830136778E+01 -0.92001387027E+02  0.95935291728E+02  0.00000000000E+00 0.  1.
         14    1    4    4    0    0 -0.45889630406E+02 -0.20900007972E+02 -0.55872115010E+02  0.75261954185E+02  0.00000000000E+00 0. -1.
         -5    1    5    5    0  502  0.43124713075E+02  0.58735488566E+02 -0.25550675834E+03  0.26573556791E+03  0.47000000000E+01 0.  1.
         13    1    6    6    0    0 -0.57762773979E+01  0.71374081696E+02 -0.14435553619E+03  0.16114014319E+03  0.00000000000E+00 0. -1.
        -14    1    6    6    0    0 -0.58863604509E+02  0.38628226144E+02 -0.57856208121E+02  0.91128506017E+02  0.00000000000E+00 0.  1.
</event>
<event>
12    1  0.8344842E-002  0.2028901E+03  0.7818608E-02  0.1147519E+00
         21   -1    0    0  501  502  0.00000000000E+00  0.00000000000E+00  0.10074413787E+04  0.10074413787E+04  0.00000000000E+00 0.  1.
         21   -1    0    0  502  503 -0.00000000000E+00 -0.00000000000E+00 -0.73244072530E+02  0.73244072530E+02  0.00000000000E+00 0.  1.
         -6    2    1    2    0  503  0.86594682532E+02 -0.62438416208E+02  0.82683639980E+03  0.85114078581E+03  0.17142056575E+03 0.  0.
        -24    2    3    3    0    0  0.54495203718E+02  0.14819322889E+02  0.25548611710E+03  0.27367877811E+03  0.80234518736E+02 0.  0.
          6    2    1    2  501    0 -0.86594682532E+02  0.62438416208E+02  0.10736090640E+03  0.22954466545E+03  0.17253171985E+03 0.  0.
         24    2    5    5    0    0 -0.54064585564E+02  0.92977597209E+02  0.26046009925E+02  0.13667351184E+03  0.80208735256E+02 0.  0.
          5    1    5    5  501    0 -0.32530096968E+02 -0.30539181000E+02  0.81314896472E+02  0.92871153612E+02  0.47000000000E+01 0. -1.
        -11    1    6    6    0    0 -0.49425252272E+00  0.67478113727E+02 -0.85094200109E+01  0.68014339272E+02  0.00000000000E+00 0.  1.
         12    1    6    6    0    0 -0.53570333041E+02  0.25499483482E+02  0.34555429936E+02  0.68659172570E+02  0.00000000000E+00 0. -1.
         -5    1    3    3    0  503  0.32099478814E+02 -0.77257739097E+02  0.57135028270E+03  0.57746200769E+03  0.47000000000E+01 0.  1.
         13    1    4    4    0    0 -0.63704746314E+01  0.38965775672E+01 -0.28887707743E+01  0.80069507525E+01  0.00000000000E+00 0. -1.
        -14    1    4    4    0    0  0.60865678349E+02  0.10922745322E+02  0.25837488788E+03  0.26567182736E+03  0.00000000000E+00 0.  1.
</event>
<event>
12    1  0.8344842E-002  0.1845589E+03  0.7818608E-02  0.1163652E+00
         21   -1    0    0  501  502  0.00000000000E+00  0.00000000000E+00  0.61958880784E+02  0.61958880784E+02  0.00000000000E+00 0.  1.
         21   -1    0    0  502  503 -0.00000000000E+00 -0.00000000000E+00 -0.85517431233E+03  0.85517431233E+03  0.00000000000E+00 0.  1.
         -6    2    1    2    0  503 -0.28907769898E+02  0.61539201240E+02 -0.67228983933E+03  0.69716255015E+03  0.17157873067E+03 0.  0.
        -24    2    3    3    0    0 -0.17820527473E+02 -0.31558863567E+02 -0.34529505488E+03  0.35695988162E+03  0.82934607347E+02 0.  0.
          6    2    1    2  501    0  0.28907769898E+02 -0.61539201240E+02 -0.12092559222E+03  0.21997064296E+03  0.17070838428E+03 0.  0.
         24    2    5    5    0    0  0.76365906296E+02 -0.48425037026E+02 -0.12054444810E+03  0.17050862436E+03  0.79784028224E+02 0.  0.
          5    1    5    5  501    0 -0.47458136398E+02 -0.13114164214E+02 -0.38114412184E+00  0.49462018603E+02  0.47000000000E+01 0. -1.
        -11    1    6    6    0    0  0.63030483796E+02 -0.12369873297E+02 -0.27568966629E+02  0.69899238722E+02  0.00000000000E+00 0.  1.
         12    1    6    6    0    0  0.13335422500E+02 -0.36055163729E+02 -0.92975481467E+02  0.10060938564E+03  0.00000000000E+00 0. -1.
         -5    1    3    3    0  503 -0.11087242425E+02  0.93098064808E+02 -0.32699478445E+03  0.34020266853E+03  0.47000000000E+01 0.  1.
         13    1    4    4    0    0  0.75812106465E+01  0.40203784424E+01  0.32363045730E+00  0.85873706313E+01  0.00000000000E+00 0. -1.
        -14    1    4    4    0    0 -0.25401738120E+02 -0.35579242010E+02 -0.34561868534E+03  0.34837251099E+03  0.00000000000E+00 0.  1.
</event>
<event>
12    1  0.8344842E-002  0.2244090E+03  0.7818608E-02  0.1130668E+00
         21   -1    0    0  501  502  0.00000000000E+00  0.00000000000E+00  0.11711312313E+03  0.11711312313E+03  0.00000000000E+00 0. -1.
         21   -1    0    0  502  503 -0.00000000000E+00 -0.00000000000E+00 -0.46586763318E+03  0.46586763318E+03  0.00000000000E+00 0.  1.
         -6    2    1    2    0  503  0.54936860430E+02 -0.13391063379E+03 -0.25554543487E+03  0.33998416972E+03  0.17127653050E+03 0.  0.
        -24    2    3    3    0    0  0.10083983476E+03 -0.81054079511E+02 -0.15598900000E+03  0.21818732203E+03  0.80837511666E+02 0.  0.
          6    2    1    2  501    0 -0.54936860430E+02  0.13391063379E+03 -0.93209075182E+02  0.24299658659E+03  0.17149137856E+03 0.  0.
         24    2    5    5    0    0  0.36602953670E+01  0.39374301385E+01 -0.19077268824E+02  0.82235039417E+02  0.79810766215E+02 0.  0.
          5    1    5    5  501    0 -0.58597155797E+02  0.12997320365E+03 -0.74131806358E+02  0.16076154717E+03  0.47000000000E+01 0. -1.
        -13    1    6    6    0    0 -0.29179964462E+02  0.73170338314E+01 -0.34519134807E+02  0.45788426244E+02  0.00000000000E+00 0.  1.
         14    1    6    6    0    0  0.32840259829E+02 -0.33796036929E+01  0.15441865982E+02  0.36446613173E+02  0.00000000000E+00 0. -1.
         -5    1    3    3    0  503 -0.45902974334E+02 -0.52856554279E+02 -0.99556434870E+02  0.12179684769E+03  0.47000000000E+01 0.  1.
         11    1    4    4    0    0  0.34747201096E+02 -0.10602687420E+02 -0.19713587100E+01  0.36382292666E+02  0.00000000000E+00 0. -1.
        -12    1    4    4    0    0  0.66092633669E+02 -0.70451392091E+02 -0.15401764129E+03  0.18180502936E+03  0.00000000000E+00 0.  1.
</event>
<event>
12    1  0.8344842E-002  0.2012347E+03  0.7818608E-02  0.1148842E+00
         21   -1    0    0  501  502  0.00000000000E+00  0.00000000000E+00  0.15408381992E+03  0.15408381992E+03  0.00000000000E+00 0. -1.
         21   -1    0    0  502  503 -0.00000000000E+00 -0.00000000000E+00 -0.31402485317E+03  0.31402485317E+03  0.00000000000E+00 0.  1.
         -6    2    1    2    0  503  0.10182395414E+03 -0.17260954481E+02 -0.17518338550E+03  0.26629749939E+03  0.17192754706E+03 0.  0.
        -24    2    3    3    0    0  0.10848701264E+03 -0.52518870419E+02 -0.84983715771E+02  0.16910908751E+03  0.82752570164E+02 0.  0.
          6    2    1    2  501    0 -0.10182395414E+03  0.17260954481E+02  0.15242352255E+02  0.20181117370E+03  0.17271178982E+03 0.  0.
         24    2    5    5    0    0 -0.10061032764E+03  0.61877513920E+02 -0.10036141057E+02  0.15030192706E+03  0.92404980355E+02 0.  0.
          5    1    5    5  501    0 -0.12136265052E+01 -0.44616559438E+02  0.25278493312E+02  0.51509246641E+02  0.47000000000E+01 0. -1.
        -11    1    6    6    0    0  0.48383805881E+01  0.28438721055E+02 -0.25625277054E+02  0.38585302980E+02  0.00000000000E+00 0.  1.
         12    1    6    6    0    0 -0.10544870823E+03  0.33438792865E+02  0.15589135997E+02  0.11171662408E+03  0.00000000000E+00 0. -1.
         -5    1    3    3    0  503 -0.66630584989E+01  0.35257915938E+02 -0.90199669732E+02  0.97188411884E+02  0.47000000000E+01 0.  1.
         11    1    4    4    0    0  0.64211235854E+02 -0.34840280529E+02 -0.16157539661E+01  0.73072146664E+02  0.00000000000E+00 0. -1.
        -12    1    4    4    0    0  0.44275776787E+02 -0.17678589891E+02 -0.83367961805E+02  0.96036940841E+02  0.00000000000E+00 0.  1.
</event>
<event>
12    1  0.8344842E-002  0.2134070E+03  0.7818608E-02  0.1138932E+00
         21   -1    0    0  503  502  0.00000000000E+00  0.00000000000E+00  0.17394388250E+03  0.17394388250E+03  0.00000000000E+00 0.  1.
         21   -1    0    0  501  503 -0.00000000000E+00 -0.00000000000E+00 -0.32589625333E+03  0.32589625333E+03  0.00000000000E+00 0. -1.
          6    2    1    2  501    0  0.45047699900E+02 -0.11774527605E+03  0.35009552070E+02  0.21625960732E+03  0.17218973175E+03 0.  0.
         24    2    3    3    0    0  0.40455735521E+02 -0.80690647428E+02 -0.44551004561E+02  0.12824765466E+03  0.79467111427E+02 0.  0.
         -6    2    1    2    0  502 -0.45047699900E+02  0.11774527605E+03 -0.18696192290E+03  0.28358052851E+03  0.17195903650E+03 0.  0.
        -24    2    5    5    0    0 -0.81527758651E+01  0.82836502007E+02 -0.19598063441E+03  0.23178009335E+03  0.91571004098E+02 0.  0.
          5    1    3    3  501    0  0.45919643796E+01 -0.37054628626E+02  0.79560556631E+02  0.88011952659E+02  0.47000000000E+01 0. -1.
        -11    1    4    4    0    0  0.22675293909E+02 -0.87096826008E+02 -0.12258387557E+02  0.90831129686E+02  0.00000000000E+00 0.  1.
         12    1    4    4    0    0  0.17780441612E+02  0.64061785797E+01 -0.32292617004E+02  0.37416524971E+02  0.00000000000E+00 0. -1.
         -5    1    5    5    0  502 -0.36894924035E+02  0.34908774047E+02  0.90187115090E+01  0.51800435156E+02  0.47000000000E+01 0.  1.
         13    1    6    6    0    0 -0.12853556095E+02  0.46351122867E+02 -0.18810770041E+03  0.19416010776E+03  0.00000000000E+00 0. -1.
        -14    1    6    6    0    0  0.47007802295E+01  0.36485379140E+02 -0.78729340036E+01  0.37619985587E+02  0.00000000000E+00 0.  1.
</event>
<event>
12    1  0.8344842E-002  0.3973251E+03  0.7818608E-02  0.1044720E+00
         21   -1    0    0  503  502  0.00000000000E+00  0.00000000000E+00  0.10112130831E+04  0.10112130831E+04  0.00000000000E+00 0. -1.
         21   -1    0    0  501  503 -0.00000000000E+00 -0.00000000000E+00 -0.17149638960E+03  0.17149638960E+03  0.00000000000E+00 0.  1.
          6    2    1    2  501    0  0.35757793106E+03  0.89590740409E+01  0.24243817218E+03  0.46534703071E+03  0.17271175372E+03 0.  0.
         24    2    3    3    0    0  0.15400181246E+03  0.52545673679E+02  0.15856211298E+03  0.24084689476E+03  0.79922944024E+02 0.  0.
         -6    2    1    2    0  502 -0.35757793106E+03 -0.89590740409E+01  0.59727852130E+03  0.71736244198E+03  0.17298843708E+03 0.  0.
        -24    2    5    5    0    0 -0.18034432968E+03  0.10431584407E+02  0.20222230355E+03  0.28391203849E+03  0.84138518820E+02 0.  0.
          5    1    3    3  501    0  0.20357611860E+03 -0.43586599639E+02  0.83876059196E+02  0.22450013594E+03  0.47000000000E+01 0. -1.
        -11    1    4    4    0    0  0.12722220877E+03  0.63349530515E+02  0.94765130509E+02  0.17081886131E+03  0.00000000000E+00 0.  1.
         12    1    4    4    0    0  0.26779603691E+02 -0.10803856836E+02  0.63796982472E+02  0.70028033450E+02  0.00000000000E+00 0. -1.
         -5    1    5    5    0  502 -0.17723360138E+03 -0.19390658448E+02  0.39505621776E+03  0.43345040349E+03  0.47000000000E+01 0.  1.
         11    1    6    6    0    0 -0.17561744017E+03  0.11690722065E+02  0.14940287984E+03  0.23086658220E+03  0.00000000000E+00 0. -1.
        -12    1    6    6    0    0 -0.47268895086E+01 -0.12591376579E+01  0.52819423711E+02  0.53045456292E+02  0.00000000000E+00 0.  1.
</event>
<event>
12    1  0.8344842E-002  0.1893655E+03  0.7818608E-02  0.1159130E+00
         21   -1    0    0  501  502  0.00000000000E+00  0.00000000000E+00  0.43510115457E+02  0.43510115457E+02  0.00000000000E+00 0.  1.
         21   -1    0    0  502  503 -0.00000000000E+00 -0.00000000000E+00 -0.10096057433E+04  0.10096057433E+04  0.00000000000E+00 0.  1.
         -6    2    1    2    0  503 -0.24093148108E+02  0.76262551733E+02 -0.70939181137E+03  0.73412348017E+03  0.17118436119E+03 0.  0.
        -24    2    3    3    0    0  0.44309965485E+02  0.73889538659E+02 -0.38418734314E+03  0.40176124812E+03  0.79932151817E+02 0.  0.
          6    2    1    2  501    0  0.24093148108E+02 -0.76262551733E+02 -0.25670381650E+03  0.31899237862E+03  0.17164740495E+03 0.  0.
         24    2    5    5    0    0  0.41479662939E+02 -0.63911296056E+02 -0.70288844203E+02  0.13130253789E+03  0.80589196767E+02 0.  0.
          5    1    5    5  501    0 -0.17386514831E+02 -0.12351255676E+02 -0.18641497230E+03  0.18768984073E+03  0.47000000000E+01 0. -1.
        -13    1    6    6    0    0  0.12923775347E+01 -0.65299488815E+02 -0.62390082797E+02  0.90322842685E+02  0.00000000000E+00 0.  1.
         14    1    6    6    0    0  0.40187285404E+02  0.13881927591E+01 -0.78987614062E+01  0.40979695204E+02  0.00000000000E+00 0. -1.
         -5    1    3    3    0  503 -0.68403113592E+02  0.23730130737E+01 -0.32520446823E+03  0.33236223205E+03  0.47000000000E+01 0.  1.
         11    1    4    4    0    0 -0.14174164572E+02  0.13617772050E+02 -0.20099606789E+02  0.28113072582E+02  0.00000000000E+00 0. -1.
        -12    1    4    4    0    0  0.58484130056E+02  0.60271766609E+02 -0.36408773635E+03  0.37364817554E+03  0.00000000000E+00 0.  1.
</event>
<event>
12    1  0.8344842E-002  0.1830741E+03  0.7818608E-02  0.1165120E+00
         21   -1    0    0  503  502  0.00000000000E+00  0.00000000000E+00  0.26454796003E+02  0.26454796003E+02  0.00000000000E+00 0. -1.
         21   -1    0    0  501  503 -0.00000000000E+00 -0.00000000000E+00 -0.13644431285E+04  0.13644431285E+04  0.00000000000E+00 0. -1.
          6    2    1    2  501    0 -0.20653811630E+02 -0.59616817167E+02 -0.86383288995E+03  0.88301947211E+03  0.17185860914E+03 0.  0.
         24    2    3    3    0    0 -0.71753585691E+02 -0.33347569384E+02 -0.70704254207E+03  0.71596689512E+03  0.80242140879E+02 0.  0.
         -6    2    1    2    0  502  0.20653811630E+02  0.59616817167E+02 -0.47415544259E+03  0.50787845244E+03  0.17069386015E+03 0.  0.
        -24    2    5    5    0    0 -0.82765172594E+01  0.25057942696E+01 -0.10076861470E+03  0.12901377197E+03  0.80096566136E+02 0.  0.
          5    1    3    3  501    0  0.51099774060E+02 -0.26269247783E+02 -0.15679034788E+03  0.16705257698E+03  0.47000000000E+01 0. -1.
        -11    1    4    4    0    0 -0.22610861777E+02 -0.62831527646E+00 -0.50420213867E+03  0.50470926531E+03  0.00000000000E+00 0.  1.
         12    1    4    4    0    0 -0.49142723914E+02 -0.32719254107E+02 -0.20284040340E+03  0.21125762981E+03  0.00000000000E+00 0. -1.
         -5    1    5    5    0  502  0.28930328890E+02  0.57111022897E+02 -0.37338682789E+03  0.37886468047E+03  0.47000000000E+01 0.  1.
         13    1    6    6    0    0 -0.18472707222E+01  0.20723456516E+02 -0.10677466736E+03  0.10878282792E+03  0.00000000000E+00 0. -1.
        -14    1    6    6    0    0 -0.64292465371E+01 -0.18217662247E+02  0.60060526618E+01  0.20230944055E+02  0.00000000000E+00 0.  1.
</event>
<event>
12    1  0.8344842E-002  0.2103267E+03  0.7818608E-02  0.1141374E+00
         21   -1    0    0  503  502  0.00000000000E+00  0.00000000000E+00  0.41959280821E+02  0.41959280821E+02  0.00000000000E+00 0.  1.
         21   -1    0    0  501  503 -0.00000000000E+00 -0.00000000000E+00 -0.10554840461E+04  0.10554840461E+04  0.00000000000E+00 0.  1.
          6    2    1    2  501    0  0.73986705313E+02  0.93878070671E+02 -0.47771067942E+03  0.52182706989E+03  0.17265246281E+03 0.  0.
         24    2    3    3    0    0  0.37642293700E+02  0.34299216449E+02 -0.99023621397E+02  0.13673417974E+03  0.79354771693E+02 0.  0.
         -6    2    1    2    0  502 -0.73986705313E+02 -0.93878070671E+02 -0.53581408584E+03  0.57561625702E+03  0.17306130718E+03 0.  0.
        -24    2    5    5    0    0  0.26949988177E+02 -0.53853050655E+02 -0.30221309326E+03  0.31796973161E+03  0.78393517303E+02 0.  0.
          5    1    3    3  501    0  0.36344411614E+02  0.59578854223E+02 -0.37868705803E+03  0.38509289015E+03  0.47000000000E+01 0. -1.
        -13    1    4    4    0    0 -0.18186795359E+02  0.33761260703E+02 -0.37099113661E+02  0.53356597381E+02  0.00000000000E+00 0.  1.
         14    1    4    4    0    0  0.55829089058E+02  0.53795574552E+00 -0.61924507736E+02  0.83377582358E+02  0.00000000000E+00 0. -1.
         -5    1    5    5    0  502 -0.10093669349E+03 -0.40025020016E+02 -0.23360099259E+03  0.25764652541E+03  0.47000000000E+01 0.  1.
         11    1    6    6    0    0 -0.14370640640E+02 -0.40242891280E+02 -0.72357858451E+02  0.84033715201E+02  0.00000000000E+00 0. -1.
        -12    1    6    6    0    0  0.41320628818E+02 -0.13610159375E+02 -0.22985523481E+03  0.23393601641E+03  0.00000000000E+00 0.  1.
</event>
<event>
12    1  0.8344842E-002  0.2069690E+03  0.7818608E-02  0.1144093E+00
         21   -1    0    0  501  502  0.00000000000E+00  0.00000000000E+00  0.58559667953E+02  0.58559667953E+02  0.00000000000E+00 0. -1.
         21   -1    0    0  502  503 -0.00000000000E+00 -0.00000000000E+00 -0.17086808345E+04  0.17086808345E+04  0.00000000000E+00 0. -1.
         -6    2    1    2    0  503  0.70368251821E+02  0.89585141451E+02 -0.14934696293E+04  0.15076718532E+04  0.17217925228E+03 0.  0.
        -24    2    3    3    0    0 -0.13270350492E+02  0.71940375571E+02 -0.58317448515E+03  0.59336003932E+03  0.81437929133E+02 0.  0.
          6    2    1    2  501    0 -0.70368251821E+02 -0.89585141451E+02 -0.15665153730E+03  0.25956864928E+03  0.17279754373E+03 0.  0.
         24    2    5    5    0    0 -0.94820958647E+02 -0.26287418517E+02 -0.56040289765E+02  0.13812216012E+03  0.79089660948E+02 0.  0.
          5    1    5    5  501    0  0.24452706826E+02 -0.63297722934E+02 -0.10061124753E+03  0.12144648916E+03  0.47000000000E+01 0. -1.
        -13    1    6    6    0    0 -0.13074141453E+02  0.53035559732E+01 -0.48097696947E+02  0.50124338722E+02  0.00000000000E+00 0.  1.
         14    1    6    6    0    0 -0.81746817193E+02 -0.31590974491E+02 -0.79425928187E+01  0.87997821400E+02  0.00000000000E+00 0. -1.
         -5    1    3    3    0  503  0.83638602313E+02  0.17644765880E+02 -0.91029514412E+03  0.91431181387E+03  0.47000000000E+01 0.  1.
         13    1    4    4    0    0  0.43239301652E+01  0.85154684594E+02 -0.50501493179E+03  0.51216217941E+03  0.00000000000E+00 0. -1.
        -14    1    4    4    0    0 -0.17594280657E+02 -0.13214309023E+02 -0.78159553353E+02  0.81197859917E+02  0.00000000000E+00 0.  1.
</event>
<event>
12    1  0.8344842E-002  0.2227164E+03  0.7818608E-02  0.1131947E+00
         21   -1    0    0  503  502  0.00000000000E+00  0.00000000000E+00  0.27628764727E+02  0.27628764727E+02  0.00000000000E+00 0. -1.
         21   -1    0    0  501  503 -0.00000000000E+00 -0.00000000000E+00 -0.18209031332E+04  0.18209031332E+04  0.00000000000E+00 0. -1.
          6    2    1    2  501    0 -0.10082927700E+03  0.97964210757E+02 -0.10120899453E+04  0.10362193331E+04  0.17222345746E+03 0.  0.
         24    2    3    3    0    0 -0.90490645051E+02  0.42086467175E+02 -0.91381464433E+03  0.92260008160E+03  0.78574033984E+02 0.  0.
         -6    2    1    2    0  502  0.10082927700E+03 -0.97964210757E+02 -0.78118442320E+03  0.81231256481E+03  0.17273989179E+03 0.  0.
        -24    2    5    5    0    0  0.74072139022E+02 -0.42456941278E+02 -0.22672493575E+03  0.25441973046E+03  0.77691242212E+02 0.  0.
          5    1    3    3  501    0 -0.10338631950E+02  0.55877743582E+02 -0.98275300949E+02  0.11361925152E+03  0.47000000000E+01 0. -1.
        -11    1    4    4    0    0 -0.44050505040E+02 -0.65077858174E+01 -0.16932123300E+03  0.17507849159E+03  0.00000000000E+00 0.  1.
         12    1    4    4    0    0 -0.46440140011E+02  0.48594252992E+02 -0.74449341133E+03  0.74752159001E+03  0.00000000000E+00 0. -1.
         -5    1    5    5    0  502  0.26757137978E+02 -0.55507269479E+02 -0.55445948745E+03  0.55789283435E+03  0.47000000000E+01 0.  1.
         11    1    6    6    0    0 -0.13876771702E+02 -0.20448672600E+02 -0.52039440714E+02  0.57609169355E+02  0.00000000000E+00 0. -1.
        -12    1    6    6    0    0  0.87948910725E+02 -0.22008268678E+02 -0.17468549504E+03  0.19681056111E+03  0.00000000000E+00 0.  1.
</event>
<event>
12    1  0.8344842E-002  0.2027259E+03  0.7818608E-02  0.1148118E+00
         21   -1    0    0  503  502  0.00000000000E+00  0.00000000000E+00  0.13718752161E+04  0.13718752161E+04  0.00000000000E+00 0.  1.
         21   -1    0    0  501  503 -0.00000000000E+00 -0.00000000000E+00 -0.29497080846E+02  0.29497080846E+02  0.00000000000E+00 0. -1.
          6    2    1    2  501    0 -0.89897924274E+01 -0.10131750281E+03  0.66877077628E+03  0.69882196956E+03  0.17536174382E+03 0.  0.
         24    2    3    3    0    0  0.20098341214E+01 -0.13393423355E+03  0.43027926354E+03  0.45781339179E+03  0.80687289752E+02 0.  0.
         -6    2    1    2    0  502  0.89897924274E+01  0.10131750281E+03  0.67360735898E+03  0.70255032739E+03  0.17170916020E+03 0.  0.
        -24    2    5    5    0    0  0.31696321882E+02  0.11837249488E+03  0.64693959986E+03  0.66331107904E+03  0.80212451273E+02 0.  0.
          5    1    3    3  501    0 -0.10999626549E+02  0.32616730738E+02  0.23849151274E+03  0.24100857777E+03  0.47000000000E+01 0. -1.
        -13    1    4    4    0    0  0.48702532978E+01  0.10623676315E+02  0.28078551560E+02  0.30413597672E+02  0.00000000000E+00 0.  1.
         14    1    4    4    0    0 -0.28604191764E+01 -0.14455790986E+03  0.40220071198E+03  0.42739979412E+03  0.00000000000E+00 0. -1.
         -5    1    5    5    0  502 -0.22706529454E+02 -0.17054992075E+02  0.26667759117E+02  0.39239248348E+02  0.47000000000E+01 0.  1.
         11    1    6    6    0    0 -0.21776418714E+02  0.60288580717E+02  0.22065486053E+03  0.22977705031E+03  0.00000000000E+00 0. -1.
        -12    1    6    6    0    0  0.53472740595E+02  0.58083914167E+02  0.42628473934E+03  0.43353402873E+03  0.00000000000E+00 0.  1.
</event>
<event>
12    1  0.8344842E-002  0.1939821E+03  0.7818608E-02  0.1155501E+00
         21   -1    0    0  501  502  0.00000000000E+00  0.00000000000E+00  0.58224887578E+02  0.58224887578E+02  0.00000000000E+00 0.  1.
         21   -1    0    0  502  503 -0.00000000000E+00 -0.00000000000E+00 -0.90613184726E+03  0.90613184726E+03  0.00000000000E+00 0.  1.
         -6    2    1    2    0  503  0.90745549143E+02 -0.11291869165E+02 -0.68443802019E+03  0.71068143175E+03  0.16807865110E+03 0.  0.
        -24    2    3    3    0    0  0.44915362772E+02 -0.21231076663E+02 -0.17580557273E+03  0.19987006693E+03  0.81069697299E+02 0.  0.
          6    2    1    2  501    0 -0.90745549143E+02  0.11291869165E+02 -0.16346893949E+03  0.25367530309E+03  0.17107543429E+03 0.  0.
         24    2    5    5    0    0 -0.27105133465E+02 -0.48377949481E+02 -0.50216759352E+02  0.11064126493E+03  0.81514736883E+02 0.  0.
          5    1    5    5  501    0 -0.63640415678E+02  0.59669818647E+02 -0.11325218014E+03  0.14303403816E+03  0.47000000000E+01 0. -1.
        -11    1    6    6    0    0 -0.48394703757E+02 -0.52875314814E+02 -0.52375226555E+02  0.88775056323E+02  0.00000000000E+00 0.  1.
         12    1    6    6    0    0  0.21289570292E+02  0.44973653322E+01  0.21584672034E+01  0.21866208606E+02  0.00000000000E+00 0. -1.
         -5    1    3    3    0  503  0.45830186371E+02  0.99392074979E+01 -0.50863244746E+03  0.51081136483E+03  0.47000000000E+01 0.  1.
         13    1    4    4    0    0  0.47324752879E+02 -0.48452077131E+02 -0.12730606030E+03  0.14420148752E+03  0.00000000000E+00 0. -1.
        -14    1    4    4    0    0 -0.24093901070E+01  0.27221000468E+02 -0.48499512429E+02  0.55668579405E+02  0.00000000000E+00 0.  1.
</event>
<event>
12    1  0.8344842E-002  0.2103633E+03  0.7818608E-02  0.1143446E+00
         21   -1    0    0  503  502  0.00000000000E+00  0.00000000000E+00  0.20044512376E+03  0.20044512376E+03  0.00000000000E+00 0. -1.
         21   -1    0    0  501  503 -0.00000000000E+00 -0.00000000000E+00 -0.25367488981E+03  0.25367488981E+03  0.00000000000E+00 0. -1.
          6    2    1    2  501    0 -0.47360309398E+02  0.93784387081E+02 -0.12168176466E+03  0.24302089299E+03  0.18224761292E+03 0.  0.
         24    2    3    3    0    0 -0.34345081540E+02 -0.26742441841E+01  0.82714433895E+00  0.86482761903E+02  0.79321168239E+02 0.  0.
         -6    2    1    2    0  502  0.47360309398E+02 -0.93784387081E+02  0.68451998608E+02  0.21109912058E+03  0.16981947011E+03 0.  0.
        -24    2    5    5    0    0  0.63046999873E+02 -0.10401706902E+03  0.70142586486E+01  0.14669829815E+03  0.81711174367E+02 0.  0.
          5    1    3    3  501    0 -0.13015227858E+02  0.96458631265E+02 -0.12250890900E+03  0.15653813109E+03  0.47000000000E+01 0. -1.
        -13    1    4    4    0    0 -0.57257818186E+02 -0.51364778776E+01 -0.13886881571E+02  0.59141243039E+02  0.00000000000E+00 0.  1.
         14    1    4    4    0    0  0.22912736646E+02  0.24622336935E+01  0.14714025909E+02  0.27341518865E+02  0.00000000000E+00 0. -1.
         -5    1    5    5    0  502 -0.15686690475E+02  0.10232681935E+02  0.61437739960E+02  0.64400822425E+02  0.47000000000E+01 0.  1.
         13    1    6    6    0    0  0.55767303716E+02 -0.30553352839E+02  0.28686043181E+02  0.69759505494E+02  0.00000000000E+00 0. -1.
        -14    1    6    6    0    0  0.72796961572E+01 -0.73463716177E+02 -0.21671784533E+02  0.76938792657E+02  0.00000000000E+00 0.  1.
</event>
<event>
12    1  0.8344842E-002  0.2628871E+03  0.7818608E-02  0.1105644E+00
         21   -1    0    0  503  502  0.00000000000E+00  0.00000000000E+00  0.22841088582E+03  0.22841088582E+03  0.00000000000E+00 0.  1.
         21   -1    0    0  501  503 -0.00000000000E+00 -0.00000000000E+00 -0.31090357950E+03  0.31090357950E+03  0.00000000000E+00 0. -1.
          6    2    1    2  501    0  0.13606763006E+03  0.13961229264E+03 -0.89650231393E+02  0.27632993377E+03  0.17411225144E+03 0.  0.
         24    2    3    3    0    0  0.82153669234E+02  0.70445126615E+01 -0.44930510478E+02  0.12632035108E+03  0.84493963086E+02 0.  0.
         -6    2    1    2    0  502 -0.13606763006E+03 -0.13961229264E+03  0.71575377176E+01  0.26298453155E+03  0.17636224448E+03 0.  0.
        -24    2    5    5    0    0 -0.16994745765E+03 -0.11831393931E+03 -0.23419037658E+01  0.22158656106E+03  0.78833957997E+02 0.  0.
          5    1    3    3  501    0  0.53913960830E+02  0.13256777998E+03 -0.44719720915E+02  0.15000958269E+03  0.47000000000E+01 0. -1.
        -11    1    4    4    0    0  0.11090577826E+02  0.30597190041E+02  0.93346191265E+01  0.33857407892E+02  0.00000000000E+00 0.  1.
         12    1    4    4    0    0  0.71063091408E+02 -0.23552677379E+02 -0.54265129604E+02  0.92462943189E+02  0.00000000000E+00 0. -1.
         -5    1    5    5    0  502  0.33879827584E+02 -0.21298353324E+02  0.94994414833E+01  0.41397970481E+02  0.47000000000E+01 0.  1.
         13    1    6    6    0    0 -0.10391562512E+03 -0.37427484705E+02  0.25842032140E+02  0.11343317143E+03  0.00000000000E+00 0. -1.
        -14    1    6    6    0    0 -0.66031832532E+02 -0.80886454610E+02 -0.28183935906E+02  0.10815338964E+03  0.00000000000E+00 0.  1.
</event>
<event>
12    1  0.8344842E-002  0.2500910E+03  0.7818608E-02  0.1113534E+00
         21   -1    0    0  501  502  0.00000000000E+00  0.00000000000E+00  0.13606137145E+03  0.13606137145E+03  0.00000000000E+00 0.  1.
         21   -1    0    0  502  503 -0.00000000000E+00 -0.00000000000E+00 -0.55406610039E+03  0.55406610039E+03  0.00000000000E+00 0.  1.
         -6    2    1    2    0  503 -0.69866761807E+02 -0.16431419338E+03 -0.35452194520E+03  0.43385631695E+03  0.17511417870E+03 0.  0.
        -24    2    3    3    0    0 -0.80874759816E+02 -0.45348518940E+02 -0.12048313286E+03  0.17104409616E+03  0.78375267679E+02 0.  0.
          6    2    1    2  501    0  0.69866761807E+02  0.16431419338E+03 -0.63482783752E+02  0.25627115489E+03  0.17252339679E+03 0.  0.
         24    2    5    5    0    0  0.83986183537E+02  0.73986476958E+02 -0.85050073182E+02  0.16221961371E+03  0.80956842365E+02 0.  0.
          5    1    5    5  501    0 -0.14119421730E+02  0.90327716425E+02  0.21567289430E+02  0.94051541178E+02  0.47000000000E+01 0. -1.
        -11    1    6    6    0    0  0.43467649191E+01  0.56724524755E-01  0.14322868251E+02  0.14968037209E+02  0.00000000000E+00 0.  1.
         12    1    6    6    0    0  0.79639418618E+02  0.73929752434E+02 -0.99372941433E+02  0.14725157650E+03  0.00000000000E+00 0. -1.
         -5    1    3    3    0  503  0.11007998009E+02 -0.11896567444E+03 -0.23403881234E+03  0.26281222079E+03  0.47000000000E+01 0.  1.
         13    1    4    4    0    0 -0.45714392257E+02  0.17797766341E+02 -0.45758001492E+02  0.67084728863E+02  0.00000000000E+00 0. -1.
        -14    1    4    4    0    0 -0.35160367559E+02 -0.63146285282E+02 -0.74725131366E+02  0.10395936730E+03  0.00000000000E+00 0.  1.
</event>
<event>
12    1  0.8344842E-002  0.1951947E+03  0.7818608E-02  0.1154331E+00
         21   -1    0    0  503  502  0.00000000000E+00  0.00000000000E+00  0.62978203864E+02  0.62978203864E+02  0.00000000000E+00 0. -1.
         21   -1    0    0  501  503 -0.00000000000E+00 -0.00000000000E+00 -0.69187913575E+03  0.69187913575E+03  0.00000000000E+00 0. -1.
          6    2    1    2  501    0  0.96791236043E+02  0.16619661729E+02 -0.17413399899E+03  0.25996955420E+03  0.16618292023E+03 0.  0.
         24    2    3    3    0    0 -0.21191672726E+02 -0.20484143647E+02 -0.23966064076E+02  0.65369559824E+02  0.53198872078E+02 0.  0.
         -6    2    1    2    0  502 -0.96791236043E+02 -0.16619661729E+02 -0.45476693289E+03  0.49488778541E+03  0.16868965696E+03 0.  0.
        -24    2    5    5    0    0 -0.10298971101E+03  0.30739970758E+02 -0.38988748901E+03  0.41418593834E+03  0.89363924816E+02 0.  0.
          5    1    3    3  501    0  0.11798290877E+03  0.37103805376E+02 -0.15016793492E+03  0.19459999438E+03  0.47000000000E+01 0. -1.
        -11    1    4    4    0    0  0.91699288794E+01 -0.69435311368E+01 -0.29504436278E+02  0.31667206703E+02  0.00000000000E+00 0.  1.
         12    1    4    4    0    0 -0.30361601606E+02 -0.13540612510E+02  0.55383722022E+01  0.33702353121E+02  0.00000000000E+00 0. -1.
         -5    1    5    5    0  502  0.61984749685E+01 -0.47359632487E+02 -0.64879443881E+02  0.80701847064E+02  0.47000000000E+01 0.  1.
         11    1    6    6    0    0 -0.39182433171E+02 -0.77014737077E+01 -0.27073424978E+03  0.27366331463E+03  0.00000000000E+00 0. -1.
        -12    1    6    6    0    0 -0.63807277841E+02  0.38441444466E+02 -0.11915323922E+03  0.14052262371E+03  0.00000000000E+00 0.  1.
</event>
<event>
12    1  0.8344842E-002  0.1926178E+03  0.7818608E-02  0.1156238E+00
         21   -1    0    0  501  502  0.00000000000E+00  0.00000000000E+00  0.15886399298E+03  0.15886399298E+03  0.00000000000E+00 0.  1.
         21   -1    0    0  502  503 -0.00000000000E+00 -0.00000000000E+00 -0.27088560159E+03  0.27088560159E+03  0.00000000000E+00 0.  1.
         -6    2    1    2    0  503  0.85841557203E+02  0.35620123146E+01  0.24382229388E+02  0.19415486450E+03  0.17239535209E+03 0.  0.
        -24    2    3    3    0    0  0.18712359920E+02 -0.45004227811E+02  0.50326034254E+02  0.10720556997E+03  0.81146728673E+02 0.  0.
          6    2    1    2  501    0 -0.85841557203E+02 -0.35620123146E+01 -0.13640383800E+03  0.23559473007E+03  0.17180631228E+03 0.  0.
         24    2    5    5    0    0 -0.55659415666E+02  0.40924026043E+02 -0.17917787850E+02  0.10539871110E+03  0.77557041715E+02 0.  0.
          5    1    5    5  501    0 -0.30182141537E+02 -0.44486038357E+02 -0.11848605015E+03  0.13019601897E+03  0.47000000000E+01 0. -1.
        -11    1    6    6    0    0 -0.62968884546E+02  0.57769742613E+02 -0.15955038307E+02  0.86930931376E+02  0.00000000000E+00 0.  1.
         12    1    6    6    0    0  0.73094688799E+01 -0.16845716570E+02 -0.19627495436E+01  0.18467779721E+02  0.00000000000E+00 0. -1.
         -5    1    3    3    0  503  0.67129197283E+02  0.48566240125E+02 -0.25943804866E+02  0.86949294527E+02  0.47000000000E+01 0.  1.
         13    1    4    4    0    0 -0.30481760055E+02 -0.19083731645E+02  0.68216486913E+01  0.36604117260E+02  0.00000000000E+00 0. -1.
        -14    1    4    4    0    0  0.49194119975E+02 -0.25920496165E+02  0.43504385563E+02  0.70601452710E+02  0.00000000000E+00 0.  1.
</event>
<event>
12    1  0.8344842E-002  0.2426442E+03  0.7818608E-02  0.1118390E+00
         21   -1    0    0  503  502  0.00000000000E+00  0.00000000000E+00  0.66643716478E+02  0.66643716478E+02  0.00000000000E+00 0. -1.
         21   -1    0    0  501  503 -0.00000000000E+00 -0.00000000000E+00 -0.91431560117E+03  0.91431560117E+03  0.00000000000E+00 0. -1.
          6    2    1    2  501    0  0.15237886632E+03  0.73027687284E+02 -0.52270588726E+03  0.57539906133E+03  0.17120243337E+03 0.  0.
         24    2    3    3    0    0  0.21864174848E+02  0.65865180780E+02 -0.18994308221E+03  0.21785387452E+03  0.81028834257E+02 0.  0.
         -6    2    1    2    0  502 -0.15237886632E+03 -0.73027687284E+02 -0.32496599743E+03  0.40556025632E+03  0.17413747445E+03 0.  0.
        -24    2    5    5    0    0 -0.71822626816E+02 -0.77663360691E+01 -0.62003499457E+02  0.12285950106E+03  0.77660912667E+02 0.  0.
          5    1    3    3  501    0  0.13051469147E+03  0.71625065045E+01 -0.33276280505E+03  0.35754518681E+03  0.47000000000E+01 0. -1.
        -11    1    4    4    0    0 -0.22636871511E+02  0.42285964001E+01 -0.86293867477E+02  0.89313719794E+02  0.00000000000E+00 0.  1.
         12    1    4    4    0    0  0.44501046359E+02  0.61636584380E+02 -0.10364921474E+03  0.12854015472E+03  0.00000000000E+00 0. -1.
         -5    1    5    5    0  502 -0.80556239501E+02 -0.65261351215E+02 -0.26296249798E+03  0.28270075526E+03  0.47000000000E+01 0.  1.
         13    1    6    6    0    0 -0.34985875433E+02 -0.37256735123E+02 -0.55127609361E+02  0.75173992216E+02  0.00000000000E+00 0. -1.
        -14    1    6    6    0    0 -0.36836751382E+02  0.29490399054E+02 -0.68758900967E+01  0.47685508841E+02  0.00000000000E+00 0.  1.
</event>
<event>
12    1  0.8344842E-002  0.2174933E+03  0.7818608E-02  0.1135952E+00
         21   -1    0    0  503  502  0.00000000000E+00  0.00000000000E+00  0.20330939161E+03  0.20330939161E+03  0.00000000000E+00 0. -1.
         21   -1    0    0  501  503 -0.00000000000E+00 -0.00000000000E+00 -0.32921218207E+03  0.32921218207E+03  0.00000000000E+00 0.  1.
          6    2    1    2  501    0 -0.74957204252E+02 -0.10801302195E+03 -0.20782258621E+03  0.30011209139E+03  0.17202222148E+03 0.  0.
         24    2    3    3    0    0  0.22881391619E+02 -0.44460014987E+02 -0.12583043624E+03  0.15743701231E+03  0.80329715203E+02 0.  0.
         -6    2    1    2    0  502  0.74957204252E+02  0.10801302195E+03  0.81919795749E+02  0.23240948229E+03  0.17325680115E+03 0.  0.
        -24    2    5    5    0    0  0.51287129040E+02  0.37266303878E+02  0.11226726761E+03  0.15173464342E+03  0.80001972647E+02 0.  0.
          5    1    3    3  501    0 -0.97838595871E+02 -0.63553006960E+02 -0.81992149968E+02  0.14267507909E+03  0.47000000000E+01 0. -1.
        -11    1    4    4    0    0 -0.33463844865E+01 -0.30091467406E+02 -0.12381537593E+03  0.12746349288E+03  0.00000000000E+00 0.  1.
         12    1    4    4    0    0  0.26227776106E+02 -0.14368547581E+02 -0.20150603126E+01  0.29973519431E+02  0.00000000000E+00 0. -1.
         -5    1    5    5    0  502  0.23670075212E+02  0.70746718070E+02 -0.30347471863E+02  0.80674838870E+02  0.47000000000E+01 0.  1.
         11    1    6    6    0    0  0.24395679870E+01  0.46238300565E+02  0.80232423981E+02  0.92634625216E+02  0.00000000000E+00 0. -1.
        -12    1    6    6    0    0  0.48847561053E+02 -0.89719966873E+01  0.32034843631E+02  0.59100018205E+02  0.00000000000E+00 0.  1.
</event>
<event>
12    1  0.8344842E-002  0.2741926E+03  0.7818608E-02  0.1099461E+00
         21   -1    0    0  503  502  0.00000000000E+00  0.00000000000E+00  0.23634665131E+03  0.23634665131E+03  0.00000000000E+00 0. -1.
         21   -1    0    0  501  503 -0.00000000000E+00 -0.00000000000E+00 -0.35875969673E+03  0.35875969673E+03  0.00000000000E+00 0.  1.
          6    2    1    2  501    0 -0.18386213486E+03  0.10675718156E+03 -0.16722484421E+03  0.32116306866E+03  0.17314499040E+03 0.  0.
         24    2    3    3    0    0 -0.38669838640E+02 -0.24836130644E+01 -0.38602300570E+02  0.98496944558E+02  0.81914502523E+02 0.  0.
         -6    2    1    2    0  502  0.18386213486E+03 -0.10675718156E+03  0.44811798784E+02  0.27394327938E+03  0.16683657440E+03 0.  0.
        -24    2    5    5    0    0  0.66039958526E+02 -0.55806353858E+02  0.78641819848E+02  0.14111025485E+03  0.79069228798E+02 0.  0.
          5    1    3    3  501    0 -0.14519229622E+03  0.10924079462E+03 -0.12862254364E+03  0.22266612410E+03  0.47000000000E+01 0. -1.
        -13    1    4    4    0    0 -0.23716045925E+02 -0.40794175225E+02 -0.31571256059E+02  0.56774640252E+02  0.00000000000E+00 0.  1.
         14    1    4    4    0    0 -0.14953792716E+02  0.38310562161E+02 -0.70310445109E+01  0.41722304306E+02  0.00000000000E+00 0. -1.
         -5    1    5    5    0  502  0.11782217633E+03 -0.50950827699E+02 -0.33830021065E+02  0.13283302453E+03  0.47000000000E+01 0.  1.
         11    1    6    6    0    0 -0.30714638054E+01  0.15946715284E+02  0.42814809138E+01  0.16794722299E+02  0.00000000000E+00 0. -1.
        -12    1    6    6    0    0  0.69111422331E+02 -0.71753069142E+02  0.74360338934E+02  0.12431553255E+03  0.00000000000E+00 0.  1.
</event>
<event>
12    1  0.8344842E-002  0.2204114E+03  0.7818608E-02  0.1133631E+00
         21   -1    0    0  503  502  0.00000000000E+00  0.00000000000E+00  0.16242785718E+03  0.16242785718E+03  0.00000000000E+00 0. -1.
         21   -1    0    0  501  503 -0.00000000000E+00 -0.00000000000E+00 -0.34607996656E+03  0.34607996656E+03  0.00000000000E+00 0.  1.
          6    2    1    2  501    0 -0.57439848971E+02  0.12574952060E+03 -0.18585068395E+03  0.28808545753E+03  0.17129061836E+03 0.  0.
         24    2    3    3    0    0  0.34166173683E+02  0.72013305031E+02 -0.87982751960E+02  0.14358816911E+03  0.80767283851E+02 0.  0.
         -6    2    1    2    0  502  0.57439848971E+02 -0.12574952060E+03  0.21985745636E+01  0.22042236621E+03  0.17166510308E+03 0.  0.
        -24    2    5    5    0    0  0.55191529782E+01 -0.88870864543E+02 -0.57655450733E+02  0.13289872204E+03  0.80058901475E+02 0.  0.
          5    1    3    3  501    0 -0.91606022654E+02  0.53736215568E+02 -0.97867931985E+02  0.14449728842E+03  0.47000000000E+01 0. -1.
        -13    1    4    4    0    0 -0.95733768374E+01  0.26084899860E+02 -0.73436904071E+02  0.78517835072E+02  0.00000000000E+00 0.  1.
         14    1    4    4    0    0  0.43739550520E+02  0.45928405170E+02 -0.14545847889E+02  0.65070334039E+02  0.00000000000E+00 0. -1.
         -5    1    5    5    0  502  0.51920695993E+02 -0.36878656056E+02  0.59854025297E+02  0.87523644172E+02  0.47000000000E+01 0.  1.
         13    1    6    6    0    0  0.24609636844E+02 -0.39669178148E+02  0.93452481865E+01  0.47608944371E+02  0.00000000000E+00 0. -1.
        -14    1    6    6    0    0 -0.19090483866E+02 -0.49201686395E+02 -0.67000698920E+02  0.85289777665E+02  0.00000000000E+00 0.  1.
</event>
<event>
12    1  0.8344842E-002  0.2404501E+03  0.7818608E-02  0.1120014E+00
         21   -1    0    0  503  502  0.00000000000E+00  0.00000000000E+00  0.90318904332E+03  0.90318904332E+03  0.00000000000E+00 0.  1.
         21   -1    0    0  501  503 -0.00000000000E+00 -0.00000000000E+00 -0.63215320711E+02  0.63215320711E+02  0.00000000000E+00 0.  1.
          6    2    1    2  501    0 -0.15877884154E+02  0.16921949920E+03  0.40716086010E+03  0.47128496699E+03  0.16565689843E+03 0.  0.
         24    2    3    3    0    0  0.21723094284E+02  0.16057047098E+03  0.38917295197E+03  0.42845630710E+03  0.76579707345E+02 0.  0.
         -6    2    1    2    0  502  0.15877884154E+02 -0.16921949920E+03  0.43281286251E+03  0.49511939704E+03  0.17008497071E+03 0.  0.
        -24    2    5    5    0    0  0.27979113836E+02 -0.44837510187E+02  0.93711979998E+02  0.13369330851E+03  0.79364553898E+02 0.  0.
          5    1    3    3  501    0 -0.37600978438E+02  0.86490282190E+01  0.17987908133E+02  0.42828659886E+02  0.47000000000E+01 0. -1.
        -11    1    4    4    0    0  0.16708674823E+01  0.70551974392E+02  0.26215776047E+03  0.27149044967E+03  0.00000000000E+00 0.  1.
         12    1    4    4    0    0  0.20052226802E+02  0.90018496586E+02  0.12701519150E+03  0.15696585743E+03  0.00000000000E+00 0. -1.
         -5    1    5    5    0  502 -0.12101229682E+02 -0.12438198901E+03  0.33910088251E+03  0.36142608853E+03  0.47000000000E+01 0.  1.
         11    1    6    6    0    0  0.47388169185E+02 -0.38616634513E+02  0.95331521914E+02  0.11324743754E+03  0.00000000000E+00 0. -1.
        -12    1    6    6    0    0 -0.19409055349E+02 -0.62208756738E+01 -0.16195419160E+01  0.20445870970E+02  0.00000000000E+00 0.  1.
</event>
<event>
12    1  0.8344842E-002  0.1819346E+03  0.7818608E-02  0.1166413E+00
         21   -1    0    0  503  502  0.00000000000E+00  0.00000000000E+00  0.12090926970E+04  0.12090926970E+04  0.00000000000E+00 0. -1.
         21   -1    0    0  501  503 -0.00000000000E+00 -0.00000000000E+00 -0.89921494041E+02  0.89921494041E+02  0.00000000000E+00 0. -1.
          6    2    1    2  501    0  0.55504521757E+02 -0.17863926735E+02  0.17540778291E+02  0.18277822412E+03  0.17233783245E+03 0.  0.
         24    2    3    3    0    0  0.22806269079E+02 -0.75705562250E+02 -0.54889433912E+01  0.11229923003E+03  0.79558346516E+02 0.  0.
         -6    2    1    2    0  502 -0.55504521757E+02  0.17863926735E+02  0.11016304247E+04  0.11162359670E+04  0.17027410103E+03 0.  0.
        -24    2    5    5    0    0 -0.77285639966E+02  0.23958028602E+02  0.10748335206E+04  0.10808563223E+04  0.80226149906E+02 0.  0.
          5    1    3    3  501    0  0.32698252678E+02  0.57841635516E+02  0.23029721682E+02  0.70478994091E+02  0.47000000000E+01 0. -1.
        -13    1    4    4    0    0 -0.26312115302E+02 -0.65228454368E+01 -0.42809191975E+01  0.27444511171E+02  0.00000000000E+00 0.  1.
         14    1    4    4    0    0  0.49118384380E+02 -0.69182716813E+02 -0.12080241937E+01  0.84854718857E+02  0.00000000000E+00 0. -1.
         -5    1    5    5    0  502  0.21781118209E+02 -0.60941018670E+01  0.26796904108E+02  0.35379644681E+02  0.47000000000E+01 0.  1.
         13    1    6    6    0    0 -0.42926372857E+02 -0.28174166137E+02  0.51378819871E+03  0.51634752857E+03  0.00000000000E+00 0. -1.
        -14    1    6    6    0    0 -0.34359267109E+02  0.52132194738E+02  0.56104532189E+03  0.56450879371E+03  0.00000000000E+00 0.  1.
</event>
<event>
12    1  0.8344842E-002  0.1908110E+03  0.7818608E-02  0.1158101E+00
         21   -1    0    0  501  502  0.00000000000E+00  0.00000000000E+00  0.12953617783E+03  0.12953617783E+03  0.00000000000E+00 0. -1.
         21   -1    0    0  502  503 -0.00000000000E+00 -0.00000000000E+00 -0.31475305267E+03  0.31475305267E+03  0.00000000000E+00 0.  1.
         -6    2    1    2    0  503  0.55959729945E+02 -0.54048784257E+02 -0.16747888552E+03  0.25265549285E+03  0.17243218528E+03 0.  0.
        -24    2    3    3    0    0  0.84753352138E+02 -0.25394824512E+02 -0.52632911979E+02  0.13074647052E+03  0.80600175680E+02 0.  0.
          6    2    1    2  501    0 -0.55959729945E+02  0.54048784257E+02 -0.17737989326E+02  0.19163373765E+03  0.17422999365E+03 0.  0.
         24    2    5    5    0    0 -0.10368768685E+01  0.20086977802E+02 -0.69067273788E+02  0.10900983354E+03  0.81904173937E+02 0.  0.
          5    1    5    5  501    0 -0.54922853076E+02  0.33961806456E+02  0.51329284462E+02  0.82623904115E+02  0.47000000000E+01 0. -1.
        -13    1    6    6    0    0 -0.40333609398E+02  0.26790155949E+01 -0.41589529124E+02  0.57997121518E+02  0.00000000000E+00 0.  1.
         14    1    6    6    0    0  0.39296732530E+02  0.17407962207E+02 -0.27477744665E+02  0.51012712019E+02  0.00000000000E+00 0. -1.
         -5    1    3    3    0  503 -0.28793622194E+02 -0.28653959745E+02 -0.11484597354E+03  0.12190902233E+03  0.47000000000E+01 0.  1.
         11    1    4    4    0    0  0.11990591108E+02 -0.42661857571E+02 -0.13399937851E+02  0.46296508518E+02  0.00000000000E+00 0. -1.
        -12    1    4    4    0    0  0.72762761030E+02  0.17267033059E+02 -0.39232974128E+02  0.84449962003E+02  0.00000000000E+00 0.  1.
</event>
<event>
12    1  0.8344842E-002  0.1733951E+03  0.7818608E-02  0.1174661E+00
         21   -1    0    0  501  502  0.00000000000E+00  0.00000000000E+00  0.32656474692E+03  0.32656474692E+03  0.00000000000E+00 0. -1.
         21   -1    0    0  502  503 -0.00000000000E+00 -0.00000000000E+00 -0.15003542309E+03  0.15003542309E+03  0.00000000000E+00 0. -1.
         -6    2    1    2    0  503 -0.17352910767E+02 -0.91291083700E+01 -0.60485643148E+02  0.18364196798E+03  0.17228289307E+03 0.  0.
        -24    2    3    3    0    0  0.33949682907E+02  0.30649168708E+02 -0.72700384119E+02  0.11741842728E+03  0.80061156017E+02 0.  0.
          6    2    1    2  501    0  0.17352910767E+02  0.91291083700E+01  0.23701496698E+03  0.29295820204E+03  0.17106709045E+03 0.  0.
         24    2    5    5    0    0  0.55658804309E+01 -0.30671481481E+02  0.23630702496E+03  0.25117767764E+03  0.79230656327E+02 0.  0.
          5    1    5    5  501    0  0.11787030336E+02  0.39800589851E+02  0.70794202639E+00  0.41780524393E+02  0.47000000000E+01 0. -1.
        -13    1    6    6    0    0 -0.94493757540E+01 -0.30338422093E+02  0.28066397236E+02  0.42396146182E+02  0.00000000000E+00 0.  1.
         14    1    6    6    0    0  0.15015256185E+02 -0.33305938788E+00  0.20824062772E+03  0.20878153146E+03  0.00000000000E+00 0. -1.
         -5    1    3    3    0  503 -0.51302593674E+02 -0.39778277078E+02  0.12214740971E+02  0.66223540693E+02  0.47000000000E+01 0.  1.
         11    1    4    4    0    0 -0.12654919720E+02  0.21017902578E+02 -0.64655694015E+02  0.69153871840E+02  0.00000000000E+00 0. -1.
        -12    1    4    4    0    0  0.46604602627E+02  0.96312661294E+01 -0.80446901036E+01  0.48264555444E+02  0.00000000000E+00 0.  1.
</event>
<event>
12    1  0.8344842E-002  0.2240457E+03  0.7818608E-02  0.1131283E+00
         21   -1    0    0  501  502  0.00000000000E+00  0.00000000000E+00  0.34467021820E+03  0.34467021820E+03  0.00000000000E+00 0. -1.
         21   -1    0    0  502  503 -0.00000000000E+00 -0.00000000000E+00 -0.15323801060E+03  0.15323801060E+03  0.00000000000E+00 0.  1.
         -6    2    1    2    0  503  0.12099768170E+03 -0.71228965491E+02  0.35130949537E+02  0.22472958941E+03  0.17191625937E+03 0.  0.
        -24    2    3    3    0    0  0.98842587496E+02 -0.54028386503E+02  0.89839187470E+02  0.16307093702E+03  0.76368365463E+02 0.  0.
          6    2    1    2  501    0 -0.12099768170E+03  0.71228965491E+02  0.15630125806E+03  0.27317863940E+03  0.17459232872E+03 0.  0.
         24    2    5    5    0    0 -0.12555357810E+03  0.10869328320E+03  0.13942605289E+03  0.23157102179E+03  0.81287041542E+02 0.  0.
          5    1    5    5  501    0  0.45558963990E+01 -0.37464317707E+02  0.16875205170E+02  0.41607617605E+02  0.47000000000E+01 0. -1.
        -11    1    6    6    0    0 -0.74126749315E+02  0.52253585532E+02  0.25118836634E+02  0.94107216082E+02  0.00000000000E+00 0.  1.
         12    1    6    6    0    0 -0.51426828787E+02  0.56439697666E+02  0.11430721626E+03  0.13746380571E+03  0.00000000000E+00 0. -1.
         -5    1    3    3    0  503  0.22155094208E+02 -0.17200578988E+02 -0.54708237933E+02  0.61658652390E+02  0.47000000000E+01 0.  1.
         11    1    4    4    0    0  0.44407474185E+02  0.79566244228E+01  0.60597432133E+02  0.75547206545E+02  0.00000000000E+00 0. -1.
        -12    1    4    4    0    0  0.54435113310E+02 -0.61985010925E+02  0.29241755337E+02  0.87523730472E+02  0.00000000000E+00 0.  1.
</event>
<event>
12    1  0.8344842E-002  0.2511220E+03  0.7818608E-02  0.1112936E+00
         21   -1    0    0  501  502  0.00000000000E+00  0.00000000000E+00  0.10915491758E+03  0.10915491758E+03  0.00000000000E+00 0. -1.
         21   -1    0    0  502  503 -0.00000000000E+00 -0.00000000000E+00 -0.74322781056E+03  0.74322781056E+03  0.00000000000E+00 0. -1.
         -6    2    1    2    0  503  0.16998200947E+03 -0.68531182585E+02 -0.52215746850E+03  0.57940544413E+03  0.17167364458E+03 0.  0.
        -24    2    3    3    0    0  0.34477256760E+02 -0.73372524859E+02 -0.27887841202E+03  0.30085245828E+03  0.78529130425E+02 0.  0.
          6    2    1    2  501    0 -0.16998200947E+03  0.68531182585E+02 -0.11191542448E+03  0.27297728402E+03  0.16852634459E+03 0.  0.
         24    2    5    5    0    0 -0.25306524065E+02  0.27509381361E+02 -0.56110261896E+01  0.88758665662E+02  0.80308348831E+02 0.  0.
          5    1    5    5  501    0 -0.14467548541E+03  0.41021801223E+02 -0.10630439829E+03  0.18421861835E+03  0.47000000000E+01 0. -1.
        -13    1    6    6    0    0 -0.36461759521E+02  0.71863885035E+01 -0.35187672286E+02  0.51178866419E+02  0.00000000000E+00 0.  1.
         14    1    6    6    0    0  0.11155235455E+02  0.20322992858E+02  0.29576646097E+02  0.37579799242E+02  0.00000000000E+00 0. -1.
         -5    1    3    3    0  503  0.13550475271E+03  0.48413422736E+01 -0.24327905648E+03  0.27855298585E+03  0.47000000000E+01 0.  1.
         11    1    4    4    0    0  0.15499059070E+02 -0.80162957312E+02 -0.26242579108E+03  0.27483379774E+03  0.00000000000E+00 0. -1.
        -12    1    4    4    0    0  0.18978197690E+02  0.67904324534E+01 -0.16452620938E+02  0.26018660538E+02  0.00000000000E+00 0.  1.
</event>
<event>
12    1  0.8344842E-002  0.3018828E+03  0.7818608E-02  0.1084537E+00
         21   -1    0    0  503  502  0.00000000000E+00  0.00000000000E+00  0.13648022807E+03  0.13648022807E+03  0.00000000000E+00 0.  1.
         21   -1    0    0  501  503 -0.00000000000E+00 -0.00000000000E+00 -0.69885281216E+03  0.69885281216E+03  0.00000000000E+00 0. -1.
          6    2    1    2  501    0 -0.35335174729E+02  0.24544847887E+03 -0.37416831932E+03  0.47958867865E+03  0.16884856870E+03 0.  0.
         24    2    3    3    0    0 -0.60718314835E+02  0.14258013475E+03 -0.30839480802E+03  0.35479106324E+03  0.82179878074E+02 0.  0.
         -6    2    1    2    0  502  0.35335174729E+02 -0.24544847887E+03 -0.18820426477E+03  0.35574436158E+03  0.17216177034E+03 0.  0.
        -24    2    5    5    0    0  0.37893542224E+02 -0.12570233800E+03 -0.28830721696E+02  0.15632595789E+03  0.79809750517E+02 0.  0.
          5    1    3    3  501    0  0.25383140105E+02  0.10286834412E+03 -0.65773511308E+02  0.12479761541E+03  0.47000000000E+01 0. -1.
        -13    1    4    4    0    0  0.20160228987E+02  0.36962922296E+02 -0.65814391357E+02  0.78129549897E+02  0.00000000000E+00 0.  1.
         14    1    4    4    0    0 -0.80878543822E+02  0.10561721245E+03 -0.24258041666E+03  0.27666151334E+03  0.00000000000E+00 0. -1.
         -5    1    5    5    0  502 -0.25583674945E+01 -0.11974614087E+03 -0.15937354307E+03  0.19941840369E+03  0.47000000000E+01 0.  1.
         11    1    6    6    0    0  0.25608665215E+02  0.11803070079E+01 -0.97622177232E+01  0.27431692503E+02  0.00000000000E+00 0. -1.
        -12    1    6    6    0    0  0.12284877009E+02 -0.12688264501E+03 -0.19068503973E+02  0.12889426539E+03  0.00000000000E+00 0.  1.
</event>
<event>
12    1  0.8344842E-002  0.1949057E+03  0.7818608E-02  0.1155549E+00
         21   -1    0    0  501  502  0.00000000000E+00  0.00000000000E+00  0.61964573223E+03  0.61964573223E+03  0.00000000000E+00 0. -1.
         21   -1    0    0  502  503 -0.00000000000E+00 -0.00000000000E+00 -0.10463891992E+03  0.10463891992E+03  0.00000000000E+00 0. -1.
         -6    2    1    2    0  503 -0.87720499874E+02  0.41899906412E+01  0.21571378249E+02  0.19609580554E+03  0.17399942089E+03 0.  0.
        -24    2    3    3    0    0 -0.48726815916E+02 -0.40168747504E+02  0.65728255258E+02  0.12220314809E+03  0.81397635088E+02 0.  0.
          6    2    1    2  501    0  0.87720499874E+02 -0.41899906412E+01  0.49343543406E+03  0.52818884660E+03  0.16671079140E+03 0.  0.
         24    2    5    5    0    0 -0.13951063357E+02 -0.18801133085E+02  0.18554499926E+03  0.20358262039E+03  0.80441418444E+02 0.  0.
          5    1    5    5  501    0  0.10167156323E+03  0.14611142444E+02  0.30789043480E+03  0.32460622621E+03  0.47000000000E+01 0. -1.
        -11    1    6    6    0    0 -0.41893177045E+02  0.70957180389E+01  0.12524240313E+03  0.13225372221E+03  0.00000000000E+00 0.  1.
         12    1    6    6    0    0  0.27942113687E+02 -0.25896851124E+02  0.60302596129E+02  0.71328898179E+02  0.00000000000E+00 0. -1.
         -5    1    3    3    0  503 -0.38993683958E+02  0.44358738145E+02 -0.44156877009E+02  0.73892657454E+02  0.47000000000E+01 0.  1.
         11    1    4    4    0    0 -0.42173392009E+02 -0.51987709658E+02  0.13546136468E+02  0.68299449209E+02  0.00000000000E+00 0. -1.
        -12    1    4    4    0    0 -0.65534239070E+01  0.11818962154E+02  0.52182118791E+02  0.53903698878E+02  0.00000000000E+00 0.  1.
</event>
<event>
12    1  0.8344842E-002  0.2299933E+03  0.7818608E-02  0.1126880E+00
         21   -1    0    0  501  502  0.00000000000E+00  0.00000000000E+00  0.10098866028E+04  0.10098866028E+04  0.00000000000E+00 0. -1.
         21   -1    0    0  502  503 -0.00000000000E+00 -0.00000000000E+00 -0.83295834302E+02  0.83295834302E+02  0.00000000000E+00 0. -1.
         -6    2    1    2    0  503  0.11928780245E+03 -0.92964083166E+02  0.12950657365E+03  0.26394861214E+03  0.17327728259E+03 0.  0.
        -24    2    3    3    0    0  0.50101408107E+01 -0.41286503687E+02  0.97371792004E+01  0.90464451430E+02  0.79745391190E+02 0.  0.
          6    2    1    2  501    0 -0.11928780245E+03  0.92964083166E+02  0.79708419481E+03  0.82923382492E+03  0.17150400056E+03 0.  0.
         24    2    5    5    0    0 -0.67078908429E+02  0.12715062720E+03  0.51734763752E+03  0.54258225962E+03  0.77974793685E+02 0.  0.
          5    1    5    5  501    0 -0.52208894024E+02 -0.34186544032E+02  0.27973655728E+03  0.28665156530E+03  0.47000000000E+01 0. -1.
        -11    1    6    6    0    0 -0.14497542468E+01  0.87630688413E+01  0.16328891887E+03  0.16353031580E+03  0.00000000000E+00 0.  1.
         12    1    6    6    0    0 -0.65629154182E+02  0.11838755836E+03  0.35405871866E+03  0.37905194381E+03  0.00000000000E+00 0. -1.
         -5    1    3    3    0  503  0.11427766164E+03 -0.51677579479E+02  0.11976939445E+03  0.17348416071E+03  0.47000000000E+01 0.  1.
         11    1    4    4    0    0 -0.55623776822E+00  0.24043148374E+02 -0.76799323758E+00  0.24061841114E+02  0.00000000000E+00 0. -1.
        -12    1    4    4    0    0  0.55663785789E+01 -0.65329652061E+02  0.10505172438E+02  0.66402610316E+02  0.00000000000E+00 0.  1.
</event>
<event>
12    1  0.8344842E-002  0.1771277E+03  0.7818608E-02  0.1170915E+00
         21   -1    0    0  501  502  0.00000000000E+00  0.00000000000E+00  0.48313415340E+03  0.48313415340E+03  0.00000000000E+00 0. -1.
         21   -1    0    0  502  503 -0.00000000000E+00 -0.00000000000E+00 -0.69667951796E+02  0.69667951796E+02  0.00000000000E+00 0. -1.
         -6    2    1    2    0  503  0.35521345279E+01  0.23504784154E+02  0.13073621009E+03  0.21916984748E+03  0.17429392668E+03 0.  0.
        -24    2    3    3    0    0 -0.76621809590E+01  0.15927791647E+02 -0.12332281647E+02  0.75385790588E+02  0.72239384605E+02 0.  0.
          6    2    1    2  501    0 -0.35521345279E+01 -0.23504784154E+02  0.28272999151E+03  0.33363225772E+03  0.17552533365E+03 0.  0.
         24    2    5    5    0    0 -0.24116466164E+02  0.36021975630E+02  0.77732253683E+02  0.11912703778E+03  0.79181823664E+02 0.  0.
          5    1    5    5  501    0  0.20564331636E+02 -0.59526759784E+02  0.20499773783E+03  0.21450521994E+03  0.47000000000E+01 0. -1.
        -13    1    6    6    0    0 -0.17833815643E+02 -0.77710305827E+01 -0.92496355585E+01  0.21540419092E+02  0.00000000000E+00 0.  1.
         14    1    6    6    0    0 -0.62826505210E+01  0.43793006213E+02  0.86981889241E+02  0.97586618687E+02  0.00000000000E+00 0. -1.
         -5    1    3    3    0  503  0.11214315487E+02  0.75769925072E+01  0.14306849174E+03  0.14378405689E+03  0.47000000000E+01 0.  1.
         13    1    4    4    0    0  0.16012290961E+02 -0.23177914439E+02 -0.54246119668E+00  0.28176292228E+02  0.00000000000E+00 0. -1.
        -14    1    4    4    0    0 -0.23674471920E+02  0.39105706086E+02 -0.11789820450E+02  0.47209498360E+02  0.00000000000E+00 0.  1.
</event>
<event>
12    1  0.8344842E-002  0.1936951E+03  0.7818608E-02  0.1159822E+00
         21   -1    0    0  501  502  0.00000000000E+00  0.00000000000E+00  0.91050935054E+03  0.91050935054E+03  0.00000000000E+00 0. -1.
         21   -1    0    0  502  503 -0.00000000000E+00 -0.00000000000E+00 -0.40460535268E+02  0.40460535268E+02  0.00000000000E+00 0. -1.
         -6    2    1    2    0  503  0.12960192948E+02 -0.20695312778E+02  0.27586555556E+03  0.32601265431E+03  0.17200634715E+03 0.  0.
        -24    2    3    3    0    0 -0.18790260538E+02 -0.62933610738E+02  0.10797400441E+03  0.14993929444E+03  0.80682669372E+02 0.  0.
          6    2    1    2  501    0 -0.12960192948E+02  0.20695312778E+02  0.59418325972E+03  0.62495723150E+03  0.19214976580E+03 0.  0.
         24    2    5    5    0    0 -0.14408733281E+02 -0.36275751299E+02  0.12908385768E+03  0.15635575455E+03  0.79126088889E+02 0.  0.
          5    1    5    5  501    0  0.14485403335E+01  0.56971064078E+02  0.46509940204E+03  0.46860147694E+03  0.47000000000E+01 0. -1.
        -13    1    6    6    0    0  0.22686022624E+02  0.72357814558E+01  0.13425784713E+02  0.27336127211E+02  0.00000000000E+00 0.  1.
         14    1    6    6    0    0 -0.37094755905E+02 -0.43511532755E+02  0.11565807296E+03  0.12901962734E+03  0.00000000000E+00 0. -1.
         -5    1    3    3    0  503  0.31750453486E+02  0.42238297960E+02  0.16789155115E+03  0.17607335988E+03  0.47000000000E+01 0.  1.
         13    1    4    4    0    0  0.10408084531E+02 -0.73574584200E+01 -0.10067040990E+02  0.16242097534E+02  0.00000000000E+00 0. -1.
        -14    1    4    4    0    0 -0.29198345069E+02 -0.55576152318E+02  0.11804104540E+03  0.13369719690E+03  0.00000000000E+00 0.  1.
</event>
<event>
12    1  0.8344842E-002  0.1913583E+03  0.7818608E-02  0.1157294E+00
         21   -1    0    0  503  502  0.00000000000E+00  0.00000000000E+00  0.42702630295E+02  0.42702630295E+02  0.00000000000E+00 0.  1.
         21   -1    0    0  501  503 -0.00000000000E+00 -0.00000000000E+00 -0.85719498323E+03  0.85719498323E+03  0.00000000000E+00 0.  1.
          6    2    1    2  501    0  0.73417282254E+01  0.80571023813E+02 -0.42018281898E+03  0.46160772685E+03  0.17315455891E+03 0.  0.
         24    2    3    3    0    0 -0.56089873400E+02  0.30255136889E+02 -0.17326888121E+03  0.20171575078E+03  0.81275406551E+02 0.  0.
         -6    2    1    2    0  502 -0.73417282254E+01 -0.80571023813E+02 -0.39430953396E+03  0.43828988668E+03  0.17341402868E+03 0.  0.
        -24    2    5    5    0    0 -0.75872213187E+02 -0.20161467514E+02 -0.18390602308E+03  0.20886131555E+03  0.60320363897E+02 0.  0.
          5    1    3    3  501    0  0.63431601625E+02  0.50315886924E+02 -0.24691393777E+03  0.25989197607E+03  0.47000000000E+01 0. -1.
        -13    1    4    4    0    0 -0.19087654735E+02  0.19751918552E+02 -0.15793846589E+03  0.16030918831E+03  0.00000000000E+00 0.  1.
         14    1    4    4    0    0 -0.37002218665E+02  0.10503218337E+02 -0.15330415325E+02  0.41406562470E+02  0.00000000000E+00 0. -1.
         -5    1    5    5    0  502  0.68530484962E+02 -0.60409556300E+02 -0.21040351088E+03  0.22942857113E+03  0.47000000000E+01 0.  1.
         13    1    6    6    0    0 -0.25253005351E+02  0.18919976098E+02 -0.88927649228E+02  0.94359983955E+02  0.00000000000E+00 0. -1.
        -14    1    6    6    0    0 -0.50619207836E+02 -0.39081443611E+02 -0.94978373853E+02  0.11450133159E+03  0.00000000000E+00 0.  1.
</event>
<event>
12    1  0.8344842E-002  0.1963064E+03  0.7818608E-02  0.1152993E+00
         21   -1    0    0  503  502  0.00000000000E+00  0.00000000000E+00  0.96068588219E+02  0.96068588219E+02  0.00000000000E+00 0. -1.
         21   -1    0    0  501  503 -0.00000000000E+00 -0.00000000000E+00 -0.10095418325E+04  0.10095418325E+04  0.00000000000E+00 0.  1.
          6    2    1    2  501    0  0.62905565744E+02  0.69602561761E+02 -0.88642801463E+03  0.90790463328E+03  0.17243715148E+03 0.  0.
         24    2    3    3    0    0  0.42575251317E+02 -0.27445794393E+02 -0.35201042702E+03  0.36434603197E+03  0.79188172252E+02 0.  0.
         -6    2    1    2    0  502 -0.62905565744E+02 -0.69602561761E+02 -0.27045229683E+02  0.19770578747E+03  0.17191424358E+03 0.  0.
        -24    2    5    5    0    0 -0.59908577723E+02 -0.57692042266E+02  0.45471423338E+02  0.12400641585E+03  0.79953307660E+02 0.  0.
          5    1    3    3  501    0  0.20330314427E+02  0.97048356154E+02 -0.53441758761E+03  0.54355860132E+03  0.47000000000E+01 0. -1.
        -13    1    4    4    0    0  0.31897344763E+02 -0.18538330223E+02 -0.34789311438E+03  0.34984386421E+03  0.00000000000E+00 0.  1.
         14    1    4    4    0    0  0.10677906554E+02 -0.89074641700E+01 -0.41173126383E+01  0.14502167758E+02  0.00000000000E+00 0. -1.
         -5    1    5    5    0  502 -0.29969880209E+01 -0.11910519495E+02 -0.72516653021E+02  0.73699371620E+02  0.47000000000E+01 0.  1.
         13    1    6    6    0    0 -0.24124553662E+02 -0.42149430204E+02  0.64387009318E+02  0.80648964809E+02  0.00000000000E+00 0. -1.
        -14    1    6    6    0    0 -0.35784024061E+02 -0.15542612062E+02 -0.18915585980E+02  0.43357451040E+02  0.00000000000E+00 0.  1.
</event>
<event>
12    1  0.8344842E-002  0.3024015E+03  0.7818608E-02  0.1084065E+00
         21   -1    0    0  501  502  0.00000000000E+00  0.00000000000E+00  0.58891837863E+02  0.58891837863E+02  0.00000000000E+00 0. -1.
         21   -1    0    0  502  503 -0.00000000000E+00 -0.00000000000E+00 -0.15520321112E+04  0.15520321112E+04  0.00000000000E+00 0. -1.
         -6    2    1    2    0  503 -0.20214888247E+03 -0.14411209969E+03 -0.74283870923E+03  0.80197457932E+03  0.17239898486E+03 0.  0.
        -24    2    3    3    0    0 -0.15569153844E+03 -0.17411642276E+03 -0.60268168657E+03  0.65122768807E+03  0.79472653003E+02 0.  0.
          6    2    1    2  501    0  0.20214888247E+03  0.14411209969E+03 -0.75030156406E+03  0.80894936970E+03  0.17266782487E+03 0.  0.
         24    2    5    5    0    0  0.14342303196E+03  0.92630824294E+02 -0.31831622922E+03  0.36993630981E+03  0.79856219703E+02 0.  0.
          5    1    5    5  501    0  0.58725850506E+02  0.51481275393E+02 -0.43198533485E+03  0.43901305989E+03  0.47000000000E+01 0. -1.
        -11    1    6    6    0    0  0.37805879621E+02  0.35667531781E+02 -0.36142931774E+02  0.63306941756E+02  0.00000000000E+00 0.  1.
         12    1    6    6    0    0  0.10561715234E+03  0.56963292513E+02 -0.28217329744E+03  0.30662936805E+03  0.00000000000E+00 0. -1.
         -5    1    3    3    0  503 -0.46457344033E+02  0.30004323074E+02 -0.14015702267E+03  0.15074689125E+03  0.47000000000E+01 0.  1.
         13    1    4    4    0    0 -0.15172846358E+03 -0.13829315969E+03 -0.45432313581E+03  0.49855394533E+03  0.00000000000E+00 0. -1.
        -14    1    4    4    0    0 -0.39630748598E+01 -0.35823263073E+02 -0.14835855076E+03  0.15267374274E+03  0.00000000000E+00 0.  1.
</event>
<event>
12    1  0.8344842E-002  0.1757663E+03  0.7818608E-02  0.1172085E+00
         21   -1    0    0  503  502  0.00000000000E+00  0.00000000000E+00  0.49865355157E+02  0.49865355157E+02  0.00000000000E+00 0. -1.
         21   -1    0    0  501  503 -0.00000000000E+00 -0.00000000000E+00 -0.16072098353E+04  0.16072098353E+04  0.00000000000E+00 0. -1.
          6    2    1    2  501    0  0.33235368925E+02 -0.22115134380E+01 -0.14291477015E+04  0.14399156071E+04  0.17258134964E+03 0.  0.
         24    2    3    3    0    0  0.85897432348E+02  0.40624057762E+01 -0.11346697680E+04  0.11406632080E+04  0.79007593431E+02 0.  0.
         -6    2    1    2    0  502 -0.33235368925E+02  0.22115134380E+01 -0.12819677861E+03  0.21715958335E+03  0.17208832051E+03 0.  0.
        -24    2    5    5    0    0 -0.25172116847E+02 -0.51692402653E+02 -0.12968130639E+03  0.16243351985E+03  0.79130696852E+02 0.  0.
          5    1    3    3  501    0 -0.52662063424E+02 -0.62739192142E+01 -0.29447793356E+03  0.29925239906E+03  0.47000000000E+01 0. -1.
        -13    1    4    4    0    0  0.90331941351E+02  0.17242944138E+02 -0.73210692381E+03  0.73786023517E+03  0.00000000000E+00 0.  1.
         14    1    4    4    0    0 -0.44345090023E+01 -0.13180538362E+02 -0.40256284415E+03  0.40280297287E+03  0.00000000000E+00 0. -1.
         -5    1    5    5    0  502 -0.80632520771E+01  0.53903916091E+02  0.14845277803E+01  0.54726063504E+02  0.47000000000E+01 0.  1.
         11    1    6    6    0    0  0.11084749659E+02  0.14070897575E+02 -0.49193671652E+02  0.52353406423E+02  0.00000000000E+00 0. -1.
        -12    1    6    6    0    0 -0.36256866506E+02 -0.65763300227E+02 -0.80487634736E+02  0.11008011342E+03  0.00000000000E+00 0.  1.
</event>
<event>
12    1  0.8344842E-002  0.1772025E+03  0.7818608E-02  0.1170604E+00
         21   -1    0    0  501  502  0.00000000000E+00  0.00000000000E+00  0.32088698523E+04  0.32088698523E+04  0.00000000000E+00 0.  1.
         21   -1    0    0  502  503 -0.00000000000E+00 -0.00000000000E+00 -0.11881127302E+02  0.11881127302E+02  0.00000000000E+00 0.  1.
         -6    2    1    2    0  503 -0.20777597613E+02  0.40231103971E+02  0.92080575954E+03  0.93770142638E+03  0.17131978268E+03 0.  0.
        -24    2    3    3    0    0  0.51919625644E+02  0.23380348448E+02  0.43091861527E+03  0.44214079603E+03  0.80965068429E+02 0.  0.
          6    2    1    2  501    0  0.20777597613E+02 -0.40231103971E+02  0.22761829655E+04  0.22830495533E+04  0.17104420466E+03 0.  0.
         24    2    5    5    0    0  0.21853582117E+02 -0.70393357236E+02  0.21586150324E+04  0.21615784532E+04  0.85847232420E+02 0.  0.
          5    1    5    5  501    0 -0.10759845047E+01  0.30162253265E+02  0.11756793306E+03  0.12147110006E+03  0.47000000000E+01 0. -1.
        -11    1    6    6    0    0 -0.27451668704E+02 -0.76941066072E+01  0.89126404383E+03  0.89171990513E+03  0.00000000000E+00 0.  1.
         12    1    6    6    0    0  0.49305250822E+02 -0.62699250629E+02  0.12673509886E+04  0.12698585481E+04  0.00000000000E+00 0. -1.
         -5    1    3    3    0  503 -0.72697223257E+02  0.16850755523E+02  0.48988714427E+03  0.49556063035E+03  0.47000000000E+01 0.  1.
         11    1    4    4    0    0 -0.11850988953E+02  0.90133073393E+01  0.23766326861E+03  0.23812919790E+03  0.00000000000E+00 0. -1.
        -12    1    4    4    0    0  0.63770614597E+02  0.14367041109E+02  0.19325534666E+03  0.20401159813E+03  0.00000000000E+00 0.  1.
</event>
<event>
12    1  0.8344842E-002  0.2211014E+03  0.7818608E-02  0.1133257E+00
         21   -1    0    0  501  502  0.00000000000E+00  0.00000000000E+00  0.17737326591E+04  0.17737326591E+04  0.00000000000E+00 0.  1.
         21   -1    0    0  502  503 -0.00000000000E+00 -0.00000000000E+00 -0.32875406371E+02  0.32875406371E+02  0.00000000000E+00 0. -1.
         -6    2    1    2    0  503  0.81122779906E+02  0.11149190807E+03  0.50456950092E+03  0.55088674339E+03  0.17284233221E+03 0.  0.
        -24    2    3    3    0    0  0.39454636273E+02  0.97322746023E+02  0.17786238926E+03  0.22119502958E+03  0.79144338914E+02 0.  0.
          6    2    1    2  501    0 -0.81122779906E+02 -0.11149190807E+03  0.12362877518E+04  0.12557213220E+04  0.17151467126E+03 0.  0.
         24    2    5    5    0    0  0.12744833599E+02 -0.24892243289E+02  0.32171407458E+03  0.33226166844E+03  0.78203682617E+02 0.  0.
          5    1    5    5  501    0 -0.93867613505E+02 -0.86599664784E+02  0.91457367720E+03  0.92345965360E+03  0.47000000000E+01 0. -1.
        -13    1    6    6    0    0  0.12698581795E+02 -0.45064509757E+02  0.29549178622E+03  0.29917797336E+03  0.00000000000E+00 0.  1.
         14    1    6    6    0    0  0.46251804033E-01  0.20172266468E+02  0.26222288358E+02  0.33083695084E+02  0.00000000000E+00 0. -1.
         -5    1    3    3    0  503  0.41668143634E+02  0.14169162050E+02  0.32670711166E+03  0.32969171381E+03  0.47000000000E+01 0.  1.
         13    1    4    4    0    0  0.63285867905E+02  0.62172238874E+02  0.12731294613E+03  0.15517433620E+03  0.00000000000E+00 0. -1.
        -14    1    4    4    0    0 -0.23831231632E+02  0.35150507148E+02  0.50549443129E+02  0.66020693382E+02  0.00000000000E+00 0.  1.
</event>
<event>
12    1  0.8344842E-002  0.1856794E+03  0.7818608E-02  0.1163047E+00
         21   -1    0    0  503  502  0.00000000000E+00  0.00000000000E+00  0.23251648369E+03  0.23251648369E+03  0.00000000000E+00 0.  1.
         21   -1    0    0  501  503 -0.00000000000E+00 -0.00000000000E+00 -0.24809473026E+03  0.24809473026E+03  0.00000000000E+00 0.  1.
          6    2    1    2  501    0 -0.43832994841E+02  0.50092938630E+02 -0.16180622847E+03  0.24426514975E+03  0.17045108939E+03 0.  0.
         24    2    3    3    0    0 -0.45408725030E+02  0.98514289568E+02 -0.11761279483E+03  0.17852125476E+03  0.79183655724E+02 0.  0.
         -6    2    1    2    0  502  0.43832994841E+02 -0.50092938630E+02  0.14622798189E+03  0.23634606421E+03  0.17333841305E+03 0.  0.
        -24    2    5    5    0    0  0.26746351716E+02 -0.49514349367E+01  0.27036828531E+01  0.84850113291E+02  0.80326507372E+02 0.  0.
          5    1    3    3  501    0  0.15757301883E+01 -0.48421350938E+02 -0.44193433632E+02  0.65743894990E+02  0.47000000000E+01 0. -1.
        -13    1    4    4    0    0 -0.63335781435E+01 -0.11506486521E+02 -0.29364975729E+02  0.32168544321E+02  0.00000000000E+00 0.  1.
         14    1    4    4    0    0 -0.39075146886E+02  0.11002077609E+03 -0.88247819105E+02  0.14635271044E+03  0.00000000000E+00 0. -1.
         -5    1    5    5    0  502  0.17086643126E+02 -0.45141503693E+02  0.14352429904E+03  0.15149595092E+03  0.47000000000E+01 0.  1.
         13    1    6    6    0    0 -0.14001628322E+02 -0.31883952849E+02 -0.57058659249E+01  0.35287234956E+02  0.00000000000E+00 0. -1.
        -14    1    6    6    0    0  0.40747980037E+02  0.26932517912E+02  0.84095487780E+01  0.49562878335E+02  0.00000000000E+00 0.  1.
</event>
<event>
12    1  0.8344842E-002  0.3327886E+03  0.7818608E-02  0.1069929E+00
         21   -1    0    0  501  502  0.00000000000E+00  0.00000000000E+00  0.13551139073E+04  0.13551139073E+04  0.00000000000E+00 0. -1.
         21   -1    0    0  502  503 -0.00000000000E+00 -0.00000000000E+00 -0.45040225658E+03  0.45040225658E+03  0.00000000000E+00 0.  1.
         -6    2    1    2    0  503  0.16768074226E+03  0.22979974154E+03 -0.36447154599E+03  0.49342842499E+03  0.17235820324E+03 0.  0.
        -24    2    3    3    0    0  0.43564859842E+02  0.15700900033E+03 -0.15145546660E+03  0.23632691907E+03  0.79761714602E+02 0.  0.
          6    2    1    2  501    0 -0.16768074226E+03 -0.22979974154E+03  0.12691831968E+04  0.13120877389E+04  0.17269480357E+03 0.  0.
         24    2    5    5    0    0 -0.40316017373E+02 -0.26908289773E+02  0.27123361486E+03  0.28577776024E+03  0.75840735117E+02 0.  0.
          5    1    5    5  501    0 -0.12736472489E+03 -0.20289145176E+03  0.99794958189E+03  0.10263099787E+04  0.47000000000E+01 0. -1.
        -11    1    6    6    0    0  0.10522689687E+02 -0.31074334834E+02  0.59078975394E+02  0.67577116077E+02  0.00000000000E+00 0.  1.
         12    1    6    6    0    0 -0.50838707059E+02  0.41660450613E+01  0.21215463946E+03  0.21820064416E+03  0.00000000000E+00 0. -1.
         -5    1    3    3    0  503  0.12411588242E+03  0.72790741212E+02 -0.21301607938E+03  0.25710150592E+03  0.47000000000E+01 0.  1.
         11    1    4    4    0    0 -0.18328933839E+02  0.65368135907E+02 -0.78794112320E+02  0.10400699565E+03  0.00000000000E+00 0. -1.
        -12    1    4    4    0    0  0.61893793681E+02  0.91640864419E+02 -0.72661354285E+02  0.13231992342E+03  0.00000000000E+00 0.  1.
</event>
<event>
12    1  0.8344842E-002  0.1919201E+03  0.7818608E-02  0.1157130E+00
         21   -1    0    0  501  502  0.00000000000E+00  0.00000000000E+00  0.20247830111E+03  0.20247830111E+03  0.00000000000E+00 0. -1.
         21   -1    0    0  502  503 -0.00000000000E+00 -0.00000000000E+00 -0.47955158758E+03  0.47955158758E+03  0.00000000000E+00 0. -1.
         -6    2    1    2    0  503 -0.83235813740E+02  0.10960751872E+02 -0.40769910993E+03  0.44987382611E+03  0.17064453232E+03 0.  0.
        -24    2    3    3    0    0 -0.40906540346E+02  0.32324951674E+02 -0.38540497607E+03  0.39726855238E+03  0.81037396258E+02 0.  0.
          6    2    1    2  501    0  0.83235813740E+02 -0.10960751872E+02  0.13062582345E+03  0.23215606258E+03  0.17258329256E+03 0.  0.
         24    2    5    5    0    0 -0.11840639910E+02  0.26171943746E+02  0.76973776347E+02  0.11674808503E+03  0.82945655228E+02 0.  0.
          5    1    5    5  501    0  0.95076453650E+02 -0.37132695618E+02  0.53652047103E+02  0.11540797754E+03  0.47000000000E+01 0. -1.
        -13    1    6    6    0    0  0.91964780391E+01 -0.23612880808E+02  0.35662931094E+01  0.25590267582E+02  0.00000000000E+00 0.  1.
         14    1    6    6    0    0 -0.21037117949E+02  0.49784824554E+02  0.73407483238E+02  0.91157817453E+02  0.00000000000E+00 0. -1.
         -5    1    3    3    0  503 -0.42329273394E+02 -0.21364199802E+02 -0.22294133864E+02  0.52605273728E+02  0.47000000000E+01 0.  1.
         11    1    4    4    0    0 -0.19445354288E+02 -0.26702506308E+02 -0.11387972117E+03  0.11857375992E+03  0.00000000000E+00 0. -1.
        -12    1    4    4    0    0 -0.21461186057E+02  0.59027457981E+02 -0.27152525489E+03  0.27869479247E+03  0.00000000000E+00 0.  1.
</event>
<event>
12    1  0.8344842E-002  0.1876338E+03  0.7818608E-02  0.1160828E+00
         21   -1    0    0  503  502  0.00000000000E+00  0.00000000000E+00  0.52300931981E+03  0.52300931981E+03  0.00000000000E+00 0. -1.
         21   -1    0    0  501  503 -0.00000000000E+00 -0.00000000000E+00 -0.14313018181E+03  0.14313018181E+03  0.00000000000E+00 0. -1.
          6    2    1    2  501    0  0.75222995505E+01  0.75724616275E+02 -0.52781054733E+02  0.19491610547E+03  0.17150990039E+03 0.  0.
         24    2    3    3    0    0  0.40100129958E+02  0.28876092370E+02  0.25816886186E+02  0.97675036250E+02  0.80200074569E+02 0.  0.
         -6    2    1    2    0  502 -0.75222995505E+01 -0.75724616275E+02  0.43266019273E+03  0.47122339615E+03  0.17048707930E+03 0.  0.
        -24    2    5    5    0    0  0.56564148539E+02 -0.15714392800E+02  0.23362699753E+03  0.25363524725E+03  0.79390299366E+02 0.  0.
          5    1    3    3  501    0 -0.32577830407E+02  0.46848523905E+02 -0.78597940919E+02  0.97241069219E+02  0.47000000000E+01 0. -1.
        -11    1    4    4    0    0  0.38232928829E+02  0.55197475863E+02  0.23689461741E+02  0.71201887518E+02  0.00000000000E+00 0.  1.
         12    1    4    4    0    0  0.18672011289E+01 -0.26321383493E+02  0.21274244450E+01  0.26473148732E+02  0.00000000000E+00 0. -1.
         -5    1    5    5    0  502 -0.64086448089E+02 -0.60010223476E+02  0.19903319520E+03  0.21758814890E+03  0.47000000000E+01 0.  1.
         13    1    6    6    0    0  0.28309947958E+02 -0.47887505035E+02  0.14156121759E+03  0.15209945634E+03  0.00000000000E+00 0. -1.
        -14    1    6    6    0    0  0.28254200580E+02  0.32173112236E+02  0.92065779932E+02  0.10153579091E+03  0.00000000000E+00 0.  1.
</event>
<event>
12    1  0.8344842E-002  0.1839232E+03  0.7818608E-02  0.1164088E+00
         21   -1    0    0  501  502  0.00000000000E+00  0.00000000000E+00  0.83234248074E+02  0.83234248074E+02  0.00000000000E+00 0.  1.
         21   -1    0    0  502  503 -0.00000000000E+00 -0.00000000000E+00 -0.45687328432E+03  0.45687328432E+03  0.00000000000E+00 0.  1.
         -6    2    1    2    0  503 -0.58997024581E+02 -0.26758342153E+02 -0.27674841015E+03  0.33222404651E+03  0.17200719978E+03 0.  0.
        -24    2    3    3    0    0 -0.10419903246E+02 -0.31257239668E+02 -0.52286889527E+02  0.10247409322E+03  0.81740024164E+02 0.  0.
          6    2    1    2  501    0  0.58997024581E+02  0.26758342153E+02 -0.96890626099E+02  0.20788348588E+03  0.17213684235E+03 0.  0.
         24    2    5    5    0    0 -0.24871260592E+02  0.47871500549E+02 -0.50325723780E+02  0.10954715057E+03  0.80979253858E+02 0.  0.
          5    1    5    5  501    0  0.83868285173E+02 -0.21113158396E+02 -0.46564902319E+02  0.98336335315E+02  0.47000000000E+01 0. -1.
        -11    1    6    6    0    0 -0.54607049895E+02  0.29690813961E+02 -0.36278849894E+02  0.71969641388E+02  0.00000000000E+00 0.  1.
         12    1    6    6    0    0  0.29735789302E+02  0.18180686588E+02 -0.14046873886E+02  0.37577509181E+02  0.00000000000E+00 0. -1.
         -5    1    3    3    0  503 -0.48577121335E+02  0.44988975154E+01 -0.22446152062E+03  0.22974995328E+03  0.47000000000E+01 0.  1.
         11    1    4    4    0    0  0.35875611544E+02 -0.11187649059E+02 -0.24650178112E+02  0.44942788922E+02  0.00000000000E+00 0. -1.
        -12    1    4    4    0    0 -0.46295514790E+02 -0.20069590609E+02 -0.27636711415E+02  0.57531304302E+02  0.00000000000E+00 0.  1.
</event>
<event>
12    1  0.8344842E-002  0.1744939E+03  0.7818608E-02  0.1173860E+00
         21   -1    0    0  501  502  0.00000000000E+00  0.00000000000E+00  0.78973727901E+02  0.78973727901E+02  0.00000000000E+00 0.  1.
         21   -1    0    0  502  503 -0.00000000000E+00 -0.00000000000E+00 -0.43582009785E+03  0.43582009785E+03  0.00000000000E+00 0.  1.
         -6    2    1    2    0  503 -0.24829425888E+02 -0.30010553734E+01 -0.87551711135E+02  0.19522661301E+03  0.17269227424E+03 0.  0.
        -24    2    3    3    0    0  0.51256317949E+02 -0.10762361176E+02 -0.29133678131E+02  0.98872916340E+02  0.78638691725E+02 0.  0.
          6    2    1    2  501    0  0.24829425888E+02  0.30010553734E+01 -0.26929465882E+03  0.31956721274E+03  0.17022950234E+03 0.  0.
         24    2    5    5    0    0 -0.43068322318E+02 -0.10503633000E+02 -0.20667002782E+03  0.22609841994E+03  0.80266982048E+02 0.  0.
          5    1    5    5  501    0  0.67897748206E+02  0.13504688373E+02 -0.62624630997E+02  0.93468792798E+02  0.47000000000E+01 0. -1.
        -11    1    6    6    0    0 -0.11794612008E+02  0.33659025507E+02 -0.60465863234E+02  0.70200879532E+02  0.00000000000E+00 0.  1.
         12    1    6    6    0    0 -0.31273710310E+02 -0.44162658507E+02 -0.14620416459E+03  0.15589754041E+03  0.00000000000E+00 0. -1.
         -5    1    3    3    0  503 -0.76085743837E+02  0.77613058023E+01 -0.58418033003E+02  0.96353696675E+02  0.47000000000E+01 0.  1.
         11    1    4    4    0    0 -0.12395635544E+02  0.15047457647E+02 -0.22645704292E+02  0.29881527488E+02  0.00000000000E+00 0. -1.
        -12    1    4    4    0    0  0.63651953493E+02 -0.25809818822E+02 -0.64879738395E+01  0.68991388851E+02  0.00000000000E+00 0.  1.
</event>
<event>
12    1  0.8344842E-002  0.2402075E+03  0.7818608E-02  0.1119875E+00
         21   -1    0    0  501  502  0.00000000000E+00  0.00000000000E+00  0.14377356325E+03  0.14377356325E+03  0.00000000000E+00 0. -1.
         21   -1    0    0  502  503 -0.00000000000E+00 -0.00000000000E+00 -0.40051064778E+03  0.40051064778E+03  0.00000000000E+00 0. -1.
         -6    2    1    2    0  503 -0.11963183040E+03  0.11543038813E+03 -0.11266859727E+03  0.26531842137E+03  0.17338887669E+03 0.  0.
        -24    2    3    3    0    0 -0.51276646835E+01  0.88846443869E+02 -0.76461051996E+02  0.14222907824E+03  0.80391757603E+02 0.  0.
          6    2    1    2  501    0  0.11963183040E+03 -0.11543038813E+03 -0.14406848726E+03  0.27896578965E+03  0.17155242180E+03 0.  0.
         24    2    5    5    0    0  0.62243291349E+02 -0.10986147828E+03 -0.15998334548E+03  0.21896720731E+03  0.80051204336E+02 0.  0.
          5    1    5    5  501    0  0.57388539051E+02 -0.55689098510E+01  0.15914858223E+02  0.59998582347E+02  0.47000000000E+01 0. -1.
        -11    1    6    6    0    0 -0.18133216656E+02 -0.26284572026E+02 -0.22234297719E+02  0.38910875959E+02  0.00000000000E+00 0.  1.
         12    1    6    6    0    0  0.80376508005E+02 -0.83576906250E+02 -0.13774904777E+03  0.18005633135E+03  0.00000000000E+00 0. -1.
         -5    1    3    3    0  503 -0.11450416572E+03  0.26583944259E+02 -0.36207545276E+02  0.12308934314E+03  0.47000000000E+01 0.  1.
         13    1    4    4    0    0 -0.35635063939E+02  0.32671291047E+02 -0.87876153547E+01  0.49137493060E+02  0.00000000000E+00 0. -1.
        -14    1    4    4    0    0  0.30507399255E+02  0.56175152822E+02 -0.67673436641E+02  0.93091585176E+02  0.00000000000E+00 0.  1.
</event>
<event>
12    1  0.8344842E-002  0.2268287E+03  0.7818608E-02  0.1129267E+00
         21   -1    0    0  501  502  0.00000000000E+00  0.00000000000E+00  0.63952130877E+03  0.63952130877E+03  0.00000000000E+00 0.  1.
         21   -1    0    0  502  503 -0.00000000000E+00 -0.00000000000E+00 -0.89230652871E+02  0.89230652871E+02  0.00000000000E+00 0.  1.
         -6    2    1    2    0  503  0.54660096198E+02 -0.13383798659E+03  0.15729086844E+03  0.27602842409E+03  0.17478827432E+03 0.  0.
        -24    2    3    3    0    0  0.38725377669E+02  0.35625990342E+01  0.56934985388E+02  0.10507161829E+03  0.79284963404E+02 0.  0.
          6    2    1    2  501    0 -0.54660096198E+02  0.13383798659E+03  0.39299978746E+03  0.45272353756E+03  0.17207392523E+03 0.  0.
         24    2    5    5    0    0 -0.38351716240E+02  0.14704042265E+03  0.22252645351E+03  0.28089945553E+03  0.79339407461E+02 0.  0.
          5    1    5    5  501    0 -0.16308379958E+02 -0.13202436059E+02  0.17047333395E+03  0.17182408202E+03  0.47000000000E+01 0. -1.
        -13    1    6    6    0    0 -0.46570854054E+01  0.12500998840E+03  0.19656869751E+03  0.23299879503E+03  0.00000000000E+00 0.  1.
         14    1    6    6    0    0 -0.33694630835E+02  0.22030434252E+02  0.25957755999E+02  0.47900660506E+02  0.00000000000E+00 0. -1.
         -5    1    3    3    0  503  0.15934718529E+02 -0.13740058562E+03  0.10035588305E+03  0.17095680579E+03  0.47000000000E+01 0.  1.
         11    1    4    4    0    0  0.23893757172E+01  0.34473301532E+02  0.43413288410E+02  0.55487216955E+02  0.00000000000E+00 0. -1.
        -12    1    4    4    0    0  0.36336001952E+02 -0.30910702498E+02  0.13521696978E+02  0.49584401337E+02  0.00000000000E+00 0.  1.
</event>
<event>
12    1  0.8344842E-002  0.1912251E+03  0.7818608E-02  0.1157430E+00
         21   -1    0    0  501  502  0.00000000000E+00  0.00000000000E+00  0.36028322827E+03  0.36028322827E+03  0.00000000000E+00 0. -1.
         21   -1    0    0  502  503 -0.00000000000E+00 -0.00000000000E+00 -0.11177297980E+03  0.11177297980E+03  0.00000000000E+00 0. -1.
         -6    2    1    2    0  503 -0.28832880590E+02  0.81799965483E+02  0.52206696452E+02  0.19822359071E+03  0.17042442139E+03 0.  0.
        -24    2    3    3    0    0 -0.79888522595E+02  0.31245321208E+02  0.14589620052E+02  0.11698576039E+03  0.78194405053E+02 0.  0.
          6    2    1    2  501    0  0.28832880590E+02 -0.81799965483E+02  0.19630355202E+03  0.27383261736E+03  0.17007835970E+03 0.  0.
         24    2    5    5    0    0  0.41766111044E+02 -0.10705492735E+03  0.20129074398E+03  0.24464283092E+03  0.78275063754E+02 0.  0.
          5    1    5    5  501    0 -0.12933230454E+02  0.25254961863E+02 -0.49871919669E+01  0.29189786440E+02  0.47000000000E+01 0. -1.
        -13    1    6    6    0    0  0.19469879733E+02  0.17733866450E+01  0.69906965901E+02  0.72589289833E+02  0.00000000000E+00 0.  1.
         14    1    6    6    0    0  0.22296231310E+02 -0.10882831399E+03  0.13138377808E+03  0.17205354109E+03  0.00000000000E+00 0. -1.
         -5    1    3    3    0  503  0.51055642006E+02  0.50554644275E+02  0.37617076401E+02  0.81237830321E+02  0.47000000000E+01 0.  1.
         13    1    4    4    0    0 -0.68160924344E+02 -0.28937770255E+01 -0.15536168080E+02  0.69968979351E+02  0.00000000000E+00 0. -1.
        -14    1    4    4    0    0 -0.11727598252E+02  0.34139098233E+02  0.30125788131E+02  0.47016781041E+02  0.00000000000E+00 0.  1.
</event>
<event>
12    1  0.8344842E-002  0.1740228E+03  0.7818608E-02  0.1174243E+00
         21   -1    0    0  503  502  0.00000000000E+00  0.00000000000E+00  0.14954794721E+03  0.14954794721E+03  0.00000000000E+00 0.  1.
         21   -1    0    0  501  503 -0.00000000000E+00 -0.00000000000E+00 -0.20046857190E+03  0.20046857190E+03  0.00000000000E+00 0.  1.
          6    2    1    2  501    0  0.16022090710E+01  0.70714020183E+01 -0.32794620582E+02  0.17505223849E+03  0.17179996292E+03 0.  0.
         24    2    3    3    0    0 -0.25993483875E+02 -0.55391999941E+02 -0.24013615213E+02  0.10604213119E+03  0.83212649343E+02 0.  0.
         -6    2    1    2    0  502 -0.16022090710E+01 -0.70714020183E+01 -0.18126004111E+02  0.17496428062E+03  0.17387172188E+03 0.  0.
        -24    2    5    5    0    0 -0.46177107507E+02 -0.49197917601E+02  0.14528255081E+02  0.10532265852E+03  0.79555212576E+02 0.  0.
          5    1    3    3  501    0  0.27595692946E+02  0.62463401960E+02 -0.87810053683E+01  0.69010107295E+02  0.47000000000E+01 0. -1.
        -13    1    4    4    0    0  0.28846299714E+01 -0.58588086316E+02 -0.41752024826E+02  0.72000809199E+02  0.00000000000E+00 0.  1.
         14    1    4    4    0    0 -0.28878113846E+02  0.31960863752E+01  0.17738409612E+02  0.34041321993E+02  0.00000000000E+00 0. -1.
         -5    1    5    5    0  502  0.44574898436E+02  0.42126515583E+02 -0.32654259191E+02  0.69641622102E+02  0.47000000000E+01 0.  1.
         11    1    6    6    0    0  0.65086544490E+01 -0.37486108957E+02 -0.18228429052E+02  0.42188227898E+02  0.00000000000E+00 0. -1.
        -12    1    6    6    0    0 -0.52685761956E+02 -0.11711808645E+02  0.32756684133E+02  0.63134430622E+02  0.00000000000E+00 0.  1.
</event>
<event>
12    1  0.8344842E-002  0.1915143E+03  0.7818608E-02  0.1159426E+00
         21   -1    0    0  501  502  0.00000000000E+00  0.00000000000E+00  0.17430846380E+03  0.17430846380E+03  0.00000000000E+00 0.  1.
         21   -1    0    0  502  503 -0.00000000000E+00 -0.00000000000E+00 -0.20816492145E+03  0.20816492145E+03  0.00000000000E+00 0. -1.
         -6    2    1    2    0  503  0.67116395806E+02 -0.41125401631E+02  0.21740238662E+02  0.19274430018E+03  0.17459042938E+03 0.  0.
        -24    2    3    3    0    0  0.84637806706E+02 -0.18384179856E+02  0.69383288476E+02  0.13692214326E+03  0.80200350388E+02 0.  0.
          6    2    1    2  501    0 -0.67116395806E+02  0.41125401631E+02 -0.55596696312E+02  0.18972908506E+03  0.16343262781E+03 0.  0.
         24    2    5    5    0    0 -0.90967592494E+02 -0.16617051669E+01 -0.69254065494E+02  0.13865825361E+03  0.78435461108E+02 0.  0.
          5    1    5    5  501    0  0.23851196688E+02  0.42787106798E+02  0.13657369183E+02  0.51070831446E+02  0.47000000000E+01 0. -1.
        -11    1    6    6    0    0 -0.52890801140E+02 -0.39375851183E+02 -0.31322008365E+02  0.72999744586E+02  0.00000000000E+00 0.  1.
         12    1    6    6    0    0 -0.38076791354E+02  0.37714146016E+02 -0.37932057129E+02  0.65658509027E+02  0.00000000000E+00 0. -1.
         -5    1    3    3    0  503 -0.17521410900E+02 -0.22741221775E+02 -0.47643049814E+02  0.55822156921E+02  0.47000000000E+01 0.  1.
         13    1    4    4    0    0  0.28705939375E+02  0.28584833323E+02  0.75126077505E+01  0.41201491802E+02  0.00000000000E+00 0. -1.
        -14    1    4    4    0    0  0.55931867331E+02 -0.46969013179E+02  0.61870680725E+02  0.95720651458E+02  0.00000000000E+00 0.  1.
</event>
<event>
12    1  0.8344842E-002  0.1807530E+03  0.7818608E-02  0.1167743E+00
         21   -1    0    0  503  502  0.00000000000E+00  0.00000000000E+00  0.66091884637E+03  0.66091884637E+03  0.00000000000E+00 0. -1.
         21   -1    0    0  501  503 -0.00000000000E+00 -0.00000000000E+00 -0.11695995750E+03  0.11695995750E+03  0.00000000000E+00 0. -1.
          6    2    1    2  501    0  0.34262070422E+02 -0.41733696166E+02 -0.24312042601E+02  0.18238073668E+03  0.17249946907E+03 0.  0.
         24    2    3    3    0    0  0.86914565492E+02 -0.12771839518E+02 -0.44107955512E+01  0.11890456783E+03  0.80009871597E+02 0.  0.
         -6    2    1    2    0  502 -0.34262070422E+02  0.41733696166E+02  0.56827093148E+03  0.59549806719E+03  0.16961870652E+03 0.  0.
        -24    2    5    5    0    0  0.42289064377E+02  0.25599076531E+01  0.32996749651E+03  0.34211046082E+03  0.79787847174E+02 0.  0.
          5    1    3    3  501    0 -0.52652495071E+02 -0.28961856649E+02 -0.19901247050E+02  0.63476168850E+02  0.47000000000E+01 0. -1.
        -11    1    4    4    0    0  0.84756485257E+02 -0.37971845962E+02 -0.85871486346E+01  0.93269834354E+02  0.00000000000E+00 0.  1.
         12    1    4    4    0    0  0.21580802356E+01  0.25200006444E+02  0.41763530834E+01  0.25634733471E+02  0.00000000000E+00 0. -1.
         -5    1    5    5    0  502 -0.76551134799E+02  0.39173788513E+02  0.23830343497E+03  0.25338760637E+03  0.47000000000E+01 0.  1.
         11    1    6    6    0    0 -0.17357293969E+02  0.21613634696E+02  0.10233885834E+03  0.10602672675E+03  0.00000000000E+00 0. -1.
        -12    1    6    6    0    0  0.59646358346E+02 -0.19053727043E+02  0.22762863818E+03  0.23608373408E+03  0.00000000000E+00 0.  1.
</event>
<event>
12    1  0.8344842E-002  0.2683968E+03  0.7818608E-02  0.1102832E+00
         21   -1    0    0  503  502  0.00000000000E+00  0.00000000000E+00  0.52547152380E+03  0.52547152380E+03  0.00000000000E+00 0.  1.
         21   -1    0    0  501  503 -0.00000000000E+00 -0.00000000000E+00 -0.21127657521E+03  0.21127657521E+03  0.00000000000E+00 0.  1.
          6    2    1    2  501    0  0.96294054791E+02 -0.18229926884E+03 -0.63589719084E+02  0.27582691079E+03  0.17184662910E+03 0.  0.
         24    2    3    3    0    0  0.97981193591E+02 -0.19465802894E+03 -0.87684203504E+02  0.24829112375E+03  0.80423255721E+02 0.  0.
         -6    2    1    2    0  502 -0.96294054791E+02  0.18229926884E+03  0.37778466768E+03  0.46092118822E+03  0.16498944879E+03 0.  0.
        -24    2    5    5    0    0 -0.78289080467E+02  0.11299482179E+03  0.35045322673E+03  0.38413327807E+03  0.76445414009E+02 0.  0.
          5    1    3    3  501    0 -0.16871387992E+01  0.12358760095E+02  0.24094484420E+02  0.27535787040E+02  0.47000000000E+01 0. -1.
        -11    1    4    4    0    0 -0.10200032519E+02 -0.35730909356E+01 -0.11712889870E+02  0.15937359610E+02  0.00000000000E+00 0.  1.
         12    1    4    4    0    0  0.10818122611E+03 -0.19108493800E+03 -0.75971313634E+02  0.23235376414E+03  0.00000000000E+00 0. -1.
         -5    1    5    5    0  502 -0.18004974324E+02  0.69304447050E+02  0.27331440944E+02  0.76787910152E+02  0.47000000000E+01 0.  1.
         11    1    6    6    0    0  0.41778448103E+01  0.36057095611E+02  0.14798164463E+03  0.15236842087E+03  0.00000000000E+00 0. -1.
        -12    1    6    6    0    0 -0.82466925277E+02  0.76937726181E+02  0.20247158210E+03  0.23176485720E+03  0.00000000000E+00 0.  1.
</event>
<event>
12    1  0.8344842E-002  0.2363500E+03  0.7818608E-02  0.1122592E+00
         21   -1    0    0  501  502  0.00000000000E+00  0.00000000000E+00  0.50188105804E+03  0.50188105804E+03  0.00000000000E+00 0. -1.
         21   -1    0    0  502  503 -0.00000000000E+00 -0.00000000000E+00 -0.11250087338E+03  0.11250087338E+03  0.00000000000E+00 0. -1.
         -6    2    1    2    0  503  0.15860159410E+03  0.17199073372E+02  0.23626037393E+03  0.33276695867E+03  0.17165258726E+03 0.  0.
        -24    2    3    3    0    0  0.18297835115E+03  0.64651624497E+01  0.18733204200E+03  0.27686065496E+03  0.89641803829E+02 0.  0.
          6    2    1    2  501    0 -0.15860159410E+03 -0.17199073372E+02  0.15311981073E+03  0.28161497276E+03  0.17438762189E+03 0.  0.
         24    2    5    5    0    0 -0.26640555440E+02 -0.53383842907E+02  0.67850437936E+02  0.12032018299E+03  0.79458861236E+02 0.  0.
          5    1    5    5  501    0 -0.13196103866E+03  0.36184769535E+02  0.85269372793E+02  0.16129478977E+03  0.47000000000E+01 0. -1.
        -13    1    6    6    0    0 -0.10627614266E+02 -0.21611829283E+02 -0.16216433620E+02  0.29034291266E+02  0.00000000000E+00 0.  1.
         14    1    6    6    0    0 -0.16012941174E+02 -0.31772013624E+02  0.84066871556E+02  0.91285891724E+02  0.00000000000E+00 0. -1.
         -5    1    3    3    0  503 -0.24376757046E+02  0.10733910922E+02  0.48928331934E+02  0.55906303702E+02  0.47000000000E+01 0.  1.
         13    1    4    4    0    0  0.65987529669E+02  0.43440445981E+02  0.93441944862E+02  0.12236348916E+03  0.00000000000E+00 0. -1.
        -14    1    4    4    0    0  0.11699082148E+03 -0.36975283531E+02  0.93890097137E+02  0.15449716581E+03  0.00000000000E+00 0.  1.
</event>
<event>
12    1  0.8344842E-002  0.2004433E+03  0.7818608E-02  0.1149457E+00
         21   -1    0    0  503  502  0.00000000000E+00  0.00000000000E+00  0.40761187318E+02  0.40761187318E+02  0.00000000000E+00 0.  1.
         21   -1    0    0  501  503 -0.00000000000E+00 -0.00000000000E+00 -0.14756237082E+04  0.14756237082E+04  0.00000000000E+00 0. -1.
          6    2    1    2  501    0 -0.97004458375E+02 -0.32846274414E+02 -0.11547440048E+04  0.11719376376E+04  0.17180036969E+03 0.  0.
         24    2    3    3    0    0 -0.11326974514E+03  0.16449756903E+02 -0.67999351449E+03  0.69433447980E+03  0.81293052720E+02 0.  0.
         -6    2    1    2    0  502  0.97004458375E+02  0.32846274414E+02 -0.28011851604E+03  0.34444725791E+03  0.17230434634E+03 0.  0.
        -24    2    5    5    0    0  0.87050426376E+01 -0.25206464394E+02 -0.17902289927E+03  0.19812801437E+03  0.80587641722E+02 0.  0.
          5    1    3    3  501    0  0.16265286768E+02 -0.49296031317E+02 -0.47475049035E+03  0.47760315780E+03  0.47000000000E+01 0. -1.
        -11    1    4    4    0    0 -0.54942147521E+02  0.28848115048E+02 -0.51819257001E+03  0.52189500182E+03  0.00000000000E+00 0.  1.
         12    1    4    4    0    0 -0.58327597622E+02 -0.12398358145E+02 -0.16180094449E+03  0.17243947798E+03  0.00000000000E+00 0. -1.
         -5    1    5    5    0  502  0.88299415737E+02  0.58052738808E+02 -0.10109561677E+03  0.14631924355E+03  0.47000000000E+01 0.  1.
         11    1    6    6    0    0 -0.15083699887E+02 -0.23504232703E+02 -0.13724565709E+02  0.31118011844E+02  0.00000000000E+00 0. -1.
        -12    1    6    6    0    0  0.23788742524E+02 -0.17022316908E+01 -0.16529833357E+03  0.16701000252E+03  0.00000000000E+00 0.  1.
</event>
<event>
12    1  0.8344842E-002  0.2423189E+03  0.7818608E-02  0.1118762E+00
         21   -1    0    0  503  502  0.00000000000E+00  0.00000000000E+00  0.65666136506E+03  0.65666136506E+03  0.00000000000E+00 0. -1.
         21   -1    0    0  501  503 -0.00000000000E+00 -0.00000000000E+00 -0.13358042678E+03  0.13358042678E+03  0.00000000000E+00 0.  1.
          6    2    1    2  501    0  0.45498297334E+02  0.16322408899E+03  0.30405013979E+02  0.24119897311E+03  0.16893869145E+03 0.  0.
         24    2    3    3    0    0  0.92385784662E+02  0.11649589401E+03  0.33252244320E+01  0.16952355420E+03  0.81368002202E+02 0.  0.
         -6    2    1    2    0  502 -0.45498297334E+02 -0.16322408899E+03  0.49267592429E+03  0.54904281873E+03  0.17322312815E+03 0.  0.
        -24    2    5    5    0    0 -0.79212124074E+02 -0.12375171226E+03  0.25361581693E+03  0.30436647011E+03  0.82029986235E+02 0.  0.
          5    1    3    3  501    0 -0.46887487329E+02  0.46728194979E+02  0.27079789547E+02  0.71675418910E+02  0.47000000000E+01 0. -1.
        -13    1    4    4    0    0  0.65957352481E+02  0.78449268364E+02 -0.36129551827E+02  0.10867384491E+03  0.00000000000E+00 0.  1.
         14    1    4    4    0    0  0.26428432181E+02  0.38046625649E+02  0.39454776259E+02  0.60849709288E+02  0.00000000000E+00 0. -1.
         -5    1    5    5    0  502  0.33713826740E+02 -0.39472376728E+02  0.23906010736E+03  0.24467634861E+03  0.47000000000E+01 0.  1.
         11    1    6    6    0    0 -0.51980058598E+02 -0.12720854902E+03  0.23106823460E+03  0.26884283601E+03  0.00000000000E+00 0. -1.
        -12    1    6    6    0    0 -0.27232065476E+02  0.34568367551E+01  0.22547582331E+02  0.35523634096E+02  0.00000000000E+00 0.  1.
</event>
<event>
12    1  0.8344842E-002  0.1744695E+03  0.7818608E-02  0.1174153E+00
         21   -1    0    0  501  502  0.00000000000E+00  0.00000000000E+00  0.13588045072E+03  0.13588045072E+03  0.00000000000E+00 0. -1.
         21   -1    0    0  502  503 -0.00000000000E+00 -0.00000000000E+00 -0.22023742325E+03  0.22023742325E+03  0.00000000000E+00 0. -1.
         -6    2    1    2    0  503 -0.79451258576E+01 -0.37123515824E+00 -0.32780247203E+02  0.17752225396E+03  0.17428810403E+03 0.  0.
        -24    2    3    3    0    0  0.34593960463E+02  0.55235429766E+02 -0.80928254390E+01  0.10313654403E+03  0.79523317895E+02 0.  0.
          6    2    1    2  501    0  0.79451258576E+01  0.37123515824E+00 -0.51576725323E+02  0.17859562000E+03  0.17080097789E+03 0.  0.
         24    2    5    5    0    0  0.25167725106E+02  0.34870034392E+02 -0.86743666008E+02  0.12619725371E+03  0.80944113841E+02 0.  0.
          5    1    5    5  501    0 -0.17222599249E+02 -0.34498799233E+02  0.35166940685E+02  0.52398366296E+02  0.47000000000E+01 0. -1.
        -11    1    6    6    0    0 -0.21080471967E+02 -0.10635572378E+02 -0.39195485740E+02  0.45757926095E+02  0.00000000000E+00 0.  1.
         12    1    6    6    0    0  0.46248197074E+02  0.45505606769E+02 -0.47548180268E+02  0.80439327613E+02  0.00000000000E+00 0. -1.
         -5    1    3    3    0  503 -0.42539086321E+02 -0.55606664924E+02 -0.24687421764E+02  0.74385709933E+02  0.47000000000E+01 0.  1.
         13    1    4    4    0    0 -0.21492627714E+02 -0.18488358475E+01 -0.82879048099E+01  0.23109318601E+02  0.00000000000E+00 0. -1.
        -14    1    4    4    0    0  0.56086588178E+02  0.57084265613E+02  0.19507937090E+00  0.80027225429E+02  0.00000000000E+00 0.  1.
</event>
<event>
12    1  0.8344842E-002  0.1766501E+03  0.7818608E-02  0.1171122E+00
         21   -1    0    0  503  502  0.00000000000E+00  0.00000000000E+00  0.20211194205E+04  0.20211194205E+04  0.00000000000E+00 0. -1.
         21   -1    0    0  501  503 -0.00000000000E+00 -0.00000000000E+00 -0.18197439088E+02  0.18197439088E+02  0.00000000000E+00 0. -1.
          6    2    1    2  501    0 -0.38464341990E+02 -0.12390280095E+02  0.60393364398E+03  0.62923850762E+03  0.17196577710E+03 0.  0.
         24    2    3    3    0    0 -0.77529619874E+02  0.69705113070E+01  0.27707944757E+03  0.29945571260E+03  0.82711991611E+02 0.  0.
         -6    2    1    2    0  502  0.38464341990E+02  0.12390280095E+02  0.13989883374E+04  0.14100783519E+04  0.17181258911E+03 0.  0.
        -24    2    5    5    0    0 -0.27419125707E+02 -0.39385586148E+02  0.66391883945E+03  0.67023334895E+03  0.78239911856E+02 0.  0.
          5    1    3    3  501    0  0.39065277884E+02 -0.19360791402E+02  0.32685419641E+03  0.32978279502E+03  0.47000000000E+01 0. -1.
        -11    1    4    4    0    0  0.28851015619E+01  0.27607774289E+02  0.43917891838E+02  0.51954732563E+02  0.00000000000E+00 0.  1.
         12    1    4    4    0    0 -0.80414721436E+02 -0.20637262982E+02  0.23316155573E+03  0.24750098004E+03  0.00000000000E+00 0. -1.
         -5    1    5    5    0  502  0.65883467697E+02  0.51775866243E+02  0.73506949795E+03  0.73984500300E+03  0.47000000000E+01 0.  1.
         11    1    6    6    0    0 -0.10846654903E+02  0.14150341877E+02  0.39891486754E+02  0.43694539856E+02  0.00000000000E+00 0. -1.
        -12    1    6    6    0    0 -0.16572470804E+02 -0.53535928025E+02  0.62402735270E+03  0.62653880909E+03  0.00000000000E+00 0.  1.
</event>
<event>
12    1  0.8344842E-002  0.2110446E+03  0.7818608E-02  0.1142933E+00
         21   -1    0    0  503  502  0.00000000000E+00  0.00000000000E+00  0.11339291255E+03  0.11339291255E+03  0.00000000000E+00 0. -1.
         21   -1    0    0  501  503 -0.00000000000E+00 -0.00000000000E+00 -0.39492046699E+03  0.39492046699E+03  0.00000000000E+00 0. -1.
          6    2    1    2  501    0  0.67523714926E+02 -0.74908188580E+02 -0.20426630406E+03  0.29370830006E+03  0.18538919535E+03 0.  0.
         24    2    3    3    0    0  0.11783274171E+03 -0.51701653413E+02 -0.12481482586E+03  0.19673320615E+03  0.81040716064E+02 0.  0.
         -6    2    1    2    0  502 -0.67523714926E+02  0.74908188580E+02 -0.77261250384E+02  0.21460507948E+03  0.17296054618E+03 0.  0.
        -24    2    5    5    0    0 -0.29667181879E+02  0.80108666316E+02  0.10909920010E+02  0.11839485470E+03  0.81245154725E+02 0.  0.
          5    1    3    3  501    0 -0.50309026788E+02 -0.23206535168E+02 -0.79451478203E+02  0.96975093913E+02  0.47000000000E+01 0. -1.
        -13    1    4    4    0    0  0.83609290826E+02 -0.73588428869E+02 -0.88887730918E+02  0.14250192660E+03  0.00000000000E+00 0.  1.
         14    1    4    4    0    0  0.34223450888E+02  0.21886775456E+02 -0.35927094942E+02  0.54231279549E+02  0.00000000000E+00 0. -1.
         -5    1    5    5    0  502 -0.37856533048E+02 -0.52004777350E+01 -0.88171170394E+02  0.96210224777E+02  0.47000000000E+01 0.  1.
         13    1    6    6    0    0  0.13780054122E+02  0.68609020607E+01  0.27607817714E+02  0.31609388916E+02  0.00000000000E+00 0. -1.
        -14    1    6    6    0    0 -0.43447236000E+02  0.73247764255E+02 -0.16697897704E+02  0.86785465789E+02  0.00000000000E+00 0.  1.
</event>
<event>
12    1  0.8344842E-002  0.1978953E+03  0.7818608E-02  0.1152159E+00
         21   -1    0    0  501  502  0.00000000000E+00  0.00000000000E+00  0.42166447101E+02  0.42166447101E+02  0.00000000000E+00 0.  1.
         21   -1    0    0  502  503 -0.00000000000E+00 -0.00000000000E+00 -0.16345277402E+04  0.16345277402E+04  0.00000000000E+00 0.  1.
         -6    2    1    2    0  503 -0.25449859592E+02 -0.90878449074E+02 -0.13557075735E+04  0.13700750230E+04  0.17394239270E+03 0.  0.
        -24    2    3    3    0    0  0.47479354642E+02 -0.75012049220E+02 -0.74012081201E+03  0.74996248173E+03  0.82363893720E+02 0.  0.
          6    2    1    2  501    0  0.25449859592E+02  0.90878449074E+02 -0.23665371965E+03  0.30661916434E+03  0.17059818597E+03 0.  0.
         24    2    5    5    0    0  0.21949587067E+02  0.12935411886E+03 -0.17130690988E+03  0.23056047240E+03  0.81226852815E+02 0.  0.
          5    1    5    5  501    0  0.35002725254E+01 -0.38475669789E+02 -0.65346809771E+02  0.76058691948E+02  0.47000000000E+01 0. -1.
        -11    1    6    6    0    0 -0.11308017892E+02  0.33344584857E+02 -0.48489785143E+01  0.35542160888E+02  0.00000000000E+00 0.  1.
         12    1    6    6    0    0  0.33257604959E+02  0.96009534007E+02 -0.16645793137E+03  0.19501831151E+03  0.00000000000E+00 0. -1.
         -5    1    3    3    0  503 -0.72929214235E+02 -0.15866399854E+02 -0.61558676144E+03  0.62011254123E+03  0.47000000000E+01 0.  1.
         13    1    4    4    0    0  0.11165972010E+02 -0.36610189228E+02 -0.91377635741E+02  0.99069961137E+02  0.00000000000E+00 0. -1.
        -14    1    4    4    0    0  0.36313382632E+02 -0.38401859992E+02 -0.64874317627E+03  0.65089252059E+03  0.00000000000E+00 0.  1.
</event>
<event>
12    1  0.8344842E-002  0.1918875E+03  0.7818608E-02  0.1158721E+00
         21   -1    0    0  503  502  0.00000000000E+00  0.00000000000E+00  0.45372901965E+03  0.45372901965E+03  0.00000000000E+00 0.  1.
         21   -1    0    0  501  503 -0.00000000000E+00 -0.00000000000E+00 -0.86987591536E+02  0.86987591536E+02  0.00000000000E+00 0. -1.
          6    2    1    2  501    0 -0.85937806098E+02  0.18639010148E+02  0.98181257678E+02  0.21554665043E+03  0.17055227919E+03 0.  0.
         24    2    3    3    0    0 -0.80787885806E+02  0.69620942836E+02  0.47368713140E+02  0.14323009754E+03  0.83050031203E+02 0.  0.
         -6    2    1    2    0  502  0.85937806098E+02 -0.18639010148E+02  0.26856017044E+03  0.32516996076E+03  0.16086708494E+03 0.  0.
        -24    2    5    5    0    0  0.84747954612E+01 -0.46543472985E+02  0.97380474787E+02  0.13516007873E+03  0.80914602995E+02 0.  0.
          5    1    3    3  501    0 -0.51499202924E+01 -0.50981932688E+02  0.50812544539E+02  0.72316552892E+02  0.47000000000E+01 0. -1.
        -13    1    4    4    0    0 -0.42905071579E+02  0.65884985750E+02  0.64299453335E+02  0.10156818505E+03  0.00000000000E+00 0.  1.
         14    1    4    4    0    0 -0.37882814227E+02  0.37359570861E+01 -0.16930740196E+02  0.41661912494E+02  0.00000000000E+00 0. -1.
         -5    1    5    5    0  502  0.77463010637E+02  0.27904462837E+02  0.17117969565E+03  0.19000988202E+03  0.47000000000E+01 0.  1.
         13    1    6    6    0    0  0.36506126982E+02 -0.53562543207E+02  0.66308075436E+02  0.92727580633E+02  0.00000000000E+00 0. -1.
        -14    1    6    6    0    0 -0.28031331521E+02  0.70190702215E+01  0.31072399351E+02  0.42432498100E+02  0.00000000000E+00 0.  1.
</event>
<event>
12    1  0.8344842E-002  0.1809742E+03  0.7818608E-02  0.1167720E+00
         21   -1    0    0  503  502  0.00000000000E+00  0.00000000000E+00  0.16424428938E+03  0.16424428938E+03  0.00000000000E+00 0. -1.
         21   -1    0    0  501  503 -0.00000000000E+00 -0.00000000000E+00 -0.24886719172E+03  0.24886719172E+03  0.00000000000E+00 0. -1.
          6    2    1    2  501    0 -0.45623683188E+02 -0.33023230419E+02 -0.13824943710E+03  0.22773791440E+03  0.17198719889E+03 0.  0.
         24    2    3    3    0    0  0.40656650501E+02 -0.72617430021E+01 -0.36794820999E+02  0.92006269813E+02  0.73522776682E+02 0.  0.
         -6    2    1    2    0  502  0.45623683188E+02  0.33023230419E+02  0.53626534754E+02  0.18537356669E+03  0.16827210043E+03 0.  0.
        -24    2    5    5    0    0  0.26827914993E+01 -0.40226931653E+02  0.29766728487E+02  0.97050937781E+02  0.83110907821E+02 0.  0.
          5    1    3    3  501    0 -0.86280333689E+02 -0.25761487417E+02 -0.10145461610E+03  0.13573164459E+03  0.47000000000E+01 0. -1.
        -11    1    4    4    0    0  0.54861130751E+02 -0.31721964502E+01 -0.48388439075E+02  0.73220540382E+02  0.00000000000E+00 0.  1.
         12    1    4    4    0    0 -0.14204480250E+02 -0.40895465519E+01  0.11593618076E+02  0.18785729431E+02  0.00000000000E+00 0. -1.
         -5    1    5    5    0  502  0.42940891689E+02  0.73250162072E+02  0.23859806267E+02  0.88322628911E+02  0.47000000000E+01 0.  1.
         11    1    6    6    0    0  0.35012355087E+02 -0.27097344093E+02  0.41052332786E+02  0.60377355795E+02  0.00000000000E+00 0. -1.
        -12    1    6    6    0    0 -0.32329563588E+02 -0.13129587560E+02 -0.11285604298E+02  0.36673581986E+02  0.00000000000E+00 0.  1.
</event>
<event>
12    1  0.8344842E-002  0.2336293E+03  0.7818608E-02  0.1124492E+00
         21   -1    0    0  503  502  0.00000000000E+00  0.00000000000E+00  0.73013453588E+03  0.73013453588E+03  0.00000000000E+00 0. -1.
         21   -1    0    0  501  503 -0.00000000000E+00 -0.00000000000E+00 -0.78865382723E+02  0.78865382723E+02  0.00000000000E+00 0.  1.
          6    2    1    2  501    0 -0.11262485588E+03 -0.11194377629E+03  0.22718704974E+03  0.32587823623E+03  0.17136773929E+03 0.  0.
         24    2    3    3    0    0 -0.11353346686E+03 -0.43069340540E+02  0.96249454793E+02  0.17785372055E+03  0.87310779252E+02 0.  0.
         -6    2    1    2    0  502  0.11262485588E+03  0.11194377629E+03  0.42408210342E+03  0.48312168238E+03  0.16836021598E+03 0.  0.
        -24    2    5    5    0    0  0.98833141431E+01  0.96411998222E+02  0.26591718002E+03  0.29381956004E+03  0.78898884203E+02 0.  0.
          5    1    3    3  501    0  0.90861097655E+00 -0.68874435750E+02  0.13093759494E+03  0.14802451568E+03  0.47000000000E+01 0. -1.
        -11    1    4    4    0    0 -0.74075334708E+02 -0.64490123079E+02  0.40410489372E+02  0.10620329015E+03  0.00000000000E+00 0.  1.
         12    1    4    4    0    0 -0.39458132148E+02  0.21420782539E+02  0.55838965421E+02  0.71650430399E+02  0.00000000000E+00 0. -1.
         -5    1    5    5    0  502  0.10274154174E+03  0.15531778068E+02  0.15816492340E+03  0.18930212234E+03  0.47000000000E+01 0.  1.
         13    1    6    6    0    0 -0.43245986966E+01  0.32525262004E+02  0.19328566878E+03  0.19605087243E+03  0.00000000000E+00 0. -1.
        -14    1    6    6    0    0  0.14207912840E+02  0.63886736218E+02  0.72631511242E+02  0.97768687611E+02  0.00000000000E+00 0.  1.
</event>
<event>
12    1  0.8344842E-002  0.2093303E+03  0.7818608E-02  0.1142538E+00
         21   -1    0    0  503  502  0.00000000000E+00  0.00000000000E+00  0.31848580509E+03  0.31848580509E+03  0.00000000000E+00 0.  1.
         21   -1    0    0  501  503 -0.00000000000E+00 -0.00000000000E+00 -0.17463556108E+03  0.17463556108E+03  0.00000000000E+00 0.  1.
          6    2    1    2  501    0 -0.90632275435E+02  0.75215282695E+02 -0.43534062386E+02  0.21380921362E+03  0.17305379840E+03 0.  0.
         24    2    3    3    0    0 -0.11067032426E+03  0.10427837695E+03 -0.47148000420E+02  0.17801344018E+03  0.79648919446E+02 0.  0.
         -6    2    1    2    0  502  0.90632275435E+02 -0.75215282695E+02  0.18738430640E+03  0.27931215254E+03  0.17038442467E+03 0.  0.
        -24    2    5    5    0    0 -0.23177001011E+01 -0.50003696590E+02  0.39805398866E+02  0.10302560747E+03  0.80771681972E+02 0.  0.
          5    1    3    3  501    0  0.20038048823E+02 -0.29063094257E+02  0.36139380343E+01  0.35795773446E+02  0.47000000000E+01 0. -1.
        -11    1    4    4    0    0 -0.77650720726E+02  0.19831052484E+02 -0.13357499078E+02  0.81248556009E+02  0.00000000000E+00 0.  1.
         12    1    4    4    0    0 -0.33019603533E+02  0.84447324468E+02 -0.33790501342E+02  0.96764884169E+02  0.00000000000E+00 0. -1.
         -5    1    5    5    0  502  0.92949975536E+02 -0.25211586106E+02  0.14757890753E+03  0.17628654507E+03  0.47000000000E+01 0.  1.
         13    1    6    6    0    0  0.14005860721E+02 -0.63183962820E+02  0.84052063296E+01  0.65261204292E+02  0.00000000000E+00 0. -1.
        -14    1    6    6    0    0 -0.16323560822E+02  0.13180266231E+02  0.31400192536E+02  0.37764403175E+02  0.00000000000E+00 0.  1.
</event>
<event>
12    1  0.8344842E-002  0.2210903E+03  0.7818608E-02  0.1133128E+00
         21   -1    0    0  501  502  0.00000000000E+00  0.00000000000E+00  0.37070475464E+02  0.37070475464E+02  0.00000000000E+00 0.  1.
         21   -1    0    0  502  503 -0.00000000000E+00 -0.00000000000E+00 -0.13313534644E+04  0.13313534644E+04  0.00000000000E+00 0. -1.
         -6    2    1    2    0  503  0.13462383581E+03  0.30886478830E+02 -0.71910077948E+03  0.75232097762E+03  0.17263652733E+03 0.  0.
        -24    2    3    3    0    0  0.15596295547E+02  0.15327489538E+02 -0.46145848881E+03  0.46804773331E+03  0.75143645009E+02 0.  0.
          6    2    1    2  501    0 -0.13462383581E+03 -0.30886478830E+02 -0.57518220949E+03  0.61610296229E+03  0.17225194999E+03 0.  0.
         24    2    5    5    0    0 -0.13429858482E+03  0.77775085037E+01 -0.54452611522E+03  0.56653587824E+03  0.79734632709E+02 0.  0.
          5    1    5    5  501    0 -0.32525099684E+00 -0.38663987334E+02 -0.30656094270E+02  0.49567084044E+02  0.47000000000E+01 0. -1.
        -11    1    6    6    0    0 -0.12225196975E+03  0.11069839870E+01 -0.33592213086E+03  0.35747789795E+03  0.00000000000E+00 0.  1.
         12    1    6    6    0    0 -0.12046615070E+02  0.66705245167E+01 -0.20860398436E+03  0.20905798029E+03  0.00000000000E+00 0. -1.
         -5    1    3    3    0  503  0.11902754027E+03  0.15558989292E+02 -0.25764229067E+03  0.28427324431E+03  0.47000000000E+01 0.  1.
         13    1    4    4    0    0  0.41462952932E+02 -0.67602668873E+01 -0.30888466225E+03  0.31172842707E+03  0.00000000000E+00 0. -1.
        -14    1    4    4    0    0 -0.25866657384E+02  0.22087756426E+02 -0.15257382657E+03  0.15631930623E+03  0.00000000000E+00 0.  1.
</event>
<event>
12    1  0.8344842E-002  0.2055492E+03  0.7818608E-02  0.1145325E+00
         21   -1    0    0  501  502  0.00000000000E+00  0.00000000000E+00  0.13769142761E+03  0.13769142761E+03  0.00000000000E+00 0. -1.
         21   -1    0    0  502  503 -0.00000000000E+00 -0.00000000000E+00 -0.33178908686E+03  0.33178908686E+03  0.00000000000E+00 0.  1.
         -6    2    1    2    0  503 -0.10713744600E+03  0.21146673743E+02 -0.16332366860E+03  0.26253585838E+03  0.17414029420E+03 0.  0.
        -24    2    3    3    0    0 -0.89229354300E+02  0.26898712446E+02 -0.31227722494E+02  0.12902475519E+03  0.83587070768E+02 0.  0.
          6    2    1    2  501    0  0.10713744600E+03 -0.21146673743E+02 -0.30773990642E+02  0.20694465609E+03  0.17307061575E+03 0.  0.
         24    2    5    5    0    0  0.31876736354E+02 -0.75311404976E+01 -0.78805790876E+02  0.11650848525E+03  0.79316013909E+02 0.  0.
          5    1    5    5  501    0  0.75260709642E+02 -0.13615533245E+02  0.48031800234E+02  0.90436170834E+02  0.47000000000E+01 0. -1.
        -13    1    6    6    0    0  0.98404871087E+01 -0.42114216083E+02 -0.29369588492E+02  0.52278247016E+02  0.00000000000E+00 0.  1.
         14    1    6    6    0    0  0.22036249246E+02  0.34583075586E+02 -0.49436202384E+02  0.64230238236E+02  0.00000000000E+00 0. -1.
         -5    1    3    3    0  503 -0.17908091696E+02 -0.57520387037E+01 -0.13209594611E+03  0.13351110319E+03  0.47000000000E+01 0.  1.
         13    1    4    4    0    0 -0.80457384197E+02  0.50543917504E+02 -0.38889383081E+02  0.10266675404E+03  0.00000000000E+00 0. -1.
        -14    1    4    4    0    0 -0.87719701036E+01 -0.23645205058E+02  0.76616605873E+01  0.26358001151E+02  0.00000000000E+00 0.  1.
</event>
<event>
12    1  0.8344842E-002  0.1749662E+03  0.7818608E-02  0.1173674E+00
         21   -1    0    0  503  502  0.00000000000E+00  0.00000000000E+00  0.20296390778E+03  0.20296390778E+03  0.00000000000E+00 0.  1.
         21   -1    0    0  501  503 -0.00000000000E+00 -0.00000000000E+00 -0.28540814475E+03  0.28540814475E+03  0.00000000000E+00 0.  1.
          6    2    1    2  501    0  0.24160467178E+02  0.22062602607E+02 -0.21057572307E+03  0.27150604760E+03  0.16823469359E+03 0.  0.
         24    2    3    3    0    0  0.49165204370E+02  0.34968837915E+02 -0.21908109405E+03  0.24173627891E+03  0.82461298968E+02 0.  0.
         -6    2    1    2    0  502 -0.24160467178E+02 -0.22062602607E+02  0.12813148609E+03  0.21686600493E+03  0.17187989923E+03 0.  0.
        -24    2    5    5    0    0  0.50570615914E+02 -0.23763809509E+02  0.92778007065E+02  0.13404337901E+03  0.78979510165E+02 0.  0.
          5    1    3    3  501    0 -0.25004737191E+02 -0.12906235308E+02  0.85053709792E+01  0.29769768681E+02  0.47000000000E+01 0. -1.
        -11    1    4    4    0    0  0.11031829566E+02  0.29455568757E+02 -0.19219839089E+03  0.19475511099E+03  0.00000000000E+00 0.  1.
         12    1    4    4    0    0  0.38133374804E+02  0.55132691580E+01 -0.26882703160E+02  0.46981167928E+02  0.00000000000E+00 0. -1.
         -5    1    5    5    0  502 -0.74731083093E+02  0.17012069021E+01  0.35353479026E+02  0.82822625921E+02  0.47000000000E+01 0.  1.
         13    1    6    6    0    0  0.55257619758E+02  0.26198697521E+00  0.22569094157E+02  0.59689506529E+02  0.00000000000E+00 0. -1.
        -14    1    6    6    0    0 -0.46870038441E+01 -0.24025796484E+02  0.70208912908E+02  0.74353872485E+02  0.00000000000E+00 0.  1.
</event>
<event>
12    1  0.8344842E-002  0.1761797E+03  0.7818608E-02  0.1173838E+00
         21   -1    0    0  503  502  0.00000000000E+00  0.00000000000E+00  0.17022804971E+03  0.17022804971E+03  0.00000000000E+00 0.  1.
         21   -1    0    0  501  503 -0.00000000000E+00 -0.00000000000E+00 -0.27754593997E+03  0.27754593997E+03  0.00000000000E+00 0.  1.
          6    2    1    2  501    0 -0.81282244930E+01 -0.39062207278E+02 -0.19002831375E+03  0.25314538797E+03  0.16241891316E+03 0.  0.
         24    2    3    3    0    0 -0.17041622198E+01 -0.74271802237E+02 -0.73018735636E+02  0.13069410981E+03  0.78930411175E+02 0.  0.
         -6    2    1    2    0  502  0.81282244930E+01  0.39062207278E+02  0.82710423489E+02  0.19462860171E+03  0.17160231461E+03 0.  0.
        -24    2    5    5    0    0 -0.93009363298E+01 -0.34843987941E+02  0.80307738042E+02  0.11851182146E+03  0.79341717424E+02 0.  0.
          5    1    3    3  501    0 -0.64240622732E+01  0.35209594959E+02 -0.11700957812E+03  0.12245127817E+03  0.47000000000E+01 0. -1.
        -13    1    4    4    0    0  0.28131648203E+02 -0.69689705820E+02 -0.65244845314E+02  0.99523537759E+02  0.00000000000E+00 0.  1.
         14    1    4    4    0    0 -0.29835810423E+02 -0.45820964170E+01 -0.77738903222E+01  0.31170572050E+02  0.00000000000E+00 0. -1.
         -5    1    5    5    0  502  0.17429160823E+02  0.73906195219E+02  0.24026854470E+01  0.76116780253E+02  0.47000000000E+01 0.  1.
         13    1    6    6    0    0  0.19478980985E+02 -0.49625497067E+02  0.60227600727E+02  0.80433106049E+02  0.00000000000E+00 0. -1.
        -14    1    6    6    0    0 -0.28779917314E+02  0.14781509126E+02  0.20080137315E+02  0.38078715410E+02  0.00000000000E+00 0.  1.
</event>
<event>
12    1  0.8344842E-002  0.1771651E+03  0.7818608E-02  0.1171442E+00
         21   -1    0    0  501  502  0.00000000000E+00  0.00000000000E+00  0.15709586688E+03  0.15709586688E+03  0.00000000000E+00 0.  1.
         21   -1    0    0  502  503 -0.00000000000E+00 -0.00000000000E+00 -0.20940285167E+03  0.20940285167E+03  0.00000000000E+00 0.  1.
         -6    2    1    2    0  503  0.22081780801E+02  0.13959015841E+02 -0.72440873782E+02  0.18819327445E+03  0.17171653731E+03 0.  0.
        -24    2    3    3    0    0  0.26734878028E+02 -0.53992033587E+02 -0.59393801366E+01  0.92885692957E+02  0.70445598341E+02 0.  0.
          6    2    1    2  501    0 -0.22081780801E+02 -0.13959015841E+02  0.20133888987E+02  0.17830544410E+03  0.17522841877E+03 0.  0.
         24    2    5    5    0    0  0.44187497653E+02 -0.35992235644E+02 -0.22060151114E+02  0.96577192797E+02  0.74783206175E+02 0.  0.
          5    1    5    5  501    0 -0.66269278453E+02  0.22033219803E+02  0.42194040101E+02  0.81728251307E+02  0.47000000000E+01 0. -1.
        -13    1    6    6    0    0  0.14632835744E+02 -0.49997788436E+02  0.73279400121E+01  0.52607959808E+02  0.00000000000E+00 0.  1.
         14    1    6    6    0    0  0.29554661909E+02  0.14005552792E+02 -0.29388091126E+02  0.43969232988E+02  0.00000000000E+00 0. -1.
         -5    1    3    3    0  503 -0.46530972270E+01  0.67951049428E+02 -0.66501493645E+02  0.95307581489E+02  0.47000000000E+01 0.  1.
         13    1    4    4    0    0 -0.36987196170E+01 -0.58529022749E+02  0.78470489901E+01  0.59168430845E+02  0.00000000000E+00 0. -1.
        -14    1    4    4    0    0  0.30433597645E+02  0.45369891624E+01 -0.13786429127E+02  0.33717262112E+02  0.00000000000E+00 0.  1.
</event>
<event>
12    1  0.8344842E-002  0.2350108E+03  0.7818608E-02  0.1124580E+00
         21   -1    0    0  501  502  0.00000000000E+00  0.00000000000E+00  0.31183908336E+03  0.31183908336E+03  0.00000000000E+00 0. -1.
         21   -1    0    0  502  503 -0.00000000000E+00 -0.00000000000E+00 -0.17283518379E+03  0.17283518379E+03  0.00000000000E+00 0.  1.
         -6    2    1    2    0  503  0.52873028001E+02  0.13943320839E+03  0.95437777819E+02  0.25365024451E+03  0.18163947922E+03 0.  0.
        -24    2    3    3    0    0  0.10073122132E+03  0.93086529933E+02  0.98695853860E+02  0.18678376313E+03  0.79595361639E+02 0.  0.
          6    2    1    2  501    0 -0.52873028001E+02 -0.13943320839E+03  0.43566121759E+02  0.23102402264E+03  0.17098805625E+03 0.  0.
         24    2    5    5    0    0 -0.74496122552E+02 -0.10051804336E+03 -0.25557927170E+02  0.14867007660E+03  0.76131693273E+02 0.  0.
          5    1    5    5  501    0  0.21623094552E+02 -0.38915165034E+02  0.69124048928E+02  0.82353946037E+02  0.47000000000E+01 0. -1.
        -11    1    6    6    0    0 -0.34660794184E+02 -0.31808925673E+00  0.83172057838E+01  0.35646146303E+02  0.00000000000E+00 0.  1.
         12    1    6    6    0    0 -0.39835328369E+02 -0.10019995410E+03 -0.33875132953E+02  0.11302393030E+03  0.00000000000E+00 0. -1.
         -5    1    3    3    0  503 -0.47858193324E+02  0.46346678459E+02 -0.32580760416E+01  0.66866481378E+02  0.47000000000E+01 0.  1.
         13    1    4    4    0    0  0.28804615104E+02  0.70739001662E+02  0.22450142221E+02  0.79609805258E+02  0.00000000000E+00 0. -1.
        -14    1    4    4    0    0  0.71926606220E+02  0.22347528271E+02  0.76245711639E+02  0.10717395787E+03  0.00000000000E+00 0.  1.
</event>
<event>
12    1  0.8344842E-002  0.1899780E+03  0.7818608E-02  0.1159811E+00
         21   -1    0    0  503  502  0.00000000000E+00  0.00000000000E+00  0.12285044519E+03  0.12285044519E+03  0.00000000000E+00 0. -1.
         21   -1    0    0  501  503 -0.00000000000E+00 -0.00000000000E+00 -0.12345427060E+04  0.12345427060E+04  0.00000000000E+00 0. -1.
          6    2    1    2  501    0  0.78530140999E+02 -0.19406822880E+02 -0.11491009062E+04  0.11637671306E+04  0.16546127622E+03 0.  0.
         24    2    3    3    0    0  0.58243050791E+02 -0.65246350405E+01 -0.11251554771E+04  0.11295181837E+04  0.80010348057E+02 0.  0.
         -6    2    1    2    0  502 -0.78530140999E+02  0.19406822880E+02  0.37408645412E+02  0.19362602053E+03  0.17189537880E+03 0.  0.
        -24    2    5    5    0    0 -0.10602052240E+03  0.54859432139E+02  0.15932684235E+02  0.14366688241E+03  0.78335267972E+02 0.  0.
          5    1    3    3  501    0  0.20287090208E+02 -0.12882187839E+02 -0.23945429064E+02  0.34248946928E+02  0.47000000000E+01 0. -1.
        -13    1    4    4    0    0  0.64312111300E+02  0.19212470415E+02 -0.60939417172E+03  0.61307945913E+03  0.00000000000E+00 0.  1.
         14    1    4    4    0    0 -0.60690605085E+01 -0.25737105456E+02 -0.51576130539E+03  0.51643872457E+03  0.00000000000E+00 0. -1.
         -5    1    5    5    0  502  0.27490381405E+02 -0.35452609259E+02  0.21475961178E+02  0.49959138119E+02  0.47000000000E+01 0.  1.
         11    1    6    6    0    0 -0.86980022529E+02  0.66550882341E+02  0.34276336513E+02  0.11475805638E+03  0.00000000000E+00 0. -1.
        -12    1    6    6    0    0 -0.19040499875E+02 -0.11691450202E+02 -0.18343652279E+02  0.28908826027E+02  0.00000000000E+00 0.  1.
</event>
<event>
12    1  0.8344842E-002  0.1936344E+03  0.7818608E-02  0.1155359E+00
         21   -1    0    0  501  502  0.00000000000E+00  0.00000000000E+00  0.51963994061E+02  0.51963994061E+02  0.00000000000E+00 0. -1.
         21   -1    0    0  502  503 -0.00000000000E+00 -0.00000000000E+00 -0.10365933579E+04  0.10365933579E+04  0.00000000000E+00 0. -1.
         -6    2    1    2    0  503  0.86806282394E+02  0.13453786086E+02 -0.79291627408E+03  0.81607216190E+03  0.17187559660E+03 0.  0.
        -24    2    3    3    0    0 -0.30065643027E+01 -0.22314421535E+02 -0.51655172018E+03  0.52324940192E+03  0.80357228407E+02 0.  0.
          6    2    1    2  501    0 -0.86806282394E+02 -0.13453786086E+02 -0.19171308977E+03  0.27248519006E+03  0.17256284361E+03 0.  0.
         24    2    5    5    0    0 -0.30944828469E+02 -0.69562075259E+02 -0.14097063511E+03  0.17832825270E+03  0.78305689617E+02 0.  0.
          5    1    5    5  501    0 -0.55861453925E+02  0.56108289173E+02 -0.50742454659E+02  0.94156937362E+02  0.47000000000E+01 0. -1.
        -11    1    6    6    0    0 -0.16658769492E+02 -0.82881473398E+01 -0.10337081270E+03  0.10503205656E+03  0.00000000000E+00 0.  1.
         12    1    6    6    0    0 -0.14286058977E+02 -0.61273927919E+02 -0.37599822406E+02  0.73296196140E+02  0.00000000000E+00 0. -1.
         -5    1    3    3    0  503  0.89812846697E+02  0.35768207621E+02 -0.27636455390E+03  0.29282275998E+03  0.47000000000E+01 0.  1.
         11    1    4    4    0    0  0.26263973197E+02  0.12595319915E+02 -0.32721680271E+03  0.32851069137E+03  0.00000000000E+00 0. -1.
        -12    1    4    4    0    0 -0.29270537499E+02 -0.34909741450E+02 -0.18933491747E+03  0.19473871055E+03  0.00000000000E+00 0.  1.
</event>
<event>
12    1  0.8344842E-002  0.1968933E+03  0.7818608E-02  0.1154186E+00
         21   -1    0    0  501  502  0.00000000000E+00  0.00000000000E+00  0.49818572627E+03  0.49818572627E+03  0.00000000000E+00 0.  1.
         21   -1    0    0  502  503 -0.00000000000E+00 -0.00000000000E+00 -0.31487039792E+03  0.31487039792E+03  0.00000000000E+00 0.  1.
         -6    2    1    2    0  503 -0.97001874531E+02  0.32419322604E+02 -0.26388853997E+03  0.32442715930E+03  0.15860467842E+03 0.  0.
        -24    2    3    3    0    0 -0.56568726087E+02 -0.35948110483E+02 -0.17971821480E+03  0.20860108693E+03  0.81996886030E+02 0.  0.
          6    2    1    2  501    0  0.97001874531E+02 -0.32419322604E+02  0.44720386832E+03  0.48862896489E+03  0.16824562210E+03 0.  0.
         24    2    5    5    0    0  0.20545370819E+02  0.32686466221E+02  0.28785688818E+03  0.30022007238E+03  0.76026222141E+02 0.  0.
          5    1    5    5  501    0  0.76456503712E+02 -0.65105788825E+02  0.15934698014E+03  0.18840889251E+03  0.47000000000E+01 0. -1.
        -13    1    6    6    0    0  0.21630168353E+02 -0.18980431675E+02  0.15534044466E+03  0.15798346343E+03  0.00000000000E+00 0.  1.
         14    1    6    6    0    0 -0.10847975333E+01  0.51666897896E+02  0.13251644352E+03  0.14223660895E+03  0.00000000000E+00 0. -1.
         -5    1    3    3    0  503 -0.40433148445E+02  0.68367433087E+02 -0.84170325178E+02  0.11582607237E+03  0.47000000000E+01 0.  1.
         11    1    4    4    0    0 -0.22605960834E+02  0.17847576295E+02 -0.15981292056E+02  0.32938839394E+02  0.00000000000E+00 0. -1.
        -12    1    4    4    0    0 -0.33962765253E+02 -0.53795686778E+02 -0.16373692274E+03  0.17566224753E+03  0.00000000000E+00 0.  1.
</event>
<event>
12    1  0.8344842E-002  0.2154110E+03  0.7818608E-02  0.1137790E+00
         21   -1    0    0  503  502  0.00000000000E+00  0.00000000000E+00  0.21282979301E+04  0.21282979301E+04  0.00000000000E+00 0.  1.
         21   -1    0    0  501  503 -0.00000000000E+00 -0.00000000000E+00 -0.50336340819E+02  0.50336340819E+02  0.00000000000E+00 0.  1.
          6    2    1    2  501    0  0.12350616358E+03 -0.20121747979E+02  0.21790148392E+03  0.30640325260E+03  0.17533750120E+03 0.  0.
         24    2    3    3    0    0  0.11637829055E+03 -0.54616344680E+02  0.94947443030E+02  0.17841704262E+03  0.79314390507E+02 0.  0.
         -6    2    1    2    0  502 -0.12350616358E+03  0.20121747979E+02  0.18600601053E+04  0.18722310183E+04  0.17253038343E+03 0.  0.
        -24    2    5    5    0    0 -0.98943462232E+02 -0.30153439132E+02  0.16371914875E+04  0.16423975317E+04  0.79841385426E+02 0.  0.
          5    1    3    3  501    0  0.71278730303E+01  0.34494596701E+02  0.12295404089E+03  0.12798620999E+03  0.47000000000E+01 0. -1.
        -11    1    4    4    0    0  0.80551584383E+02 -0.25781440304E+02  0.10132823989E+03  0.13198731988E+03  0.00000000000E+00 0.  1.
         12    1    4    4    0    0  0.35826706164E+02 -0.28834904376E+02 -0.63807968556E+01  0.46429722737E+02  0.00000000000E+00 0. -1.
         -5    1    5    5    0  502 -0.24562701345E+02  0.50275187110E+02  0.22286861785E+03  0.22983348659E+03  0.47000000000E+01 0.  1.
         13    1    6    6    0    0 -0.14863275380E+02 -0.28000989744E+02  0.17922712752E+03  0.18200916356E+03  0.00000000000E+00 0. -1.
        -14    1    6    6    0    0 -0.84080186852E+02 -0.21524493881E+01  0.14579643600E+04  0.14603883681E+04  0.00000000000E+00 0.  1.
</event>
<event>
12    1  0.8344842E-002  0.1871953E+03  0.7818608E-02  0.1163630E+00
         21   -1    0    0  501  502  0.00000000000E+00  0.00000000000E+00  0.11812044601E+03  0.11812044601E+03  0.00000000000E+00 0.  1.
         21   -1    0    0  502  503 -0.00000000000E+00 -0.00000000000E+00 -0.37463581254E+03  0.37463581254E+03  0.00000000000E+00 0.  1.
         -6    2    1    2    0  503 -0.49923166248E+01  0.35561535224E+02 -0.25528606941E+03  0.31656447458E+03  0.18371865262E+03 0.  0.
        -24    2    3    3    0    0  0.34104070970E+02  0.41607021617E+02 -0.51853794192E+02  0.10926793330E+03  0.79727243589E+02 0.  0.
          6    2    1    2  501    0  0.49923166248E+01 -0.35561535224E+02 -0.12292971220E+01  0.17619178396E+03  0.17248909401E+03 0.  0.
         24    2    5    5    0    0 -0.48580827930E+02  0.21873078079E+02 -0.14729027328E+02  0.96359776984E+02  0.78928663914E+02 0.  0.
          5    1    5    5  501    0  0.53573144555E+02 -0.57434613303E+02  0.13499730206E+02  0.79832006980E+02  0.47000000000E+01 0. -1.
        -11    1    6    6    0    0  0.66473328261E+01 -0.22478353288E+02  0.21661380870E+01  0.23540508797E+02  0.00000000000E+00 0.  1.
         12    1    6    6    0    0 -0.55228160756E+02  0.44351431367E+02 -0.16895165415E+02  0.72819268187E+02  0.00000000000E+00 0. -1.
         -5    1    3    3    0  503 -0.39096387595E+02 -0.60454863938E+01 -0.20343227522E+03  0.20729654129E+03  0.47000000000E+01 0.  1.
         13    1    4    4    0    0 -0.35072610817E+01  0.16309841536E+02  0.18919251748E+02  0.25223994488E+02  0.00000000000E+00 0. -1.
        -14    1    4    4    0    0  0.37611332052E+02  0.25297180081E+02 -0.70773045940E+02  0.84043938809E+02  0.00000000000E+00 0.  1.
</event>
<event>
12    1  0.8344842E-002  0.2750517E+03  0.7818608E-02  0.1098594E+00
         21   -1    0    0  503  502  0.00000000000E+00  0.00000000000E+00  0.84941420701E+03  0.84941420701E+03  0.00000000000E+00 0. -1.
         21   -1    0    0  501  503 -0.00000000000E+00 -0.00000000000E+00 -0.89512193477E+02  0.89512193477E+02  0.00000000000E+00 0. -1.
          6    2    1    2  501    0  0.18986202509E+03  0.98527649054E+02  0.33523353569E+03  0.43362996457E+03  0.17291077620E+03 0.  0.
         24    2    3    3    0    0  0.47863345931E+02  0.94762393470E+02  0.15813006196E+03  0.20654951090E+03  0.79917287608E+02 0.  0.
         -6    2    1    2    0  502 -0.18986202509E+03 -0.98527649054E+02  0.42466847784E+03  0.50529643591E+03  0.17095580092E+03 0.  0.
        -24    2    5    5    0    0 -0.18461688152E+03 -0.10934331106E+03  0.43305208164E+03  0.48990602044E+03  0.80215028780E+02 0.  0.
          5    1    3    3  501    0  0.14199867916E+03  0.37652555838E+01  0.17710347373E+03  0.22708045367E+03  0.47000000000E+01 0. -1.
        -11    1    4    4    0    0 -0.17858587686E+02  0.96002022469E+00  0.15849649042E+02  0.23896907075E+02  0.00000000000E+00 0.  1.
         12    1    4    4    0    0  0.65721933618E+02  0.93802373246E+02  0.14228041292E+03  0.18265260383E+03  0.00000000000E+00 0. -1.
         -5    1    5    5    0  502 -0.52451435703E+01  0.10815662002E+02 -0.83836037947E+01  0.15390415465E+02  0.47000000000E+01 0.  1.
         13    1    6    6    0    0 -0.58442060478E+02  0.51798774575E+01  0.11003508734E+03  0.12469974342E+03  0.00000000000E+00 0. -1.
        -14    1    6    6    0    0 -0.12617482104E+03 -0.11452318851E+03  0.32301699430E+03  0.36520627703E+03  0.00000000000E+00 0.  1.
</event>
<event>
12    1  0.8344842E-002  0.1906899E+03  0.7818608E-02  0.1158037E+00
         21   -1    0    0  503  502  0.00000000000E+00  0.00000000000E+00  0.94317031133E+03  0.94317031133E+03  0.00000000000E+00 0.  1.
         21   -1    0    0  501  503 -0.00000000000E+00 -0.00000000000E+00 -0.42055780589E+02  0.42055780589E+02  0.00000000000E+00 0.  1.
          6    2    1    2  501    0  0.21257797858E+02  0.78902879867E+02  0.30580889939E+03  0.36039109148E+03  0.17229363729E+03 0.  0.
         24    2    3    3    0    0  0.58408904192E+02  0.41494343410E+02  0.12107657751E+03  0.16822521509E+03  0.92232341114E+02 0.  0.
         -6    2    1    2    0  502 -0.21257797858E+02 -0.78902879867E+02  0.59530563135E+03  0.62483500044E+03  0.17132549323E+03 0.  0.
        -24    2    5    5    0    0  0.40707457960E+02 -0.89233074948E+02  0.38568461761E+03  0.40595269128E+03  0.80158121860E+02 0.  0.
          5    1    3    3  501    0 -0.37151106334E+02  0.37408536458E+02  0.18473232187E+03  0.19216587639E+03  0.47000000000E+01 0. -1.
        -11    1    4    4    0    0  0.51758022768E+02  0.66406146308E+02  0.11356174097E+03  0.14136809470E+03  0.00000000000E+00 0.  1.
         12    1    4    4    0    0  0.66508814241E+01 -0.24911802898E+02  0.75148365416E+01  0.26857120389E+02  0.00000000000E+00 0. -1.
         -5    1    5    5    0  502 -0.61965255818E+02  0.10330195081E+02  0.20962101375E+03  0.21888230916E+03  0.47000000000E+01 0.  1.
         13    1    6    6    0    0  0.40441313816E+02 -0.18279537057E+02  0.23806158858E+03  0.24216308821E+03  0.00000000000E+00 0. -1.
        -14    1    6    6    0    0  0.26614414363E+00 -0.70953537891E+02  0.14762302903E+03  0.16378960307E+03  0.00000000000E+00 0.  1.
</event>
<event>
12    1  0.8344842E-002  0.1859599E+03  0.7818608E-02  0.1163445E+00
         21   -1    0    0  501  502  0.00000000000E+00  0.00000000000E+00  0.23927462266E+03  0.23927462266E+03  0.00000000000E+00 0.  1.
         21   -1    0    0  502  503 -0.00000000000E+00 -0.00000000000E+00 -0.14461350217E+03  0.14461350217E+03  0.00000000000E+00 0.  1.
         -6    2    1    2    0  503 -0.36201602695E+02 -0.58916926936E+02  0.13527472319E+02  0.18099957748E+03  0.16672160695E+03 0.  0.
        -24    2    3    3    0    0  0.34190404321E+02 -0.66262240446E+02  0.96637120267E+01  0.10996432619E+03  0.80243986989E+02 0.  0.
          6    2    1    2  501    0  0.36201602695E+02  0.58916926936E+02  0.81133648174E+02  0.20288854734E+03  0.17262483442E+03 0.  0.
         24    2    5    5    0    0  0.52651712363E+02  0.41846640390E+02 -0.14311077905E+02  0.10443151851E+03  0.78598924805E+02 0.  0.
          5    1    5    5  501    0 -0.16450109668E+02  0.17070286546E+02  0.95444726079E+02  0.98457028836E+02  0.47000000000E+01 0. -1.
        -13    1    6    6    0    0  0.29713518562E+02  0.63116710689E+02 -0.20141616404E+02  0.72610585075E+02  0.00000000000E+00 0.  1.
         14    1    6    6    0    0  0.22938193801E+02 -0.21270070299E+02  0.58305384988E+01  0.31820933434E+02  0.00000000000E+00 0. -1.
         -5    1    3    3    0  503 -0.70392007017E+02  0.73453135100E+01  0.38637602921E+01  0.71035251291E+02  0.47000000000E+01 0.  1.
         13    1    4    4    0    0 -0.20919888108E+02 -0.29583308196E+02 -0.15141481618E+02  0.39269304907E+02  0.00000000000E+00 0. -1.
        -14    1    4    4    0    0  0.55110292429E+02 -0.36678932250E+02  0.24805193645E+02  0.70695021284E+02  0.00000000000E+00 0.  1.
</event>
<event>
12    1  0.8344842E-002  0.1985605E+03  0.7818608E-02  0.1151132E+00
         21   -1    0    0  503  502  0.00000000000E+00  0.00000000000E+00  0.16620484447E+03  0.16620484447E+03  0.00000000000E+00 0. -1.
         21   -1    0    0  501  503 -0.00000000000E+00 -0.00000000000E+00 -0.27580461780E+03  0.27580461780E+03  0.00000000000E+00 0.  1.
          6    2    1    2  501    0 -0.71909221997E+02 -0.62832302659E+02 -0.13840274416E+03  0.24137079555E+03  0.17316381519E+03 0.  0.
         24    2    3    3    0    0 -0.69180806235E+02  0.31357558579E+01 -0.13968312955E+03  0.17516688038E+03  0.79851376869E+02 0.  0.
         -6    2    1    2    0  502  0.71909221997E+02  0.62832302659E+02  0.28802970831E+02  0.20063866672E+03  0.17409028976E+03 0.  0.
        -24    2    5    5    0    0  0.11749374386E+02  0.27461993306E+02 -0.45206338661E+02  0.98806776136E+02  0.82625402150E+02 0.  0.
          5    1    3    3  501    0 -0.27284157624E+01 -0.65968058517E+02  0.12803853887E+01  0.66203915170E+02  0.47000000000E+01 0. -1.
        -13    1    4    4    0    0 -0.53558006194E+02 -0.34875837935E+02 -0.75071962752E+02  0.98593020496E+02  0.00000000000E+00 0.  1.
         14    1    4    4    0    0 -0.15622800041E+02  0.38011593793E+02 -0.64611166794E+02  0.76573859889E+02  0.00000000000E+00 0. -1.
         -5    1    5    5    0  502  0.60159847612E+02  0.35370309353E+02  0.74009309492E+02  0.10183189058E+03  0.47000000000E+01 0.  1.
         11    1    6    6    0    0 -0.14758333388E+02  0.11532238295E+02  0.19531924174E+02  0.27060986427E+02  0.00000000000E+00 0. -1.
        -12    1    6    6    0    0  0.26507707774E+02  0.15929755011E+02 -0.64738262835E+02  0.71745789709E+02  0.00000000000E+00 0.  1.
</event>
<event>
12    1  0.8344842E-002  0.2187230E+03  0.7818608E-02  0.1135112E+00
         21   -1    0    0  501  502  0.00000000000E+00  0.00000000000E+00  0.15964052634E+04  0.15964052634E+04  0.00000000000E+00 0. -1.
         21   -1    0    0  502  503 -0.00000000000E+00 -0.00000000000E+00 -0.58842219563E+02  0.58842219563E+02  0.00000000000E+00 0. -1.
         -6    2    1    2    0  503  0.76385355562E+02  0.10902107642E+03  0.18574414893E+03  0.28584832028E+03  0.17172086564E+03 0.  0.
        -24    2    3    3    0    0 -0.18850304171E+02  0.59059134107E+02  0.36258388100E+02  0.10163618915E+03  0.71916124397E+02 0.  0.
          6    2    1    2  501    0 -0.76385355562E+02 -0.10902107642E+03  0.13518188950E+04  0.13693991627E+04  0.17354948713E+03 0.  0.
         24    2    5    5    0    0 -0.37992993248E+01 -0.18250894708E+01  0.33082388478E+03  0.34021860715E+03  0.79287403066E+02 0.  0.
          5    1    5    5  501    0 -0.72586056237E+02 -0.10719598695E+03  0.10209950102E+04  0.10291805556E+04  0.47000000000E+01 0. -1.
        -13    1    6    6    0    0  0.36374141988E+02 -0.99175478733E+01  0.13585348128E+03  0.14098795812E+03  0.00000000000E+00 0.  1.
         14    1    6    6    0    0 -0.40173441312E+02  0.80924584025E+01  0.19497040350E+03  0.19923064902E+03  0.00000000000E+00 0. -1.
         -5    1    3    3    0  503  0.95235659734E+02  0.49961942317E+02  0.14948576083E+03  0.18421213113E+03  0.47000000000E+01 0.  1.
         11    1    4    4    0    0 -0.44678605011E+00  0.27826834774E+02 -0.20306957706E+02  0.34451485927E+02  0.00000000000E+00 0. -1.
        -12    1    4    4    0    0 -0.18403518121E+02  0.31232299333E+02  0.56565345806E+02  0.67184703222E+02  0.00000000000E+00 0.  1.
</event>
<event>
12    1  0.8344842E-002  0.1725942E+03  0.7818608E-02  0.1175267E+00
         21   -1    0    0  501  502  0.00000000000E+00  0.00000000000E+00  0.37991015173E+03  0.37991015173E+03  0.00000000000E+00 0.  1.
         21   -1    0    0  502  503 -0.00000000000E+00 -0.00000000000E+00 -0.47858395179E+03  0.47858395179E+03  0.00000000000E+00 0.  1.
         -6    2    1    2    0  503 -0.31122802693E-01  0.32861630124E+01 -0.44194265286E+03  0.47444921056E+03  0.17256287302E+03 0.  0.
        -24    2    3    3    0    0 -0.35268716640E+02  0.53364293647E+02 -0.34266019087E+03  0.35770759653E+03  0.80293760634E+02 0.  0.
          6    2    1    2  501    0  0.31122802693E-01 -0.32861630124E+01  0.34326885280E+03  0.38404489297E+03  0.17218064548E+03 0.  0.
         24    2    5    5    0    0  0.64879854271E+02 -0.17622942608E+02  0.18626014735E+03  0.21350245013E+03  0.79815350187E+02 0.  0.
          5    1    5    5  501    0 -0.64848731468E+02  0.14336779596E+02  0.15700870545E+03  0.17054244284E+03  0.47000000000E+01 0. -1.
        -11    1    6    6    0    0  0.18296370993E+02 -0.40713830214E+02  0.12726839193E+03  0.13486888725E+03  0.00000000000E+00 0.  1.
         12    1    6    6    0    0  0.46583483278E+02  0.23090887606E+02  0.58991755413E+02  0.78633562881E+02  0.00000000000E+00 0. -1.
         -5    1    3    3    0  503  0.35237593838E+02 -0.50078130634E+02 -0.99282461991E+02  0.11674161403E+03  0.47000000000E+01 0.  1.
         11    1    4    4    0    0 -0.97007141259E+01  0.23840159998E+02 -0.19746171065E+02  0.32440227419E+02  0.00000000000E+00 0. -1.
        -12    1    4    4    0    0 -0.25568002515E+02  0.29524133649E+02 -0.32291401980E+03  0.32526736911E+03  0.00000000000E+00 0.  1.
</event>
<event>
12    1  0.8344842E-002  0.1927548E+03  0.7818608E-02  0.1157570E+00
         21   -1    0    0  501  502  0.00000000000E+00  0.00000000000E+00  0.35609730326E+03  0.35609730326E+03  0.00000000000E+00 0.  1.
         21   -1    0    0  502  503 -0.00000000000E+00 -0.00000000000E+00 -0.10700486444E+03  0.10700486444E+03  0.00000000000E+00 0. -1.
         -6    2    1    2    0  503 -0.71545953278E+02  0.48604525773E+02  0.17901154236E+03  0.25800280461E+03  0.16443567598E+03 0.  0.
        -24    2    3    3    0    0 -0.67680430068E+01 -0.26933440471E+02  0.88491788128E+02  0.12339939489E+03  0.81396544586E+02 0.  0.
          6    2    1    2  501    0  0.71545953278E+02 -0.48604525773E+02  0.70080896472E+02  0.20509936309E+03  0.17225908781E+03 0.  0.
         24    2    5    5    0    0  0.47527710826E+02 -0.35859658932E+01 -0.22878944651E+02  0.98952442432E+02  0.83644469675E+02 0.  0.
          5    1    5    5  501    0  0.24018242453E+02 -0.45018559880E+02  0.92959841123E+02  0.10614692066E+03  0.47000000000E+01 0. -1.
        -11    1    6    6    0    0  0.94201305617E+01  0.36230314638E+02  0.39734516174E+01  0.37645223818E+02  0.00000000000E+00 0.  1.
         12    1    6    6    0    0  0.38107580264E+02 -0.39816280531E+02 -0.26852396268E+02  0.61307218614E+02  0.00000000000E+00 0. -1.
         -5    1    3    3    0  503 -0.64777910271E+02  0.75537966244E+02  0.90519754228E+02  0.13460340972E+03  0.47000000000E+01 0.  1.
         13    1    4    4    0    0  0.87073197732E+01  0.24196178564E+01 -0.13443723571E+02  0.16198940449E+02  0.00000000000E+00 0. -1.
        -14    1    4    4    0    0 -0.15475362780E+02 -0.29353058327E+02  0.10193551170E+03  0.10720045444E+03  0.00000000000E+00 0.  1.
</event>
<event>
12    1  0.8344842E-002  0.1729478E+03  0.7818608E-02  0.1174953E+00
         21   -1    0    0  503  502  0.00000000000E+00  0.00000000000E+00  0.14690823474E+03  0.14690823474E+03  0.00000000000E+00 0. -1.
         21   -1    0    0  501  503 -0.00000000000E+00 -0.00000000000E+00 -0.86069538967E+03  0.86069538967E+03  0.00000000000E+00 0. -1.
          6    2    1    2  501    0 -0.69736536248E+01 -0.95165404621E+01 -0.79717656678E+03  0.81560170754E+03  0.17197811004E+03 0.  0.
         24    2    3    3    0    0 -0.27592708829E+02  0.57177116450E+02 -0.48859314192E+03  0.49918582708E+03  0.80203811628E+02 0.  0.
         -6    2    1    2    0  502  0.69736536248E+01  0.95165404621E+01  0.83389411838E+02  0.19200191687E+03  0.17254490920E+03 0.  0.
        -24    2    5    5    0    0 -0.49436903269E+02 -0.80483097477E+01  0.95888502282E+02  0.13142971076E+03  0.74634987137E+02 0.  0.
          5    1    3    3  501    0  0.20619055204E+02 -0.66693656912E+02 -0.30858342486E+03  0.31641588046E+03  0.47000000000E+01 0. -1.
        -13    1    4    4    0    0 -0.49126368157E+01  0.72781938319E+02 -0.39275790299E+03  0.39947479884E+03  0.00000000000E+00 0.  1.
         14    1    4    4    0    0 -0.22680072013E+02 -0.15604821869E+02 -0.95835238927E+02  0.99711028238E+02  0.00000000000E+00 0. -1.
         -5    1    5    5    0  502  0.56410556894E+02  0.17564850210E+02 -0.12499090444E+02  0.60572206117E+02  0.47000000000E+01 0.  1.
         13    1    6    6    0    0 -0.53122137442E+02  0.22394844506E+02  0.50425277590E+02  0.76591116762E+02  0.00000000000E+00 0. -1.
        -14    1    6    6    0    0  0.36852341725E+01 -0.30443154254E+02  0.45463224693E+02  0.54838593994E+02  0.00000000000E+00 0.  1.
</event>
<event>
12    1  0.8344842E-002  0.1926292E+03  0.7818608E-02  0.1156536E+00
         21   -1    0    0  503  502  0.00000000000E+00  0.00000000000E+00  0.26350477413E+03  0.26350477413E+03  0.00000000000E+00 0. -1.
         21   -1    0    0  501  503 -0.00000000000E+00 -0.00000000000E+00 -0.16022195447E+03  0.16022195447E+03  0.00000000000E+00 0. -1.
          6    2    1    2  501    0 -0.66335269628E+02  0.48268682340E+02 -0.24465144136E+02  0.19417662742E+03  0.17428650454E+03 0.  0.
         24    2    3    3    0    0 -0.85028831453E+02  0.44949605443E+02  0.35727851419E+02  0.13088561511E+03  0.81266202491E+02 0.  0.
         -6    2    1    2    0  502  0.66335269628E+02 -0.48268682340E+02  0.12774796380E+03  0.22955010119E+03  0.17217279985E+03 0.  0.
        -24    2    5    5    0    0  0.11187665474E+03 -0.41588929858E+02  0.10502597572E+03  0.17800385405E+03  0.80055552700E+02 0.  0.
          5    1    3    3  501    0  0.18693561825E+02  0.33190768974E+01 -0.60192995556E+02  0.63291012309E+02  0.47000000000E+01 0. -1.
        -13    1    4    4    0    0  0.13539533186E+01  0.16210172568E+01  0.34167478260E+02  0.34232695734E+02  0.00000000000E+00 0.  1.
         14    1    4    4    0    0 -0.86382784771E+02  0.43328588186E+02  0.15603731592E+01  0.96652919374E+02  0.00000000000E+00 0. -1.
         -5    1    5    5    0  502 -0.45541385116E+02 -0.66797524820E+01  0.22721988077E+02  0.51546247135E+02  0.47000000000E+01 0.  1.
         13    1    6    6    0    0  0.16902257002E+02 -0.33821053138E+02  0.63832116296E+02  0.74189547767E+02  0.00000000000E+00 0. -1.
        -14    1    6    6    0    0  0.94974397742E+02 -0.77678767199E+01  0.41193859425E+02  0.10381430629E+03  0.00000000000E+00 0.  1.
</event>
<event>
12    1  0.8344842E-002  0.1770776E+03  0.7818608E-02  0.1170769E+00
         21   -1    0    0  503  502  0.00000000000E+00  0.00000000000E+00  0.21328299255E+03  0.21328299255E+03  0.00000000000E+00 0. -1.
         21   -1    0    0  501  503 -0.00000000000E+00 -0.00000000000E+00 -0.31121259706E+03  0.31121259706E+03  0.00000000000E+00 0. -1.
          6    2    1    2  501    0  0.20860037782E+02  0.35059574524E+02 -0.23968681649E+03  0.29800374762E+03  0.17231409882E+03 0.  0.
         24    2    3    3    0    0 -0.26964665030E+02  0.71235323570E+02 -0.11455702841E+03  0.15916772606E+03  0.80059276634E+02 0.  0.
         -6    2    1    2    0  502 -0.20860037782E+02 -0.35059574524E+02  0.14175721198E+03  0.22649184199E+03  0.17186952143E+03 0.  0.
        -24    2    5    5    0    0 -0.36340466684E+02 -0.50523567557E+02  0.16530650791E+03  0.19400433519E+03  0.80238270895E+02 0.  0.
          5    1    3    3  501    0  0.47824702813E+02 -0.36175749046E+02 -0.12512978808E+03  0.13883602156E+03  0.47000000000E+01 0. -1.
        -11    1    4    4    0    0 -0.43629865001E+02  0.25356601638E+02 -0.23097484063E+02  0.55497893083E+02  0.00000000000E+00 0.  1.
         12    1    4    4    0    0  0.16665199971E+02  0.45878721932E+02 -0.91459544352E+02  0.10366983298E+03  0.00000000000E+00 0. -1.
         -5    1    5    5    0  502  0.15480428902E+02  0.15463993033E+02 -0.23549295929E+02  0.32487506803E+02  0.47000000000E+01 0.  1.
         11    1    6    6    0    0 -0.28811653342E+02 -0.19486928949E+02  0.11078800499E+02  0.36504678997E+02  0.00000000000E+00 0. -1.
        -12    1    6    6    0    0 -0.75288133427E+01 -0.31036638608E+02  0.15422770741E+03  0.15749965619E+03  0.00000000000E+00 0.  1.
</event>
<event>
12    1  0.8344842E-002  0.1943581E+03  0.7818608E-02  0.1154869E+00
         21   -1    0    0  501  502  0.00000000000E+00  0.00000000000E+00  0.16615903378E+04  0.16615903378E+04  0.00000000000E+00 0.  1.
         21   -1    0    0  502  503 -0.00000000000E+00 -0.00000000000E+00 -0.23006744664E+02  0.23006744664E+02  0.00000000000E+00 0.  1.
         -6    2    1    2    0  503 -0.42041061617E+02 -0.79664168184E+02  0.70258115982E+03  0.72862866870E+03  0.17077944889E+03 0.  0.
        -24    2    3    3    0    0 -0.52958803816E+02  0.71406049185E+01  0.48207401986E+03  0.49135297567E+03  0.78592384731E+02 0.  0.
          6    2    1    2  501    0  0.42041061617E+02  0.79664168184E+02  0.93600243329E+03  0.95596841373E+03  0.17222433738E+03 0.  0.
         24    2    5    5    0    0  0.63734332399E+02  0.63438932643E+02  0.36387336484E+03  0.38317908315E+03  0.79597869478E+02 0.  0.
          5    1    5    5  501    0 -0.21693270782E+02  0.16225235541E+02  0.57212906845E+03  0.57278933058E+03  0.47000000000E+01 0. -1.
        -13    1    6    6    0    0 -0.16920983446E+02  0.24433834513E+02  0.72918677678E+02  0.78743034639E+02  0.00000000000E+00 0.  1.
         14    1    6    6    0    0  0.80655315845E+02  0.39005098130E+02  0.29095468716E+03  0.30443604851E+03  0.00000000000E+00 0. -1.
         -5    1    3    3    0  503  0.10917742199E+02 -0.86804773103E+02  0.22050713996E+03  0.23727569302E+03  0.47000000000E+01 0.  1.
         11    1    4    4    0    0  0.14849055008E+02  0.17086877232E+02  0.68623995107E+02  0.72261390193E+02  0.00000000000E+00 0. -1.
        -12    1    4    4    0    0 -0.67807858824E+02 -0.99462723134E+01  0.41345002475E+03  0.41909158548E+03  0.00000000000E+00 0.  1.
</event>
<event>
12    1  0.8344842E-002  0.2528657E+03  0.7818608E-02  0.1111697E+00
         21   -1    0    0  501  502  0.00000000000E+00  0.00000000000E+00  0.89269709625E+02  0.89269709625E+02  0.00000000000E+00 0. -1.
         21   -1    0    0  502  503 -0.00000000000E+00 -0.00000000000E+00 -0.72490545959E+03  0.72490545959E+03  0.00000000000E+00 0. -1.
         -6    2    1    2    0  503  0.58473926322E+02 -0.17512538904E+03 -0.37114041715E+03  0.44909494768E+03  0.17278009389E+03 0.  0.
        -24    2    3    3    0    0  0.73627807110E+02 -0.11934505056E+03 -0.35371140661E+03  0.38853962858E+03  0.78657413724E+02 0.  0.
          6    2    1    2  501    0 -0.58473926322E+02  0.17512538904E+03 -0.26449533281E+03  0.36508022153E+03  0.17099030712E+03 0.  0.
         24    2    5    5    0    0 -0.13865992155E+02  0.16145583631E+03 -0.12981297667E+03  0.22246833031E+03  0.79878008629E+02 0.  0.
          5    1    5    5  501    0 -0.44607934167E+02  0.13669552727E+02 -0.13468235614E+03  0.14261189122E+03  0.47000000000E+01 0. -1.
        -11    1    6    6    0    0  0.78055833152E+00  0.56332882313E+01  0.10712868659E+02  0.12128840114E+02  0.00000000000E+00 0.  1.
         12    1    6    6    0    0 -0.14646550487E+02  0.15582254808E+03 -0.14052584533E+03  0.21033949020E+03  0.00000000000E+00 0. -1.
         -5    1    3    3    0  503 -0.15153880788E+02 -0.55780338475E+02 -0.17429010538E+02  0.60555319103E+02  0.47000000000E+01 0.  1.
         13    1    4    4    0    0  0.75757533566E+01 -0.86449864898E+02 -0.18118261121E+03  0.20089327959E+03  0.00000000000E+00 0. -1.
        -14    1    4    4    0    0  0.66052053753E+02 -0.32895185662E+02 -0.17252879540E+03  0.18764634898E+03  0.00000000000E+00 0.  1.
</event>
<event>
12    1  0.8344842E-002  0.1803412E+03  0.7818608E-02  0.1169069E+00
         21   -1    0    0  501  502  0.00000000000E+00  0.00000000000E+00  0.46765411829E+02  0.46765411829E+02  0.00000000000E+00 0. -1.
         21   -1    0    0  502  503 -0.00000000000E+00 -0.00000000000E+00 -0.33515810080E+04  0.33515810080E+04  0.00000000000E+00 0. -1.
         -6    2    1    2    0  503  0.10049561222E+02 -0.20064572786E+02 -0.31659903998E+04  0.31707604423E+04  0.17240356758E+03 0.  0.
        -24    2    3    3    0    0 -0.12146157714E+02 -0.63675280010E+02 -0.27426786084E+04  0.27446037734E+04  0.79761228085E+02 0.  0.
          6    2    1    2  501    0 -0.10049561222E+02  0.20064572786E+02 -0.13882519636E+03  0.22758597751E+03  0.17893954636E+03 0.  0.
         24    2    5    5    0    0 -0.64974121358E+02  0.12534954785E+02 -0.35119138995E+02  0.10989809034E+03  0.80408176190E+02 0.  0.
          5    1    5    5  501    0  0.54924560136E+02  0.75296180009E+01 -0.10370605736E+03  0.11768788717E+03  0.47000000000E+01 0. -1.
        -13    1    6    6    0    0 -0.55488096588E+02  0.30801912946E+02 -0.52960364350E+02  0.82658858546E+02  0.00000000000E+00 0.  1.
         14    1    6    6    0    0 -0.94860247699E+01 -0.18266958161E+02  0.17841225355E+02  0.27239231790E+02  0.00000000000E+00 0. -1.
         -5    1    3    3    0  503  0.22195718936E+02  0.43610707224E+02 -0.42331179137E+03  0.42615666889E+03  0.47000000000E+01 0.  1.
         13    1    4    4    0    0 -0.83218784558E+01 -0.74236465673E+02 -0.14872074359E+04  0.14890823563E+04  0.00000000000E+00 0. -1.
        -14    1    4    4    0    0 -0.38242792580E+01  0.10561185663E+02 -0.12554711725E+04  0.12555214171E+04  0.00000000000E+00 0.  1.
</event>
<event>
12    1  0.8344842E-002  0.1785970E+03  0.7818608E-02  0.1169267E+00
         21   -1    0    0  501  502  0.00000000000E+00  0.00000000000E+00  0.37878676335E+03  0.37878676335E+03  0.00000000000E+00 0.  1.
         21   -1    0    0  502  503 -0.00000000000E+00 -0.00000000000E+00 -0.20970326413E+03  0.20970326413E+03  0.00000000000E+00 0.  1.
         -6    2    1    2    0  503 -0.21008996904E+02 -0.41787362996E+02 -0.14329594689E+03  0.22865976209E+03  0.17194184118E+03 0.  0.
        -24    2    3    3    0    0 -0.59658798886E+02 -0.41953889726E+02 -0.15362808988E+03  0.18837728323E+03  0.81025364464E+02 0.  0.
          6    2    1    2  501    0  0.21008996904E+02  0.41787362996E+02  0.31237944610E+03  0.35983026539E+03  0.17236397503E+03 0.  0.
         24    2    5    5    0    0 -0.49302188733E+00  0.91328929711E+02  0.18313997530E+03  0.21968164978E+03  0.79865889001E+02 0.  0.
          5    1    5    5  501    0  0.21502018791E+02 -0.49541566714E+02  0.12923947080E+03  0.14014861561E+03  0.47000000000E+01 0. -1.
        -13    1    6    6    0    0  0.18220777427E+02 -0.81253756710E+01  0.34716147590E+02  0.40040346693E+02  0.00000000000E+00 0.  1.
         14    1    6    6    0    0 -0.18713799314E+02  0.99454305382E+02  0.14842382771E+03  0.17964130309E+03  0.00000000000E+00 0. -1.
         -5    1    3    3    0  503  0.38649801983E+02  0.16652672952E+00  0.10332142997E+02  0.40282478863E+02  0.47000000000E+01 0.  1.
         11    1    4    4    0    0  0.10345935502E+02 -0.25701767469E+02 -0.13334753014E+02  0.30747924651E+02  0.00000000000E+00 0. -1.
        -12    1    4    4    0    0 -0.70004734388E+02 -0.16252122257E+02 -0.14029333687E+03  0.15762935857E+03  0.00000000000E+00 0.  1.
</event>
<event>
12    1  0.8344842E-002  0.1780918E+03  0.7818608E-02  0.1170327E+00
         21   -1    0    0  503  502  0.00000000000E+00  0.00000000000E+00  0.32460330654E+03  0.32460330654E+03  0.00000000000E+00 0.  1.
         21   -1    0    0  501  503 -0.00000000000E+00 -0.00000000000E+00 -0.96562598026E+02  0.96562598026E+02  0.00000000000E+00 0.  1.
          6    2    1    2  501    0  0.36959580426E+02 -0.90191167938E+00  0.12532445935E+03  0.21557576768E+03  0.17146389552E+03 0.  0.
         24    2    3    3    0    0 -0.22235361782E+02 -0.61188980159E+01  0.63177981290E+01  0.82474552259E+02  0.78932154225E+02 0.  0.
         -6    2    1    2    0  502 -0.36959580426E+02  0.90191167938E+00  0.10271624916E+03  0.20559013689E+03  0.17421209061E+03 0.  0.
        -24    2    5    5    0    0 -0.57097341793E+02 -0.23026743188E+02  0.12989677296E+03  0.16388904781E+03  0.78715379852E+02 0.  0.
          5    1    3    3  501    0  0.59194942208E+02  0.52169863365E+01  0.11900666123E+03  0.13310121542E+03  0.47000000000E+01 0. -1.
        -13    1    4    4    0    0  0.12525725819E+02  0.17161872718E+02 -0.23058077801E+02  0.31354403747E+02  0.00000000000E+00 0.  1.
         14    1    4    4    0    0 -0.34761087601E+02 -0.23280770733E+02  0.29375875930E+02  0.51120148511E+02  0.00000000000E+00 0. -1.
         -5    1    5    5    0  502  0.20137761367E+02  0.23928654867E+02 -0.27180523798E+02  0.41701089081E+02  0.47000000000E+01 0.  1.
         11    1    6    6    0    0 -0.60934191821E+01 -0.37574352091E+02  0.22780652772E+02  0.44361242466E+02  0.00000000000E+00 0. -1.
        -12    1    6    6    0    0 -0.51003922611E+02  0.14547608903E+02  0.10711612019E+03  0.11952780534E+03  0.00000000000E+00 0.  1.
</event>
<event>
12    1  0.8344842E-002  0.1896302E+03  0.7818608E-02  0.1158945E+00
         21   -1    0    0  501  502  0.00000000000E+00  0.00000000000E+00  0.24860963306E+02  0.24860963306E+02  0.00000000000E+00 0.  1.
         21   -1    0    0  502  503 -0.00000000000E+00 -0.00000000000E+00 -0.15042461821E+04  0.15042461821E+04  0.00000000000E+00 0.  1.
         -6    2    1    2    0  503 -0.53842650139E+01 -0.78734518162E+02 -0.89719572909E+03  0.91701679709E+03  0.17242828997E+03 0.  0.
        -24    2    3    3    0    0 -0.23887027602E+02 -0.68374693680E+01 -0.35101943630E+03  0.36579799239E+03  0.99880856523E+02 0.  0.
          6    2    1    2  501    0  0.53842650139E+01  0.78734518162E+02 -0.58218948971E+03  0.61209034832E+03  0.17170287687E+03 0.  0.
         24    2    5    5    0    0  0.28548223101E+02 -0.12904902446E+02 -0.36184826844E+03  0.37228481012E+03  0.81732936586E+02 0.  0.
          5    1    5    5  501    0 -0.23163958087E+02  0.91639420608E+02 -0.22034122127E+03  0.23980553821E+03  0.47000000000E+01 0. -1.
        -13    1    6    6    0    0  0.62168740629E+01 -0.42984206529E+01 -0.33936123829E+03  0.33944539472E+03  0.00000000000E+00 0.  1.
         14    1    6    6    0    0  0.22331349038E+02 -0.86064817929E+01 -0.22487030148E+02  0.32839415397E+02  0.00000000000E+00 0. -1.
         -5    1    3    3    0  503  0.18502762588E+02 -0.71897048794E+02 -0.54617629278E+03  0.55121880469E+03  0.47000000000E+01 0.  1.
         11    1    4    4    0    0 -0.60435952410E+02  0.75862075549E+01 -0.25225543931E+03  0.25950503184E+03  0.00000000000E+00 0. -1.
        -12    1    4    4    0    0  0.36548924808E+02 -0.14423676923E+02 -0.98763996991E+02  0.10629296055E+03  0.00000000000E+00 0.  1.
</event>
<event>
12    1  0.8344842E-002  0.2697689E+03  0.7818608E-02  0.1101442E+00
         21   -1    0    0  503  502  0.00000000000E+00  0.00000000000E+00  0.92207093820E+02  0.92207093820E+02  0.00000000000E+00 0. -1.
         21   -1    0    0  501  503 -0.00000000000E+00 -0.00000000000E+00 -0.79008907370E+03  0.79008907370E+03  0.00000000000E+00 0. -1.
          6    2    1    2  501    0  0.90564546102E+02 -0.18694217383E+03 -0.32988983410E+03  0.42601393895E+03  0.17178841688E+03 0.  0.
         24    2    3    3    0    0  0.64239304919E+02 -0.20941033444E+03 -0.27166052216E+03  0.35811269203E+03  0.80410723317E+02 0.  0.
         -6    2    1    2    0  502 -0.90564546102E+02  0.18694217383E+03 -0.36799214578E+03  0.45628222857E+03  0.17212187364E+03 0.  0.
        -24    2    5    5    0    0 -0.92248374448E+02  0.19538386400E+03 -0.25113493140E+03  0.33901417681E+03  0.71953050034E+02 0.  0.
          5    1    3    3  501    0  0.26325241183E+02  0.22468160614E+02 -0.58229311942E+02  0.67901246925E+02  0.47000000000E+01 0. -1.
        -11    1    4    4    0    0  0.85348321918E+01 -0.85750473078E+01 -0.59461921472E+02  0.60680267815E+02  0.00000000000E+00 0.  1.
         12    1    4    4    0    0  0.55704472727E+02 -0.20083528713E+03 -0.21219860068E+03  0.29743242421E+03  0.00000000000E+00 0. -1.
         -5    1    5    5    0  502  0.16838283468E+01 -0.84416901679E+01 -0.11685721438E+03  0.11726805176E+03  0.47000000000E+01 0.  1.
         11    1    6    6    0    0 -0.73369117309E+02  0.74618866053E+02 -0.10129283091E+03  0.14564079147E+03  0.00000000000E+00 0. -1.
        -12    1    6    6    0    0 -0.18879257139E+02  0.12076499794E+03 -0.14984210049E+03  0.19337338534E+03  0.00000000000E+00 0.  1.
</event>
<event>
12    1  0.8344842E-002  0.2154824E+03  0.7818608E-02  0.1138856E+00
         21   -1    0    0  503  502  0.00000000000E+00  0.00000000000E+00  0.85990918412E+03  0.85990918412E+03  0.00000000000E+00 0. -1.
         21   -1    0    0  501  503 -0.00000000000E+00 -0.00000000000E+00 -0.53414336299E+02  0.53414336299E+02  0.00000000000E+00 0. -1.
          6    2    1    2  501    0 -0.38645722846E+02  0.10659221900E+03  0.32195085670E+03  0.38302592667E+03  0.17378467520E+03 0.  0.
         24    2    3    3    0    0  0.24541692332E+02  0.20843914035E+02  0.81995906810E+02  0.12045043426E+03  0.82147519535E+02 0.  0.
         -6    2    1    2    0  502  0.38645722846E+02 -0.10659221900E+03  0.48454399113E+03  0.53029759375E+03  0.18324100401E+03 0.  0.
        -24    2    5    5    0    0  0.48463899679E+02 -0.13230512122E+03  0.47155722216E+03  0.49950317696E+03  0.85345271381E+02 0.  0.
          5    1    3    3  501    0 -0.63187415178E+02  0.85748304960E+02  0.23995494989E+03  0.26257549241E+03  0.47000000000E+01 0. -1.
        -11    1    4    4    0    0 -0.22937492153E+02  0.21668465641E+01  0.61130495986E+02  0.65328105053E+02  0.00000000000E+00 0.  1.
         12    1    4    4    0    0  0.47479184485E+02  0.18677067471E+02  0.20865410824E+02  0.55122329210E+02  0.00000000000E+00 0. -1.
         -5    1    5    5    0  502 -0.98181768331E+01  0.25712902222E+02  0.12986768963E+02  0.30794416785E+02  0.47000000000E+01 0.  1.
         11    1    6    6    0    0  0.12470768373E+02 -0.25848468604E+02  0.22134151607E+02  0.36243400232E+02  0.00000000000E+00 0. -1.
        -12    1    6    6    0    0  0.35993131305E+02 -0.10645665261E+03  0.44942307056E+03  0.46325977673E+03  0.00000000000E+00 0.  1.
</event>
<event>
12    1  0.8344842E-002  0.1916673E+03  0.7818608E-02  0.1157260E+00
         21   -1    0    0  501  502  0.00000000000E+00  0.00000000000E+00  0.98735528512E+03  0.98735528512E+03  0.00000000000E+00 0.  1.
         21   -1    0    0  502  503 -0.00000000000E+00 -0.00000000000E+00 -0.29824458797E+03  0.29824458797E+03  0.00000000000E+00 0.  1.
         -6    2    1    2    0  503  0.78670014649E+02  0.20076377335E+02 -0.25695961178E+03  0.32056919408E+03  0.17362123710E+03 0.  0.
        -24    2    3    3    0    0  0.10329923560E+03 -0.20423519463E+02 -0.13152966454E+03  0.18639914589E+03  0.79729145935E+02 0.  0.
          6    2    1    2  501    0 -0.78670014649E+02 -0.20076377335E+02  0.94607030893E+03  0.96503067901E+03  0.17217186143E+03 0.  0.
         24    2    5    5    0    0  0.17323810337E+02  0.27472492708E+02  0.38893591501E+03  0.39767141685E+03  0.76266359119E+02 0.  0.
          5    1    5    5  501    0 -0.95993824986E+02 -0.47548870043E+02  0.55713439392E+03  0.56735926217E+03  0.47000000000E+01 0. -1.
        -13    1    6    6    0    0 -0.36966152690E+01  0.34120556405E+02  0.69863138762E+02  0.77837879542E+02  0.00000000000E+00 0.  1.
         14    1    6    6    0    0  0.21020425606E+02 -0.66480636970E+01  0.31907277625E+03  0.31983353731E+03  0.00000000000E+00 0. -1.
         -5    1    3    3    0  503 -0.24629220952E+02  0.40499896799E+02 -0.12542994725E+03  0.13417004819E+03  0.47000000000E+01 0.  1.
         11    1    4    4    0    0  0.88265230140E+02  0.13952894923E+02 -0.66753878475E+02  0.11154153675E+03  0.00000000000E+00 0. -1.
        -12    1    4    4    0    0  0.15034005461E+02 -0.34376414387E+02 -0.64775786064E+02  0.74857609143E+02  0.00000000000E+00 0.  1.
</event>
<event>
12    1  0.8344842E-002  0.1895917E+03  0.7818608E-02  0.1162275E+00
         21   -1    0    0  503  502  0.00000000000E+00  0.00000000000E+00  0.54908720360E+03  0.54908720360E+03  0.00000000000E+00 0. -1.
         21   -1    0    0  501  503 -0.00000000000E+00 -0.00000000000E+00 -0.18211651394E+03  0.18211651394E+03  0.00000000000E+00 0. -1.
          6    2    1    2  501    0  0.40447651278E+02 -0.23845631565E+02 -0.11273389880E+03  0.22057643161E+03  0.18368561078E+03 0.  0.
         24    2    3    3    0    0  0.52183768359E+02  0.54730185115E+02 -0.54871536357E+02  0.12217908206E+03  0.78729306796E+02 0.  0.
         -6    2    1    2    0  502 -0.40447651278E+02  0.23845631565E+02  0.47970458845E+03  0.51062728593E+03  0.16857967348E+03 0.  0.
        -24    2    5    5    0    0 -0.69034860324E+02  0.44642367776E+02  0.14898523662E+03  0.17799067875E+03  0.52204674598E+02 0.  0.
          5    1    3    3  501    0 -0.11736117081E+02 -0.78575816680E+02 -0.57862362439E+02  0.98397349548E+02  0.47000000000E+01 0. -1.
        -13    1    4    4    0    0  0.45344483364E+02 -0.76776581962E+01 -0.18113863692E+02  0.49428540994E+02  0.00000000000E+00 0.  1.
         14    1    4    4    0    0  0.68392849948E+01  0.62407843312E+02 -0.36757672666E+02  0.72750541069E+02  0.00000000000E+00 0. -1.
         -5    1    5    5    0  502  0.28587209047E+02 -0.20796736211E+02  0.33071935184E+03  0.33263660718E+03  0.47000000000E+01 0.  1.
         11    1    6    6    0    0 -0.43865911596E+02  0.19520134834E+01  0.95297852112E+02  0.10492716128E+03  0.00000000000E+00 0. -1.
        -12    1    6    6    0    0 -0.25168948728E+02  0.42690354292E+02  0.53687384504E+02  0.73063517467E+02  0.00000000000E+00 0.  1.
</event>
<event>
12    1  0.8344842E-002  0.1903644E+03  0.7818608E-02  0.1159402E+00
         21   -1    0    0  501  502  0.00000000000E+00  0.00000000000E+00  0.69752113498E+02  0.69752113498E+02  0.00000000000E+00 0. -1.
         21   -1    0    0  502  503 -0.00000000000E+00 -0.00000000000E+00 -0.67244729795E+03  0.67244729795E+03  0.00000000000E+00 0. -1.
         -6    2    1    2    0  503  0.55851980217E+02  0.60583672593E+02 -0.48345096346E+03  0.51757131135E+03  0.16542491704E+03 0.  0.
        -24    2    3    3    0    0  0.49454107066E+02  0.81650951119E+02 -0.21520408770E+03  0.24838134244E+03  0.79170104110E+02 0.  0.
          6    2    1    2  501    0 -0.55851980217E+02 -0.60583672593E+02 -0.11924422099E+03  0.22462810010E+03  0.17160645103E+03 0.  0.
         24    2    5    5    0    0 -0.24035100194E+02  0.70238263259E+01 -0.12066086595E+03  0.14974696331E+03  0.85076954986E+02 0.  0.
          5    1    5    5  501    0 -0.31816880023E+02 -0.67607498919E+02  0.14166449625E+01  0.74881136793E+02  0.47000000000E+01 0. -1.
        -11    1    6    6    0    0 -0.29898350939E+02  0.42846315207E+02 -0.75292887207E+02  0.91644623299E+02  0.00000000000E+00 0.  1.
         12    1    6    6    0    0  0.58632507450E+01 -0.35822488881E+02 -0.45367978747E+02  0.58102340009E+02  0.00000000000E+00 0. -1.
         -5    1    3    3    0  503  0.63978731517E+01 -0.21067278525E+02 -0.26824687576E+03  0.26918996891E+03  0.47000000000E+01 0.  1.
         13    1    4    4    0    0  0.42715488859E+02  0.67308441172E+02 -0.21815331096E+03  0.23226258055E+03  0.00000000000E+00 0. -1.
        -14    1    4    4    0    0  0.67386182068E+01  0.14342509947E+02  0.29492232613E+01  0.16118761886E+02  0.00000000000E+00 0.  1.
</event>
<event>
12    1  0.8344842E-002  0.1968969E+03  0.7818608E-02  0.1152497E+00
         21   -1    0    0  503  502  0.00000000000E+00  0.00000000000E+00  0.12542910649E+03  0.12542910649E+03  0.00000000000E+00 0. -1.
         21   -1    0    0  501  503 -0.00000000000E+00 -0.00000000000E+00 -0.30892732308E+03  0.30892732308E+03  0.00000000000E+00 0. -1.
          6    2    1    2  501    0 -0.91061347359E+02  0.18509447281E+02 -0.81542120771E+02  0.21262816299E+03  0.17299378490E+03 0.  0.
         24    2    3    3    0    0  0.88618152169E-01 -0.27587906750E+01  0.12034562934E+02  0.80191990090E+02  0.79235760806E+02 0.  0.
         -6    2    1    2    0  502  0.91061347359E+02 -0.18509447281E+02 -0.10195609581E+03  0.22172826658E+03  0.17359035142E+03 0.  0.
        -24    2    5    5    0    0  0.55411440130E+02 -0.70623762047E+02 -0.22028245236E+02  0.11976077673E+03  0.76152850192E+02 0.  0.
          5    1    3    3  501    0 -0.91149965511E+02  0.21268237956E+02 -0.93576683705E+02  0.13243617290E+03  0.47000000000E+01 0. -1.
        -11    1    4    4    0    0  0.10424129301E+02 -0.37921576954E+02 -0.52380088208E+01  0.39675498822E+02  0.00000000000E+00 0.  1.
         12    1    4    4    0    0 -0.10335511149E+02  0.35162786279E+02  0.17272571755E+02  0.40516491268E+02  0.00000000000E+00 0. -1.
         -5    1    5    5    0  502  0.35649907230E+02  0.52114314767E+02 -0.79927850574E+02  0.10196748985E+03  0.47000000000E+01 0.  1.
         11    1    6    6    0    0  0.10958914105E+02 -0.45533999350E+02 -0.43933038449E+02  0.64214910749E+02  0.00000000000E+00 0. -1.
        -12    1    6    6    0    0  0.44452526024E+02 -0.25089762698E+02  0.21904793213E+02  0.55545865983E+02  0.00000000000E+00 0.  1.
</event>
<event>
12    1  0.8344842E-002  0.1891869E+03  0.7818608E-02  0.1161434E+00
         21   -1    0    0  501  502  0.00000000000E+00  0.00000000000E+00  0.30718671058E+03  0.30718671058E+03  0.00000000000E+00 0.  1.
         21   -1    0    0  502  503 -0.00000000000E+00 -0.00000000000E+00 -0.12124322525E+03  0.12124322525E+03  0.00000000000E+00 0.  1.
         -6    2    1    2    0  503  0.70978194555E+02  0.44183199126E+02  0.31972352060E+02  0.19186956005E+03  0.16971045222E+03 0.  0.
        -24    2    3    3    0    0  0.39907170349E+02 -0.39246263018E+02  0.16154419127E+02  0.10132575463E+03  0.82904112609E+02 0.  0.
          6    2    1    2  501    0 -0.70978194555E+02 -0.44183199126E+02  0.15397113327E+03  0.23656037577E+03  0.15894540672E+03 0.  0.
         24    2    5    5    0    0 -0.57175145699E+02  0.21700218900E+02  0.12822665883E+03  0.16433837848E+03  0.82614343917E+02 0.  0.
          5    1    5    5  501    0 -0.13803048856E+02 -0.65883418026E+02  0.25744474439E+02  0.72221997290E+02  0.47000000000E+01 0. -1.
        -13    1    6    6    0    0  0.20520552863E+02 -0.26744147477E+01  0.33989993317E+02  0.39794035103E+02  0.00000000000E+00 0.  1.
         14    1    6    6    0    0 -0.77695698562E+02  0.24374633647E+02  0.94236665516E+02  0.12454434338E+03  0.00000000000E+00 0. -1.
         -5    1    3    3    0  503  0.31071024206E+02  0.83429462144E+02  0.15817932933E+02  0.90543805427E+02  0.47000000000E+01 0.  1.
         13    1    4    4    0    0  0.11850410357E+02  0.17739637337E+02  0.29514636860E+02  0.36417588435E+02  0.00000000000E+00 0. -1.
        -14    1    4    4    0    0  0.28056759992E+02 -0.56985900356E+02 -0.13360217733E+02  0.64908166193E+02  0.00000000000E+00 0.  1.
</event>
<event>
12    1  0.8344842E-002  0.1772962E+03  0.7818608E-02  0.1171795E+00
         21   -1    0    0  501  502  0.00000000000E+00  0.00000000000E+00  0.24340467820E+03  0.24340467820E+03  0.00000000000E+00 0.  1.
         21   -1    0    0  502  503 -0.00000000000E+00 -0.00000000000E+00 -0.15609557807E+03  0.15609557807E+03  0.00000000000E+00 0.  1.
         -6    2    1    2    0  503  0.44556291781E+02 -0.82171739467E+01 -0.45664523443E+02  0.17787914358E+03  0.16584015176E+03 0.  0.
        -24    2    3    3    0    0  0.16596817424E+02 -0.60839778727E+02 -0.31863317685E+00  0.10285107880E+03  0.81248445275E+02 0.  0.
          6    2    1    2  501    0 -0.44556291781E+02  0.82171739467E+01  0.13297362357E+03  0.22162111269E+03  0.17140929946E+03 0.  0.
         24    2    5    5    0    0  0.15634620779E+02 -0.39270766881E+02  0.10674003718E+03  0.14045251326E+03  0.80912535779E+02 0.  0.
          5    1    5    5  501    0 -0.60190912560E+02  0.47487940827E+02  0.26233586389E+02  0.81168599431E+02  0.47000000000E+01 0. -1.
        -11    1    6    6    0    0 -0.44181400476E+01  0.11216915271E+02  0.78130707694E+02  0.79055339064E+02  0.00000000000E+00 0.  1.
         12    1    6    6    0    0  0.20052760827E+02 -0.50487682152E+02  0.28609329483E+02  0.61397174196E+02  0.00000000000E+00 0. -1.
         -5    1    3    3    0  503  0.27959474357E+02  0.52622604780E+02 -0.45345890266E+02  0.75028064777E+02  0.47000000000E+01 0.  1.
         11    1    4    4    0    0  0.34608808863E+02 -0.27335984923E+02  0.30727393149E+02  0.53751264287E+02  0.00000000000E+00 0. -1.
        -12    1    4    4    0    0 -0.18011991439E+02 -0.33503793804E+02 -0.31046026326E+02  0.49099814516E+02  0.00000000000E+00 0.  1.
</event>
<event>
12    1  0.8344842E-002  0.1870226E+03  0.7818608E-02  0.1161224E+00
         21   -1    0    0  503  502  0.00000000000E+00  0.00000000000E+00  0.81701004040E+02  0.81701004040E+02  0.00000000000E+00 0. -1.
         21   -1    0    0  501  503 -0.00000000000E+00 -0.00000000000E+00 -0.51485154174E+03  0.51485154174E+03  0.00000000000E+00 0. -1.
          6    2    1    2  501    0  0.63247182228E+02  0.37273744156E+02 -0.33924580718E+03  0.38727864349E+03  0.17177744890E+03 0.  0.
         24    2    3    3    0    0  0.37601803690E+02 -0.42526205153E+02 -0.14071679327E+03  0.17172916724E+03  0.80419631960E+02 0.  0.
         -6    2    1    2    0  502 -0.63247182228E+02 -0.37273744156E+02 -0.93904730512E+02  0.20927390228E+03  0.17201142317E+03 0.  0.
        -24    2    5    5    0    0 -0.38625364993E+02 -0.80577323173E+02 -0.10443652987E+03  0.15814228157E+03  0.78213608899E+02 0.  0.
          5    1    3    3  501    0  0.25645378538E+02  0.79799949309E+02 -0.19852901391E+03  0.21554947625E+03  0.47000000000E+01 0. -1.
        -13    1    4    4    0    0 -0.37007076517E+01 -0.49443277806E+02 -0.10712751020E+03  0.11804506089E+03  0.00000000000E+00 0.  1.
         14    1    4    4    0    0  0.41302511342E+02  0.69170726534E+01 -0.33589283070E+02  0.53684106348E+02  0.00000000000E+00 0. -1.
         -5    1    5    5    0  502 -0.24621817235E+02  0.43303579017E+02  0.10531799357E+02  0.51131620719E+02  0.47000000000E+01 0.  1.
         13    1    6    6    0    0 -0.36458897725E+02 -0.23185703328E+02 -0.52455824114E+01  0.43524064573E+02  0.00000000000E+00 0. -1.
        -14    1    6    6    0    0 -0.21664672681E+01 -0.57391619845E+02 -0.99190947458E+02  0.11461821699E+03  0.00000000000E+00 0.  1.
</event>
<event>
12    1  0.8344842E-002  0.1805401E+03  0.7818608E-02  0.1167459E+00
         21   -1    0    0  503  502  0.00000000000E+00  0.00000000000E+00  0.79842899366E+03  0.79842899366E+03  0.00000000000E+00 0. -1.
         21   -1    0    0  501  503 -0.00000000000E+00 -0.00000000000E+00 -0.64138303710E+02  0.64138303710E+02  0.00000000000E+00 0. -1.
          6    2    1    2  501    0  0.35580913847E+02  0.43251282873E+02  0.10666878463E+03  0.20969730173E+03  0.17163348693E+03 0.  0.
         24    2    3    3    0    0  0.39171829390E+02 -0.35281123676E+02  0.24925034000E+02  0.96187987924E+02  0.76496286155E+02 0.  0.
         -6    2    1    2    0  502 -0.35580913847E+02 -0.43251282873E+02  0.62762190532E+03  0.65286999564E+03  0.17086047019E+03 0.  0.
        -24    2    5    5    0    0  0.38629444233E+02 -0.36846745247E+02  0.19589999180E+03  0.21474433335E+03  0.69917131812E+02 0.  0.
          5    1    3    3  501    0 -0.35909155428E+01  0.78532406549E+02  0.81743750633E+02  0.11350931380E+03  0.47000000000E+01 0. -1.
        -11    1    4    4    0    0  0.80515278251E+01 -0.36163618774E+02  0.45646453521E+02  0.58789736708E+02  0.00000000000E+00 0.  1.
         12    1    4    4    0    0  0.31120301565E+02  0.88249509765E+00 -0.20721419521E+02  0.37398251217E+02  0.00000000000E+00 0. -1.
         -5    1    5    5    0  502 -0.74210358080E+02 -0.64045376265E+01  0.43172191352E+03  0.43812566229E+03  0.47000000000E+01 0.  1.
         11    1    6    6    0    0  0.15106691685E+02 -0.57629361629E+01  0.16281448319E+03  0.16361534006E+03  0.00000000000E+00 0. -1.
        -12    1    6    6    0    0  0.23522752548E+02 -0.31083809084E+02  0.33085508611E+02  0.51128993288E+02  0.00000000000E+00 0.  1.
</event>
<event>
12    1  0.8344842E-002  0.1824744E+03  0.7818608E-02  0.1166081E+00
         21   -1    0    0  501  502  0.00000000000E+00  0.00000000000E+00  0.66192747694E+03  0.66192747694E+03  0.00000000000E+00 0.  1.
         21   -1    0    0  502  503 -0.00000000000E+00 -0.00000000000E+00 -0.19770197127E+03  0.19770197127E+03  0.00000000000E+00 0.  1.
         -6    2    1    2    0  503 -0.11887920520E+02  0.61444394467E+02 -0.14038859564E+03  0.22807966286E+03  0.16850708756E+03 0.  0.
        -24    2    3    3    0    0  0.59121204830E+02  0.16166728627E+01 -0.90785893685E+02  0.12270333631E+03  0.57585586379E+02 0.  0.
          6    2    1    2  501    0  0.11887920520E+02 -0.61444394467E+02  0.60461410131E+03  0.63154978535E+03  0.17140648647E+03 0.  0.
         24    2    5    5    0    0 -0.24442613849E+02 -0.36322347325E+02  0.56409088810E+03  0.57142287133E+03  0.80055065791E+02 0.  0.
          5    1    5    5  501    0  0.36330534369E+02 -0.25122047142E+02  0.40523213218E+02  0.60126914021E+02  0.47000000000E+01 0. -1.
        -11    1    6    6    0    0 -0.52181192002E+02 -0.10568883429E+02  0.31322701798E+03  0.31771959790E+03  0.00000000000E+00 0.  1.
         12    1    6    6    0    0  0.27738578152E+02 -0.25753463896E+02  0.25086387011E+03  0.25370327343E+03  0.00000000000E+00 0. -1.
         -5    1    3    3    0  503 -0.71009125351E+02  0.59827721604E+02 -0.49602701957E+02  0.10537632655E+03  0.47000000000E+01 0.  1.
         11    1    4    4    0    0  0.22945356738E+02  0.27945948541E+02 -0.28644258054E+02  0.46129805496E+02  0.00000000000E+00 0. -1.
        -12    1    4    4    0    0  0.36175848092E+02 -0.26329275678E+02 -0.62141635631E+02  0.76573530817E+02  0.00000000000E+00 0.  1.
</event>
<event>
12    1  0.8344842E-002  0.2702208E+03  0.7818608E-02  0.1101172E+00
         21   -1    0    0  503  502  0.00000000000E+00  0.00000000000E+00  0.61891771966E+03  0.61891771966E+03  0.00000000000E+00 0. -1.
         21   -1    0    0  501  503 -0.00000000000E+00 -0.00000000000E+00 -0.12734890176E+03  0.12734890176E+03  0.00000000000E+00 0.  1.
          6    2    1    2  501    0  0.68755687611E+02  0.19602579285E+03  0.34725314662E+03  0.43992319920E+03  0.17261001509E+03 0.  0.
         24    2    3    3    0    0  0.22028042684E+01  0.17791740037E+03  0.21321318382E+03  0.28910542244E+03  0.80390483413E+02 0.  0.
         -6    2    1    2    0  502 -0.68755687611E+02 -0.19602579285E+03  0.14431567128E+03  0.30634342222E+03  0.17281731198E+03 0.  0.
        -24    2    5    5    0    0  0.26986663679E+02 -0.69690717628E+02  0.37508654689E+02  0.11514463076E+03  0.79160032068E+02 0.  0.
          5    1    3    3  501    0  0.66552883342E+02  0.18108392480E+02  0.13403996280E+03  0.15081777676E+03  0.47000000000E+01 0. -1.
        -11    1    4    4    0    0  0.41050545260E+02  0.94744972547E+02  0.10640242821E+03  0.14826744018E+03  0.00000000000E+00 0.  1.
         12    1    4    4    0    0 -0.38847740991E+02  0.83172427826E+02  0.10681075562E+03  0.14083798226E+03  0.00000000000E+00 0. -1.
         -5    1    5    5    0  502 -0.95742351290E+02 -0.12633507522E+03  0.10680701659E+03  0.19119879146E+03  0.47000000000E+01 0.  1.
         13    1    6    6    0    0  0.31587847551E+02 -0.44872836546E+02  0.60019001190E+02  0.81324314177E+02  0.00000000000E+00 0. -1.
        -14    1    6    6    0    0 -0.46011838717E+01 -0.24817881082E+02 -0.22510346501E+02  0.33820316586E+02  0.00000000000E+00 0.  1.
</event>
<event>
12    1  0.8344842E-002  0.2153381E+03  0.7818608E-02  0.1137496E+00
         21   -1    0    0  503  502  0.00000000000E+00  0.00000000000E+00  0.46383552472E+03  0.46383552472E+03  0.00000000000E+00 0.  1.
         21   -1    0    0  501  503 -0.00000000000E+00 -0.00000000000E+00 -0.10133774425E+03  0.10133774425E+03  0.00000000000E+00 0.  1.
          6    2    1    2  501    0  0.21990962881E+02  0.12698412274E+03  0.21635068979E+03  0.30492436997E+03  0.17193801368E+03 0.  0.
         24    2    3    3    0    0  0.68772820901E+02  0.98207456001E+02  0.20180179722E+03  0.24791209880E+03  0.79762385008E+02 0.  0.
         -6    2    1    2    0  502 -0.21990962881E+02 -0.12698412274E+03  0.14614709068E+03  0.26024889900E+03  0.17251651353E+03 0.  0.
        -24    2    5    5    0    0 -0.46398654577E+02 -0.10243027933E+02  0.62574520108E+02  0.11454137283E+03  0.83345070375E+02 0.  0.
          5    1    3    3  501    0 -0.46781858020E+02  0.28776666741E+02  0.14548892576E+02  0.57012271168E+02  0.47000000000E+01 0. -1.
        -11    1    4    4    0    0  0.55770336583E+02  0.68632640949E+02  0.71671263862E+02  0.11383119041E+03  0.00000000000E+00 0.  1.
         12    1    4    4    0    0  0.13002484319E+02  0.29574815052E+02  0.13013053335E+03  0.13408090839E+03  0.00000000000E+00 0. -1.
         -5    1    5    5    0  502  0.24407691696E+02 -0.11674109481E+03  0.83572570570E+02  0.14570752617E+03  0.47000000000E+01 0.  1.
         13    1    6    6    0    0 -0.39807817721E+02 -0.11988621019E+01 -0.10038114146E+02  0.41071442118E+02  0.00000000000E+00 0. -1.
        -14    1    6    6    0    0 -0.65908368560E+01 -0.90441658308E+01  0.72612634253E+02  0.73469930715E+02  0.00000000000E+00 0.  1.
</event>
<event>
12    1  0.8344842E-002  0.2095881E+03  0.7818608E-02  0.1142182E+00
         21   -1    0    0  503  502  0.00000000000E+00  0.00000000000E+00  0.80061488250E+02  0.80061488250E+02  0.00000000000E+00 0.  1.
         21   -1    0    0  501  503 -0.00000000000E+00 -0.00000000000E+00 -0.55537139675E+03  0.55537139675E+03  0.00000000000E+00 0.  1.
          6    2    1    2  501    0 -0.11644527059E+03 -0.12528148343E+02 -0.28052949891E+03  0.34930948608E+03  0.17205772801E+03 0.  0.
         24    2    3    3    0    0 -0.93004374036E+02 -0.70405363324E+02 -0.16208544367E+03  0.21533063750E+03  0.80553483003E+02 0.  0.
         -6    2    1    2    0  502  0.11644527059E+03  0.12528148343E+02 -0.19478040959E+03  0.28612339892E+03  0.17381235831E+03 0.  0.
        -24    2    5    5    0    0  0.97429462669E+02 -0.49666465525E+02 -0.86827318833E+02  0.16000547493E+03  0.78124968602E+02 0.  0.
          5    1    3    3  501    0 -0.23440896557E+02  0.57877214981E+02 -0.11844405524E+03  0.13397884858E+03  0.47000000000E+01 0. -1.
        -11    1    4    4    0    0 -0.53697923802E+02 -0.39585017743E+01 -0.28200184964E+02  0.60781470770E+02  0.00000000000E+00 0.  1.
         12    1    4    4    0    0 -0.39306450234E+02 -0.66446861550E+02 -0.13388525870E+03  0.15454916673E+03  0.00000000000E+00 0. -1.
         -5    1    5    5    0  502  0.19015807924E+02  0.62194613868E+02 -0.10795309076E+03  0.12611792398E+03  0.47000000000E+01 0.  1.
         11    1    6    6    0    0 -0.89601368495E+01  0.18660593835E+01 -0.24952758488E+02  0.26578306684E+02  0.00000000000E+00 0. -1.
        -12    1    6    6    0    0  0.10638959952E+03 -0.51532524909E+02 -0.61874560344E+02  0.13342716825E+03  0.00000000000E+00 0.  1.
</event>
<event>
12    1  0.8344842E-002  0.2088629E+03  0.7818608E-02  0.1142501E+00
         21   -1    0    0  503  502  0.00000000000E+00  0.00000000000E+00  0.46370853055E+03  0.46370853055E+03  0.00000000000E+00 0. -1.
         21   -1    0    0  501  503 -0.00000000000E+00 -0.00000000000E+00 -0.94588129377E+02  0.94588129377E+02  0.00000000000E+00 0. -1.
          6    2    1    2  501    0  0.10015166826E+03  0.61132246751E+02  0.20652913054E+03  0.29373113291E+03  0.17278943378E+03 0.  0.
         24    2    3    3    0    0  0.71095783123E+02 -0.27172145310E+01  0.19543708131E+03  0.22255443922E+03  0.79201212329E+02 0.  0.
         -6    2    1    2    0  502 -0.10015166826E+03 -0.61132246751E+02  0.16259127063E+03  0.26456552702E+03  0.17260211051E+03 0.  0.
        -24    2    5    5    0    0 -0.11829010245E+03  0.16167955936E+01  0.11035506466E+03  0.18079705846E+03  0.80710431090E+02 0.  0.
          5    1    3    3  501    0  0.29055885141E+02  0.63849461282E+02  0.11092049232E+02  0.71176693682E+02  0.47000000000E+01 0. -1.
        -13    1    4    4    0    0 -0.33806344255E+01 -0.26997696191E+02  0.64018635036E+02  0.69560692353E+02  0.00000000000E+00 0.  1.
         14    1    4    4    0    0  0.74476417549E+02  0.24280481660E+02  0.13141844627E+03  0.15299374687E+03  0.00000000000E+00 0. -1.
         -5    1    5    5    0  502  0.18138434190E+02 -0.62749042345E+02  0.52236205973E+02  0.83768468558E+02  0.47000000000E+01 0.  1.
         11    1    6    6    0    0 -0.97638388919E+02  0.13790378108E+02  0.11968399658E+03  0.15507317162E+03  0.00000000000E+00 0. -1.
        -12    1    6    6    0    0 -0.20651713536E+02 -0.12173582514E+02 -0.93289319277E+01  0.25723886839E+02  0.00000000000E+00 0.  1.
</event>
<event>
12    1  0.8344842E-002  0.1742038E+03  0.7818608E-02  0.1173851E+00
         21   -1    0    0  503  502  0.00000000000E+00  0.00000000000E+00  0.14855355253E+03  0.14855355253E+03  0.00000000000E+00 0. -1.
         21   -1    0    0  501  503 -0.00000000000E+00 -0.00000000000E+00 -0.22571030549E+03  0.22571030549E+03  0.00000000000E+00 0. -1.
          6    2    1    2  501    0  0.32512875254E+01 -0.20410872962E+02 -0.98300542738E+02  0.20002490866E+03  0.17297338748E+03 0.  0.
         24    2    3    3    0    0 -0.29884488660E+02  0.46462636091E+02 -0.69315337985E+02  0.11982342506E+03  0.80629882171E+02 0.  0.
         -6    2    1    2    0  502 -0.32512875254E+01  0.20410872962E+02  0.21143789781E+02  0.17423894936E+03  0.17171190123E+03 0.  0.
        -24    2    5    5    0    0  0.24841435164E+01  0.17166109230E+02  0.80968189431E+02  0.11386948312E+03  0.78163707762E+02 0.  0.
          5    1    3    3  501    0  0.33135776185E+02 -0.66873509053E+02 -0.28985204753E+02  0.80201483596E+02  0.47000000000E+01 0. -1.
        -11    1    4    4    0    0 -0.17072450298E+02  0.86208218771E+00  0.15242465949E+02  0.22902936778E+02  0.00000000000E+00 0.  1.
         12    1    4    4    0    0 -0.12812038362E+02  0.45600553904E+02 -0.84557803934E+02  0.96920488286E+02  0.00000000000E+00 0. -1.
         -5    1    5    5    0  502 -0.57354310419E+01  0.32447637316E+01 -0.59824399651E+02  0.60369466243E+02  0.47000000000E+01 0.  1.
         13    1    6    6    0    0  0.23999738611E+02  0.19976780466E+02  0.86087169507E+02  0.91575433195E+02  0.00000000000E+00 0. -1.
        -14    1    6    6    0    0 -0.21515595094E+02 -0.28106712356E+01 -0.51189800755E+01  0.22294049925E+02  0.00000000000E+00 0.  1.
</event>
<event>
12    1  0.8344842E-002  0.1962007E+03  0.7818608E-02  0.1153111E+00
         21   -1    0    0  501  502  0.00000000000E+00  0.00000000000E+00  0.25196400503E+03  0.25196400503E+03  0.00000000000E+00 0. -1.
         21   -1    0    0  502  503 -0.00000000000E+00 -0.00000000000E+00 -0.15636656539E+03  0.15636656539E+03  0.00000000000E+00 0. -1.
         -6    2    1    2    0  503 -0.25898158027E+02  0.91047707181E+02  0.80558239622E+02  0.21155428005E+03  0.17118756925E+03 0.  0.
        -24    2    3    3    0    0 -0.18925488768E+02  0.12634986751E+03  0.36608746657E+02  0.15455859098E+03  0.78903070717E+02 0.  0.
          6    2    1    2  501    0  0.25898158027E+02 -0.91047707181E+02  0.15039200020E+02  0.19677629036E+03  0.17185555370E+03 0.  0.
         24    2    5    5    0    0  0.48436299243E+02 -0.71551735658E+00 -0.22355239483E+02  0.96335728666E+02  0.80213644948E+02 0.  0.
          5    1    5    5  501    0 -0.22538141216E+02 -0.90332189824E+02  0.37394439503E+02  0.10044056170E+03  0.47000000000E+01 0. -1.
        -11    1    6    6    0    0  0.18965664657E+02 -0.13124249819E+02  0.28253156483E+02  0.36471676962E+02  0.00000000000E+00 0.  1.
         12    1    6    6    0    0  0.29470634586E+02  0.12408732462E+02 -0.50608395966E+02  0.59864051704E+02  0.00000000000E+00 0. -1.
         -5    1    3    3    0  503 -0.69726692590E+01 -0.35302160333E+02  0.43949492966E+02  0.56995689071E+02  0.47000000000E+01 0.  1.
         11    1    4    4    0    0  0.26489235444E+02  0.45797032491E+02 -0.50276149900E+01  0.53144375920E+02  0.00000000000E+00 0. -1.
        -12    1    4    4    0    0 -0.45414724212E+02  0.80552835022E+02  0.41636361647E+02  0.10141421506E+03  0.00000000000E+00 0.  1.
</event>
<event>
12    1  0.8344842E-002  0.2233798E+03  0.7818608E-02  0.1135012E+00
         21   -1    0    0  503  502  0.00000000000E+00  0.00000000000E+00  0.11473238827E+03  0.11473238827E+03  0.00000000000E+00 0. -1.
         21   -1    0    0  501  503 -0.00000000000E+00 -0.00000000000E+00 -0.59876901265E+03  0.59876901265E+03  0.00000000000E+00 0. -1.
          6    2    1    2  501    0  0.14784871793E+02  0.11298907314E+03 -0.45514712437E+03  0.50700833378E+03  0.19212866163E+03 0.  0.
         24    2    3    3    0    0 -0.38351743399E+02  0.13840274927E+03 -0.34384935000E+03  0.38099786045E+03  0.79377685445E+02 0.  0.
         -6    2    1    2    0  502 -0.14784871793E+02 -0.11298907314E+03 -0.28889500004E+02  0.20649306714E+03  0.16976354286E+03 0.  0.
        -24    2    5    5    0    0 -0.11876000832E+02 -0.62011130350E+02 -0.82187413276E+02  0.13253382336E+03  0.82607649469E+02 0.  0.
          5    1    3    3  501    0  0.53136615192E+02 -0.25413676136E+02 -0.11129777437E+03  0.12601047333E+03  0.47000000000E+01 0. -1.
        -13    1    4    4    0    0 -0.17491958953E+02  0.21819062629E+01 -0.11076462666E+02  0.20818678348E+02  0.00000000000E+00 0.  1.
         14    1    4    4    0    0 -0.20859784445E+02  0.13622084301E+03 -0.33277288733E+03  0.36017918211E+03  0.00000000000E+00 0. -1.
         -5    1    5    5    0  502 -0.29088709609E+01 -0.50977942788E+02  0.53297913272E+02  0.73959243778E+02  0.47000000000E+01 0.  1.
         13    1    6    6    0    0  0.22937037231E+02 -0.34433703749E+02 -0.26768350647E+01  0.41460259005E+02  0.00000000000E+00 0. -1.
        -14    1    6    6    0    0 -0.34813038063E+02 -0.27577426601E+02 -0.79510578211E+02  0.91073564356E+02  0.00000000000E+00 0.  1.
</event>
<event>
12    1  0.8344842E-002  0.2447881E+03  0.7818608E-02  0.1116945E+00
         21   -1    0    0  501  502  0.00000000000E+00  0.00000000000E+00  0.59966585354E+02  0.59966585354E+02  0.00000000000E+00 0. -1.
         21   -1    0    0  502  503 -0.00000000000E+00 -0.00000000000E+00 -0.11789023377E+04  0.11789023377E+04  0.00000000000E+00 0.  1.
         -6    2    1    2    0  503 -0.17390346072E+03  0.21533052483E+01 -0.80808240973E+03  0.84434495851E+03  0.17226194490E+03 0.  0.
        -24    2    3    3    0    0 -0.18480733556E+03  0.11942879806E+02 -0.55106597198E+03  0.58686822260E+03  0.80275909038E+02 0.  0.
          6    2    1    2  501    0  0.17390346072E+03 -0.21533052483E+01 -0.31085334258E+03  0.39452396451E+03  0.16962401837E+03 0.  0.
         24    2    5    5    0    0  0.67916365881E+02  0.45403822921E+02 -0.90240724742E+02  0.14515082670E+03  0.79064746890E+02 0.  0.
          5    1    5    5  501    0  0.10598709484E+03 -0.47557128169E+02 -0.22061261784E+03  0.24937313781E+03  0.47000000000E+01 0. -1.
        -13    1    6    6    0    0 -0.69138843368E+01  0.24166648629E+02  0.11208185772E+01  0.25161179162E+02  0.00000000000E+00 0.  1.
         14    1    6    6    0    0  0.74830250218E+02  0.21237174292E+02 -0.91361543320E+02  0.11998964754E+03  0.00000000000E+00 0. -1.
         -5    1    3    3    0  503  0.10903874836E+02 -0.97895745577E+01 -0.25701643775E+03  0.25747673590E+03  0.47000000000E+01 0.  1.
         13    1    4    4    0    0 -0.77097090554E+01  0.22811098240E+02 -0.77503103283E+02  0.81157358478E+02  0.00000000000E+00 0. -1.
        -14    1    4    4    0    0 -0.17709762650E+03 -0.10868218434E+02 -0.47356286870E+03  0.50571086413E+03  0.00000000000E+00 0.  1.
</event>
<event>
12    1  0.8344842E-002  0.2842460E+03  0.7818608E-02  0.1093505E+00
         21   -1    0    0  501  502  0.00000000000E+00  0.00000000000E+00  0.19876042223E+04  0.19876042223E+04  0.00000000000E+00 0. -1.
         21   -1    0    0  502  503 -0.00000000000E+00 -0.00000000000E+00 -0.64106867834E+02  0.64106867834E+02  0.00000000000E+00 0.  1.
         -6    2    1    2    0  503 -0.22271447345E+03 -0.33384975267E+02  0.34052121848E+03  0.44356564518E+03  0.17343439132E+03 0.  0.
        -24    2    3    3    0    0 -0.15496809506E+03 -0.96870920500E+01  0.11901989826E+03  0.21067922155E+03  0.78173192158E+02 0.  0.
          6    2    1    2  501    0  0.22271447345E+03  0.33384975267E+02  0.15829761360E+04  0.16081454449E+04  0.17205240990E+03 0.  0.
         24    2    5    5    0    0  0.32191471774E+02  0.36075031416E+02  0.50802082108E+03  0.51642328725E+03  0.79184330618E+02 0.  0.
          5    1    5    5  501    0  0.19052300168E+03 -0.26900561494E+01  0.10749553149E+04  0.10917221577E+04  0.47000000000E+01 0. -1.
        -11    1    6    6    0    0  0.16069621269E+02 -0.19124891153E+02  0.64135352444E+02  0.68828319916E+02  0.00000000000E+00 0.  1.
         12    1    6    6    0    0  0.16121850505E+02  0.55199922570E+02  0.44388546863E+03  0.44759496733E+03  0.00000000000E+00 0. -1.
         -5    1    3    3    0  503 -0.67746378390E+02 -0.23697883217E+02  0.22150132022E+03  0.23288642363E+03  0.47000000000E+01 0.  1.
         11    1    4    4    0    0 -0.10076322772E+02 -0.78065455136E+01  0.47319798951E+02  0.49006507794E+02  0.00000000000E+00 0. -1.
        -12    1    4    4    0    0 -0.14489177229E+03 -0.18805465364E+01  0.71700099309E+02  0.16167271376E+03  0.00000000000E+00 0.  1.
</event>
<event>
12    1  0.8344842E-002  0.1744541E+03  0.7818608E-02  0.1173796E+00
         21   -1    0    0  501  502  0.00000000000E+00  0.00000000000E+00  0.92050361553E+03  0.92050361553E+03  0.00000000000E+00 0. -1.
         21   -1    0    0  502  503 -0.00000000000E+00 -0.00000000000E+00 -0.60356599885E+02  0.60356599885E+02  0.00000000000E+00 0. -1.
         -6    2    1    2    0  503  0.52225150143E+01 -0.23104269982E+02  0.96601233847E+02  0.19763840117E+03  0.17078658402E+03 0.  0.
        -24    2    3    3    0    0 -0.46149340687E+02  0.15286295552E+02  0.16111995936E+02  0.94616507866E+02  0.79556612989E+02 0.  0.
          6    2    1    2  501    0 -0.52225150143E+01  0.23104269982E+02  0.76354578180E+03  0.78322181425E+03  0.17283855894E+03 0.  0.
         24    2    5    5    0    0  0.11152105894E+02  0.48363807825E+02  0.22228104571E+03  0.24110026238E+03  0.79101490923E+02 0.  0.
          5    1    5    5  501    0 -0.16374620908E+02 -0.25259537842E+02  0.54126473609E+03  0.54212155187E+03  0.47000000000E+01 0. -1.
        -11    1    6    6    0    0  0.27129087751E+02 -0.12010529136E+02  0.54155273202E+02  0.61749767837E+02  0.00000000000E+00 0.  1.
         12    1    6    6    0    0 -0.15976981856E+02  0.60374336961E+02  0.16812577251E+03  0.17935049454E+03  0.00000000000E+00 0. -1.
         -5    1    3    3    0  503  0.51371855701E+02 -0.38390565534E+02  0.80489237911E+02  0.10302189330E+03  0.47000000000E+01 0.  1.
         11    1    4    4    0    0  0.14402435869E+02 -0.69574184496E+01 -0.15942572198E+02  0.22583211435E+02  0.00000000000E+00 0. -1.
        -12    1    4    4    0    0 -0.60551776555E+02  0.22243714001E+02  0.32054568133E+02  0.72033296431E+02  0.00000000000E+00 0.  1.
</event>
<event>
12    1  0.8344842E-002  0.1776405E+03  0.7818608E-02  0.1170670E+00
         21   -1    0    0  501  502  0.00000000000E+00  0.00000000000E+00  0.17397857691E+03  0.17397857691E+03  0.00000000000E+00 0.  1.
         21   -1    0    0  502  503 -0.00000000000E+00 -0.00000000000E+00 -0.19473042640E+03  0.19473042640E+03  0.00000000000E+00 0.  1.
         -6    2    1    2    0  503  0.80849453454E+01 -0.35132890653E+02 -0.62724987200E+02  0.18838941089E+03  0.17394384085E+03 0.  0.
        -24    2    3    3    0    0  0.64495855538E+02  0.12010618126E+02 -0.43891593439E+02  0.11235331467E+03  0.79955143752E+02 0.  0.
          6    2    1    2  501    0 -0.80849453454E+01  0.35132890653E+02  0.41973137710E+02  0.18031959243E+03  0.17162087512E+03 0.  0.
         24    2    5    5    0    0 -0.31610826378E+01  0.49593469700E+02  0.88997800290E+02  0.13065308801E+03  0.81731978255E+02 0.  0.
          5    1    5    5  501    0 -0.49238627076E+01 -0.14460579047E+02 -0.47024662581E+02  0.49666504419E+02  0.47000000000E+01 0. -1.
        -11    1    6    6    0    0  0.33744595912E+02  0.39061171127E+02  0.72211279470E+02  0.88763403077E+02  0.00000000000E+00 0.  1.
         12    1    6    6    0    0 -0.36905678550E+02  0.10532298573E+02  0.16786520820E+02  0.41889684932E+02  0.00000000000E+00 0. -1.
         -5    1    3    3    0  503 -0.56410910192E+02 -0.47143508779E+02 -0.18833393760E+02  0.76036096225E+02  0.47000000000E+01 0.  1.
         11    1    4    4    0    0  0.93796095589E+01  0.38497670524E+02 -0.51341052140E+01  0.39955059099E+02  0.00000000000E+00 0. -1.
        -12    1    4    4    0    0  0.55116245979E+02 -0.26487052398E+02 -0.38757488225E+02  0.72398255567E+02  0.00000000000E+00 0.  1.
</event>
<event>
12    1  0.8344842E-002  0.1996612E+03  0.7818608E-02  0.1150088E+00
         21   -1    0    0  503  502  0.00000000000E+00  0.00000000000E+00  0.56074781147E+02  0.56074781147E+02  0.00000000000E+00 0.  1.
         21   -1    0    0  501  503 -0.00000000000E+00 -0.00000000000E+00 -0.75168002241E+03  0.75168002241E+03  0.00000000000E+00 0.  1.
          6    2    1    2  501    0  0.80741889000E+02  0.62824762845E+02 -0.44282439896E+03  0.48563256255E+03  0.17111205109E+03 0.  0.
         24    2    3    3    0    0  0.36467523290E+02 -0.18216581824E+02 -0.31548429205E+03  0.32826194321E+03  0.81017533398E+02 0.  0.
         -6    2    1    2    0  502 -0.80741889000E+02 -0.62824762845E+02 -0.25278084230E+03  0.32212224101E+03  0.17145955923E+03 0.  0.
        -24    2    5    5    0    0 -0.72726785249E+02 -0.10784243758E+03 -0.19982242934E+03  0.25199723527E+03  0.81574669361E+02 0.  0.
          5    1    3    3  501    0  0.44274365710E+02  0.81041344669E+02 -0.12734010691E+03  0.15737061935E+03  0.47000000000E+01 0. -1.
        -11    1    4    4    0    0  0.54773505323E+02 -0.30061029057E+02 -0.27766259532E+03  0.28460555018E+03  0.00000000000E+00 0.  1.
         12    1    4    4    0    0 -0.18305982033E+02  0.11844447233E+02 -0.37821696732E+02  0.43656393027E+02  0.00000000000E+00 0. -1.
         -5    1    5    5    0  502 -0.80151037518E+01  0.45017674730E+02 -0.52958412958E+02  0.70125005735E+02  0.47000000000E+01 0.  1.
         13    1    6    6    0    0 -0.74999148765E+02 -0.43360369454E+02 -0.13595976731E+03  0.16121430545E+03  0.00000000000E+00 0. -1.
        -14    1    6    6    0    0  0.22723635163E+01 -0.64482068121E+02 -0.63862662032E+02  0.90782929822E+02  0.00000000000E+00 0.  1.
</event>
<event>
12    1  0.8344842E-002  0.1972772E+03  0.7818608E-02  0.1154465E+00
         21   -1    0    0  503  502  0.00000000000E+00  0.00000000000E+00  0.18644316913E+03  0.18644316913E+03  0.00000000000E+00 0.  1.
         21   -1    0    0  501  503 -0.00000000000E+00 -0.00000000000E+00 -0.23197831626E+03  0.23197831626E+03  0.00000000000E+00 0.  1.
          6    2    1    2  501    0 -0.58664053815E+02 -0.40571828779E+02 -0.10407445917E+03  0.22304662582E+03  0.18393139954E+03 0.  0.
         24    2    3    3    0    0 -0.70641929228E+02 -0.77327851338E+02 -0.12316592450E+03  0.17967556701E+03  0.78381028734E+02 0.  0.
         -6    2    1    2    0  502  0.58664053815E+02  0.40571828779E+02  0.58539312037E+02  0.19537485958E+03  0.17221190493E+03 0.  0.
        -24    2    5    5    0    0  0.64814819321E+01  0.84513289424E+02  0.25983055260E+02  0.11963931556E+03  0.80336423683E+02 0.  0.
          5    1    3    3  501    0  0.11977875413E+02  0.36756022559E+02  0.19091465331E+02  0.43371058809E+02  0.47000000000E+01 0. -1.
        -11    1    4    4    0    0 -0.29101402121E+02 -0.55903103283E+02 -0.19519613956E+02  0.65977753002E+02  0.00000000000E+00 0.  1.
         12    1    4    4    0    0 -0.41540527106E+02 -0.21424748055E+02 -0.10364631054E+03  0.11369781401E+03  0.00000000000E+00 0. -1.
         -5    1    5    5    0  502  0.52182571883E+02 -0.43941460645E+02  0.32556256778E+02  0.75735544015E+02  0.47000000000E+01 0.  1.
         11    1    6    6    0    0  0.14199627250E+02  0.92075402847E+02  0.40463528275E+02  0.10157168082E+03  0.00000000000E+00 0. -1.
        -12    1    6    6    0    0 -0.77181453178E+01 -0.75621134227E+01 -0.14480473015E+02  0.18067634746E+02  0.00000000000E+00 0.  1.
</event>
<event>
12    1  0.8344842E-002  0.2563603E+03  0.7818608E-02  0.1109442E+00
         21   -1    0    0  501  502  0.00000000000E+00  0.00000000000E+00  0.55865175454E+03  0.55865175454E+03  0.00000000000E+00 0. -1.
         21   -1    0    0  502  503 -0.00000000000E+00 -0.00000000000E+00 -0.17295064626E+03  0.17295064626E+03  0.00000000000E+00 0.  1.
         -6    2    1    2    0  503  0.15527089924E+03 -0.10758010029E+03 -0.14375433512E+02  0.25676306022E+03  0.17331499034E+03 0.  0.
        -24    2    3    3    0    0  0.43515424888E+02 -0.11061929964E+03 -0.24980084612E+02  0.14436612340E+03  0.78021479758E+02 0.  0.
          6    2    1    2  501    0 -0.15527089924E+03  0.10758010029E+03  0.40007654180E+03  0.47483934059E+03  0.17241992328E+03 0.  0.
         24    2    5    5    0    0  0.10705001171E+02  0.35720218902E+02  0.11427388074E+03  0.13658338257E+03  0.64853446208E+02 0.  0.
          5    1    5    5  501    0 -0.16597590041E+03  0.71859881387E+02  0.28580266105E+03  0.33825595802E+03  0.47000000000E+01 0. -1.
        -13    1    6    6    0    0  0.10789107978E+02 -0.17519558744E+02  0.42506090335E+02  0.47224014072E+02  0.00000000000E+00 0.  1.
         14    1    6    6    0    0 -0.84106807082E-01  0.53239777647E+02  0.71767790406E+02  0.89359368494E+02  0.00000000000E+00 0. -1.
         -5    1    3    3    0  503  0.11175547435E+03  0.30391993507E+01  0.10604651100E+02  0.11239693681E+03  0.47000000000E+01 0.  1.
         13    1    4    4    0    0  0.59694593839E+00 -0.34897873622E+01 -0.28682273971E+02  0.28899961945E+02  0.00000000000E+00 0. -1.
        -14    1    4    4    0    0  0.42918478950E+02 -0.10712951228E+03  0.37021893583E+01  0.11546616146E+03  0.00000000000E+00 0.  1.
</event>
<event>
12    1  0.8344842E-002  0.1764492E+03  0.7818608E-02  0.1171942E+00
         21   -1    0    0  503  502  0.00000000000E+00  0.00000000000E+00  0.10670134432E+04  0.10670134432E+04  0.00000000000E+00 0. -1.
         21   -1    0    0  501  503 -0.00000000000E+00 -0.00000000000E+00 -0.91435987389E+02  0.91435987389E+02  0.00000000000E+00 0. -1.
          6    2    1    2  501    0 -0.38466122586E+02  0.17309075556E+02  0.70327641671E+01  0.17396319470E+03  0.16862528474E+03 0.  0.
         24    2    3    3    0    0  0.29590742538E+02 -0.22591621311E+02  0.22670855238E+02  0.93399912781E+02  0.82604979468E+02 0.  0.
         -6    2    1    2    0  502  0.38466122586E+02 -0.17309075556E+02  0.96854469168E+03  0.98448623593E+03  0.17133324915E+03 0.  0.
        -24    2    5    5    0    0 -0.14997305227E+02  0.31422878552E+02  0.72666631560E+03  0.73197805729E+03  0.80843216546E+02 0.  0.
          5    1    3    3  501    0 -0.68056865124E+02  0.39900696867E+02 -0.15638091071E+02  0.80563281918E+02  0.47000000000E+01 0. -1.
        -11    1    4    4    0    0  0.44391713654E+02  0.17434645043E+02  0.85779617512E+01  0.48457945857E+02  0.00000000000E+00 0.  1.
         12    1    4    4    0    0 -0.14800971115E+02 -0.40026266354E+02  0.14092893487E+02  0.44941966924E+02  0.00000000000E+00 0. -1.
         -5    1    5    5    0  502  0.53463427812E+02 -0.48731954108E+02  0.24187837608E+03  0.25250817864E+03  0.47000000000E+01 0.  1.
         11    1    6    6    0    0 -0.90131846661E+01  0.37568200152E+02  0.72020171478E+03  0.72123721281E+03  0.00000000000E+00 0. -1.
        -12    1    6    6    0    0 -0.59841205605E+01 -0.61453215996E+01  0.64646008186E+01  0.10740844482E+02  0.00000000000E+00 0.  1.
</event>
<event>
12    1  0.8344842E-002  0.1770141E+03  0.7818608E-02  0.1171225E+00
         21   -1    0    0  503  502  0.00000000000E+00  0.00000000000E+00  0.11643650942E+02  0.11643650942E+02  0.00000000000E+00 0. -1.
         21   -1    0    0  501  503 -0.00000000000E+00 -0.00000000000E+00 -0.26970706189E+04  0.26970706189E+04  0.00000000000E+00 0. -1.
          6    2    1    2  501    0  0.35822520245E+02  0.59716229162E+01 -0.11927715969E+04  0.12058350038E+04  0.17324855199E+03 0.  0.
         24    2    3    3    0    0 -0.38354580410E+02 -0.26485321200E+02 -0.73331387898E+03  0.73927398952E+03  0.81266477714E+02 0.  0.
         -6    2    1    2    0  502 -0.35822520245E+02 -0.59716229162E+01 -0.14926553711E+04  0.15028792661E+04  0.17119321929E+03 0.  0.
        -24    2    5    5    0    0 -0.46317353926E+02 -0.46647065777E+02 -0.13525430503E+04  0.13565297337E+04  0.80492046312E+02 0.  0.
          5    1    3    3  501    0  0.74177100654E+02  0.32456944117E+02 -0.45945771790E+03  0.46656101426E+03  0.47000000000E+01 0. -1.
        -13    1    4    4    0    0  0.19778153934E+02 -0.23254300243E+02 -0.37706471911E+03  0.37829848037E+03  0.00000000000E+00 0.  1.
         14    1    4    4    0    0 -0.58132734343E+02 -0.32310209572E+01 -0.35624915987E+03  0.36097550916E+03  0.00000000000E+00 0. -1.
         -5    1    5    5    0  502  0.10494833681E+02  0.40675442861E+02 -0.14011232078E+03  0.14634953235E+03  0.47000000000E+01 0.  1.
         11    1    6    6    0    0 -0.43131639072E+02 -0.28702282667E+02 -0.34931347060E+03  0.35313462031E+03  0.00000000000E+00 0. -1.
        -12    1    6    6    0    0 -0.31857148535E+01 -0.17944783110E+02 -0.10032295797E+04  0.10033951134E+04  0.00000000000E+00 0.  1.
</event>
<event>
12    1  0.8344842E-002  0.1792814E+03  0.7818608E-02  0.1168982E+00
         21   -1    0    0  501  502  0.00000000000E+00  0.00000000000E+00  0.58504357000E+03  0.58504357000E+03  0.00000000000E+00 0.  1.
         21   -1    0    0  502  503 -0.00000000000E+00 -0.00000000000E+00 -0.56080311362E+02  0.56080311362E+02  0.00000000000E+00 0.  1.
         -6    2    1    2    0  503 -0.42789190033E+02  0.15183575553E+02  0.20939268319E+03  0.27565761968E+03  0.17343693887E+03 0.  0.
        -24    2    3    3    0    0 -0.13198239305E+02  0.63867682285E+02  0.18911298103E+03  0.21500184557E+03  0.78795936719E+02 0.  0.
          6    2    1    2  501    0  0.42789190033E+02 -0.15183575553E+02  0.31957057545E+03  0.36546626168E+03  0.17140239201E+03 0.  0.
         24    2    5    5    0    0 -0.41738041422E+02 -0.14423292202E+02  0.14658935105E+03  0.17287855470E+03  0.80302312378E+02 0.  0.
          5    1    5    5  501    0  0.84527231455E+02 -0.76028335164E+00  0.17298122440E+03  0.19258770698E+03  0.47000000000E+01 0. -1.
        -11    1    6    6    0    0  0.95563754499E+01 -0.34112665108E+02  0.71936460008E+02  0.80186361128E+02  0.00000000000E+00 0.  1.
         12    1    6    6    0    0 -0.51294416872E+02  0.19689372907E+02  0.74652891044E+02  0.92692193570E+02  0.00000000000E+00 0. -1.
         -5    1    3    3    0  503 -0.29590950728E+02 -0.48684106732E+02  0.20279702165E+02  0.60655774112E+02  0.47000000000E+01 0.  1.
         11    1    4    4    0    0 -0.10335941300E+00  0.50029507518E+02  0.18945256236E+03  0.19594702267E+03  0.00000000000E+00 0. -1.
        -12    1    4    4    0    0 -0.13094879892E+02  0.13838174767E+02 -0.33958133816E+00  0.19054822900E+02  0.00000000000E+00 0.  1.
</event>
<event>
12    1  0.8344842E-002  0.1768587E+03  0.7818608E-02  0.1171197E+00
         21   -1    0    0  503  502  0.00000000000E+00  0.00000000000E+00  0.30976385147E+03  0.30976385147E+03  0.00000000000E+00 0.  1.
         21   -1    0    0  501  503 -0.00000000000E+00 -0.00000000000E+00 -0.40620900834E+03  0.40620900834E+03  0.00000000000E+00 0.  1.
          6    2    1    2  501    0  0.29050370355E+02 -0.24123430890E+02 -0.35886802730E+03  0.39951629805E+03  0.17146762800E+03 0.  0.
         24    2    3    3    0    0  0.63353319404E+02 -0.62208836899E+02 -0.20685124689E+03  0.23902211750E+03  0.80377558090E+02 0.  0.
         -6    2    1    2    0  502 -0.29050370355E+02  0.24123430890E+02  0.26242287043E+03  0.31645656176E+03  0.17278057941E+03 0.  0.
        -24    2    5    5    0    0 -0.71078982806E+02  0.51104741627E+02  0.22358551362E+03  0.25301504793E+03  0.79763501448E+02 0.  0.
          5    1    3    3  501    0 -0.34302949049E+02  0.38085406009E+02 -0.15201678041E+03  0.16049418055E+03  0.47000000000E+01 0. -1.
        -13    1    4    4    0    0  0.81630687333E+02 -0.54899879060E+02 -0.15524948277E+03  0.18379327445E+03  0.00000000000E+00 0.  1.
         14    1    4    4    0    0 -0.18277367929E+02 -0.73089578387E+01 -0.51601764124E+02  0.55228843042E+02  0.00000000000E+00 0. -1.
         -5    1    5    5    0  502  0.42028612451E+02 -0.26981310737E+02  0.38837356813E+02  0.63441513836E+02  0.47000000000E+01 0.  1.
         11    1    6    6    0    0 -0.64671890442E+02 -0.22320089763E+01  0.12277477703E+03  0.13878429721E+03  0.00000000000E+00 0. -1.
        -12    1    6    6    0    0 -0.64070923642E+01  0.53336750603E+02  0.10081073659E+03  0.11423075072E+03  0.00000000000E+00 0.  1.
</event>
<event>
12    1  0.8344842E-002  0.1823268E+03  0.7818608E-02  0.1165978E+00
         21   -1    0    0  501  502  0.00000000000E+00  0.00000000000E+00  0.78553281455E+03  0.78553281455E+03  0.00000000000E+00 0. -1.
         21   -1    0    0  502  503 -0.00000000000E+00 -0.00000000000E+00 -0.64912849995E+02  0.64912849995E+02  0.00000000000E+00 0. -1.
         -6    2    1    2    0  503 -0.20273693637E+02  0.51203396780E+02  0.10616868884E+03  0.20951398229E+03  0.17202182358E+03 0.  0.
        -24    2    3    3    0    0  0.14179026555E+02  0.35244238940E+02 -0.92146799775E+01  0.87952901152E+02  0.78788332395E+02 0.  0.
          6    2    1    2  501    0  0.20273693637E+02 -0.51203396780E+02  0.61445127572E+03  0.64093168226E+03  0.17381093348E+03 0.  0.
         24    2    5    5    0    0  0.48460066936E+02 -0.81929454782E+02  0.55197197859E+03  0.56567003964E+03  0.79048813711E+02 0.  0.
          5    1    5    5  501    0 -0.28186373299E+02  0.30726058002E+02  0.62479297131E+02  0.75261642622E+02  0.47000000000E+01 0. -1.
        -13    1    6    6    0    0  0.18532070897E+02 -0.56309820248E+02  0.14293977574E+03  0.15474499344E+03  0.00000000000E+00 0.  1.
         14    1    6    6    0    0  0.29927996040E+02 -0.25619634534E+02  0.40903220285E+03  0.41092504620E+03  0.00000000000E+00 0. -1.
         -5    1    3    3    0  503 -0.34452720192E+02  0.15959157840E+02  0.11538336881E+03  0.12156108113E+03  0.47000000000E+01 0.  1.
         13    1    4    4    0    0 -0.30829817356E+02  0.10947416679E+02 -0.15890842209E+02  0.36370900955E+02  0.00000000000E+00 0. -1.
        -14    1    4    4    0    0  0.45008843911E+02  0.24296822261E+02  0.66761622319E+01  0.51582000197E+02  0.00000000000E+00 0.  1.
</event>
<event>
12    1  0.8344842E-002  0.1833084E+03  0.7818608E-02  0.1164789E+00
         21   -1    0    0  503  502  0.00000000000E+00  0.00000000000E+00  0.50524170782E+03  0.50524170782E+03  0.00000000000E+00 0.  1.
         21   -1    0    0  501  503 -0.00000000000E+00 -0.00000000000E+00 -0.69564351015E+02  0.69564351015E+02  0.00000000000E+00 0. -1.
          6    2    1    2  501    0  0.20557220445E+02 -0.58569835431E+02  0.15499952239E+03  0.23957178290E+03  0.17180443034E+03 0.  0.
         24    2    3    3    0    0 -0.41696733673E+02 -0.73257004846E+02  0.80957227641E+02  0.14161455161E+03  0.79971258360E+02 0.  0.
         -6    2    1    2    0  502 -0.20557220445E+02  0.58569835431E+02  0.28067783441E+03  0.33523427594E+03  0.17247883377E+03 0.  0.
        -24    2    5    5    0    0  0.18926816530E+02  0.84720801195E+02  0.13015439009E+03  0.17736642146E+03  0.83563411032E+02 0.  0.
          5    1    3    3  501    0  0.62253954118E+02  0.14687169414E+02  0.74042294754E+02  0.97957231286E+02  0.47000000000E+01 0. -1.
        -13    1    4    4    0    0  0.22976614853E+02 -0.23056894719E+02  0.34711413893E+02  0.47586000868E+02  0.00000000000E+00 0.  1.
         14    1    4    4    0    0 -0.64673348526E+02 -0.50200110127E+02  0.46245813748E+02  0.94028550747E+02  0.00000000000E+00 0. -1.
         -5    1    5    5    0  502 -0.39484036975E+02 -0.26150965764E+02  0.15052344432E+03  0.15786785448E+03  0.47000000000E+01 0.  1.
         11    1    6    6    0    0  0.16863169393E+02 -0.13865187266E+02  0.21574254590E+02  0.30692969243E+02  0.00000000000E+00 0. -1.
        -12    1    6    6    0    0  0.20636471368E+01  0.98585988461E+02  0.10858013550E+03  0.14667345222E+03  0.00000000000E+00 0.  1.
</event>
<event>
12    1  0.8344842E-002  0.1844185E+03  0.7818608E-02  0.1165031E+00
         21   -1    0    0  501  502  0.00000000000E+00  0.00000000000E+00  0.49333267241E+03  0.49333267241E+03  0.00000000000E+00 0. -1.
         21   -1    0    0  502  503 -0.00000000000E+00 -0.00000000000E+00 -0.67942158466E+02  0.67942158466E+02  0.00000000000E+00 0. -1.
         -6    2    1    2    0  503 -0.11599018775E+01  0.50682783477E+02  0.17138717410E+03  0.24738333712E+03  0.17104052773E+03 0.  0.
        -24    2    3    3    0    0 -0.12923462218E+02  0.79857893007E+02  0.96821255596E+02  0.16631710143E+03  0.10836384886E+03 0.  0.
          6    2    1    2  501    0  0.11599018775E+01 -0.50682783477E+02  0.25400333985E+03  0.31389149375E+03  0.17731351692E+03 0.  0.
         24    2    5    5    0    0 -0.64081109829E+02 -0.33099548440E+02  0.10498027272E+03  0.15019810873E+03  0.79603049333E+02 0.  0.
          5    1    5    5  501    0  0.65241011707E+02 -0.17583235037E+02  0.14902306713E+03  0.16369338502E+03  0.47000000000E+01 0. -1.
        -13    1    6    6    0    0 -0.11203517308E+02  0.25549805360E+02  0.20969936494E+02  0.34900567196E+02  0.00000000000E+00 0.  1.
         14    1    6    6    0    0 -0.52877592522E+02 -0.58649353800E+02  0.84010336225E+02  0.11529754154E+03  0.00000000000E+00 0. -1.
         -5    1    3    3    0  503  0.11763560341E+02 -0.29175109529E+02  0.74565918500E+02  0.81066235694E+02  0.47000000000E+01 0.  1.
         11    1    4    4    0    0 -0.36241013995E+02  0.96697243374E+02  0.89462439994E+02  0.13662831383E+03  0.00000000000E+00 0. -1.
        -12    1    4    4    0    0  0.23317551777E+02 -0.16839350368E+02  0.73588156024E+01  0.29688787593E+02  0.00000000000E+00 0.  1.
</event>
<event>
12    1  0.8344842E-002  0.1875136E+03  0.7818608E-02  0.1161966E+00
         21   -1    0    0  501  502  0.00000000000E+00  0.00000000000E+00  0.78532303177E+03  0.78532303177E+03  0.00000000000E+00 0. -1.
         21   -1    0    0  502  503 -0.00000000000E+00 -0.00000000000E+00 -0.57873749391E+02  0.57873749391E+02  0.00000000000E+00 0. -1.
         -6    2    1    2    0  503 -0.22055232815E+02 -0.66339779195E+02  0.14975188562E+03  0.23582898506E+03  0.16823282482E+03 0.  0.
        -24    2    3    3    0    0 -0.28847287856E+02  0.16031126017E+02  0.12103630271E+03  0.14820608429E+03  0.78905600737E+02 0.  0.
          6    2    1    2  501    0  0.22055232815E+02  0.66339779195E+02  0.57769739676E+03  0.60736779611E+03  0.17399413188E+03 0.  0.
         24    2    5    5    0    0  0.75770002841E+02  0.26915072138E+02  0.28849305918E+03  0.31054996827E+03  0.82143308682E+02 0.  0.
          5    1    5    5  501    0 -0.53714770026E+02  0.39424707057E+02  0.28920433758E+03  0.29681782784E+03  0.47000000000E+01 0. -1.
        -13    1    6    6    0    0  0.71859178497E+02  0.29736392548E+02  0.12655486194E+03  0.14853998673E+03  0.00000000000E+00 0.  1.
         14    1    6    6    0    0  0.39108243437E+01 -0.28213204097E+01  0.16193819723E+03  0.16200998154E+03  0.00000000000E+00 0. -1.
         -5    1    3    3    0  503  0.67920550407E+01 -0.82370905211E+02  0.28715582908E+02  0.87622900767E+02  0.47000000000E+01 0.  1.
         13    1    4    4    0    0  0.14577452700E+02 -0.21291545124E+02  0.22475502045E+02  0.34219588150E+02  0.00000000000E+00 0. -1.
        -14    1    4    4    0    0 -0.43424740556E+02  0.37322671141E+02  0.98560800669E+02  0.11398649614E+03  0.00000000000E+00 0.  1.
</event>
<event>
12    1  0.8344842E-002  0.1937255E+03  0.7818608E-02  0.1155573E+00
         21   -1    0    0  503  502  0.00000000000E+00  0.00000000000E+00  0.85632526819E+03  0.85632526819E+03  0.00000000000E+00 0.  1.
         21   -1    0    0  501  503 -0.00000000000E+00 -0.00000000000E+00 -0.43457043027E+02  0.43457043027E+02  0.00000000000E+00 0. -1.
          6    2    1    2  501    0  0.12001663573E+02  0.88341546576E+02  0.38644354746E+03  0.43141539359E+03  0.16980093542E+03 0.  0.
         24    2    3    3    0    0  0.63950611329E+02  0.71011489132E+02  0.33618468410E+03  0.35693675631E+03  0.72466501954E+02 0.  0.
         -6    2    1    2    0  502 -0.12001663573E+02 -0.88341546576E+02  0.42642467769E+03  0.46836691762E+03  0.17199213644E+03 0.  0.
        -24    2    5    5    0    0 -0.55036106345E+02 -0.84214259974E+02  0.19930136860E+03  0.23711794943E+03  0.79892877211E+02 0.  0.
          5    1    3    3  501    0 -0.51948947756E+02  0.17330057444E+02  0.50258863365E+02  0.74478637278E+02  0.47000000000E+01 0. -1.
        -11    1    4    4    0    0  0.29021593415E+02  0.57126636496E+01  0.19765335578E+03  0.19985428808E+03  0.00000000000E+00 0.  1.
         12    1    4    4    0    0  0.34929017914E+02  0.65298825482E+02  0.13853132832E+03  0.15708246823E+03  0.00000000000E+00 0. -1.
         -5    1    5    5    0  502  0.43034442772E+02 -0.41272866020E+01  0.22712330909E+03  0.23124896820E+03  0.47000000000E+01 0.  1.
         11    1    6    6    0    0 -0.52584729200E+02 -0.13431338310E+02  0.11389709279E+03  0.12616696216E+03  0.00000000000E+00 0. -1.
        -12    1    6    6    0    0 -0.24513771454E+01 -0.70782921664E+02  0.85404275810E+02  0.11095098727E+03  0.00000000000E+00 0.  1.
</event>
<event>
12    1  0.8344842E-002  0.1805293E+03  0.7818608E-02  0.1168331E+00
         21   -1    0    0  501  502  0.00000000000E+00  0.00000000000E+00  0.12862124572E+02  0.12862124572E+02  0.00000000000E+00 0. -1.
         21   -1    0    0  502  503 -0.00000000000E+00 -0.00000000000E+00 -0.31126779018E+04  0.31126779018E+04  0.00000000000E+00 0. -1.
         -6    2    1    2    0  503 -0.20847062802E+02 -0.31549561370E+02 -0.22428080992E+04  0.22497244129E+04  0.17216791087E+03 0.  0.
        -24    2    3    3    0    0 -0.64016778497E+02  0.85744818886E+01 -0.18727923052E+04  0.18750147373E+04  0.64479276377E+02 0.  0.
          6    2    1    2  501    0  0.20847062802E+02  0.31549561370E+02 -0.85700767804E+03  0.87581561343E+03  0.17652437131E+03 0.  0.
         24    2    5    5    0    0  0.73130488358E+02 -0.81071782930E+00 -0.46274394145E+03  0.47675831398E+03  0.88418374842E+02 0.  0.
          5    1    5    5  501    0 -0.52283425556E+02  0.32360279199E+02 -0.39426373659E+03  0.39905729945E+03  0.47000000000E+01 0. -1.
        -13    1    6    6    0    0  0.27152169462E+02 -0.33814597793E+02 -0.91875545979E+02  0.10159617748E+03  0.00000000000E+00 0.  1.
         14    1    6    6    0    0  0.45978318896E+02  0.33003879964E+02 -0.37086839547E+03  0.37516213650E+03  0.00000000000E+00 0. -1.
         -5    1    3    3    0  503  0.43169715695E+02 -0.40124043258E+02 -0.37001579395E+03  0.37470967557E+03  0.47000000000E+01 0.  1.
         11    1    4    4    0    0 -0.48128930508E+02 -0.14822447960E+02 -0.66998441757E+03  0.67187440694E+03  0.00000000000E+00 0. -1.
        -12    1    4    4    0    0 -0.15887847988E+02  0.23396929849E+02 -0.12028078876E+04  0.12031403304E+04  0.00000000000E+00 0.  1.
</event>
<event>
12    1  0.8344842E-002  0.1823345E+03  0.7818608E-02  0.1165722E+00
         21   -1    0    0  503  502  0.00000000000E+00  0.00000000000E+00  0.46123494358E+03  0.46123494358E+03  0.00000000000E+00 0. -1.
         21   -1    0    0  501  503 -0.00000000000E+00 -0.00000000000E+00 -0.10740892126E+03  0.10740892126E+03  0.00000000000E+00 0. -1.
          6    2    1    2  501    0  0.51138844800E+02  0.24299572661E+02  0.34036524046E+03  0.38581319407E+03  0.17262002528E+03 0.  0.
         24    2    3    3    0    0  0.56589150193E+02 -0.23497988657E+02  0.31634605574E+03  0.33183797817E+03  0.79291420617E+02 0.  0.
         -6    2    1    2    0  502 -0.51138844800E+02 -0.24299572661E+02  0.13460781865E+02  0.18283067078E+03  0.17332112061E+03 0.  0.
        -24    2    5    5    0    0 -0.91696530453E+02 -0.37013837048E+02  0.39518008099E+02  0.13275425493E+03  0.79270053670E+02 0.  0.
          5    1    3    3  501    0 -0.54503053929E+01  0.47797561318E+02  0.24019184716E+02  0.53975215898E+02  0.47000000000E+01 0. -1.
        -11    1    4    4    0    0  0.70990611145E+02 -0.68035206366E+01  0.28310787201E+03  0.29195208846E+03  0.00000000000E+00 0.  1.
         12    1    4    4    0    0 -0.14401460953E+02 -0.16694468021E+02  0.33238183729E+02  0.39885889706E+02  0.00000000000E+00 0. -1.
         -5    1    5    5    0  502  0.40557685653E+02  0.12714264388E+02 -0.26057226234E+02  0.50076415841E+02  0.47000000000E+01 0.  1.
         13    1    6    6    0    0  0.11475828046E+02 -0.18254696038E+02  0.10299658846E+02  0.23895847529E+02  0.00000000000E+00 0. -1.
        -14    1    6    6    0    0 -0.10317235850E+03 -0.18759141010E+02  0.29218349253E+02  0.10885840740E+03  0.00000000000E+00 0.  1.
</event>
<event>
12    1  0.8344842E-002  0.1775907E+03  0.7818608E-02  0.1170781E+00
         21   -1    0    0  503  502  0.00000000000E+00  0.00000000000E+00  0.95813866230E+02  0.95813866230E+02  0.00000000000E+00 0.  1.
         21   -1    0    0  501  503 -0.00000000000E+00 -0.00000000000E+00 -0.34198929797E+03  0.34198929797E+03  0.00000000000E+00 0.  1.
          6    2    1    2  501    0  0.22084877488E+02  0.29319998911E+02 -0.17341894548E+03  0.24821881368E+03  0.17375570398E+03 0.  0.
         24    2    3    3    0    0 -0.47469747150E+02  0.46256722287E+02 -0.11367797721E+03  0.15486051626E+03  0.81645794405E+02 0.  0.
         -6    2    1    2    0  502 -0.22084877488E+02 -0.29319998911E+02 -0.72756486264E+02  0.18958435052E+03  0.17117627031E+03 0.  0.
        -24    2    5    5    0    0 -0.57675598625E+02 -0.27830059585E+02 -0.10091480153E+03  0.14393459621E+03  0.80202144137E+02 0.  0.
          5    1    3    3  501    0  0.69554624638E+02 -0.16936723376E+02 -0.59740968273E+02  0.93358297421E+02  0.47000000000E+01 0. -1.
        -11    1    4    4    0    0  0.20801793852E+02  0.26314130342E+02 -0.29618019929E+02  0.44747907076E+02  0.00000000000E+00 0.  1.
         12    1    4    4    0    0 -0.68271541002E+02  0.19942591945E+02 -0.84059957280E+02  0.11011260919E+03  0.00000000000E+00 0. -1.
         -5    1    5    5    0  502  0.35590721137E+02 -0.14899393258E+01  0.28158315265E+02  0.45649754313E+02  0.47000000000E+01 0.  1.
         11    1    6    6    0    0  0.49359056768E+01  0.20597973312E+02 -0.10101314756E+02  0.23466491626E+02  0.00000000000E+00 0. -1.
        -12    1    6    6    0    0 -0.62611504302E+02 -0.48428032898E+02 -0.90813486773E+02  0.12046810458E+03  0.00000000000E+00 0.  1.
</event>
<event>
12    1  0.8344842E-002  0.2291771E+03  0.7818608E-02  0.1127256E+00
         21   -1    0    0  503  502  0.00000000000E+00  0.00000000000E+00  0.43881642187E+03  0.43881642187E+03  0.00000000000E+00 0.  1.
         21   -1    0    0  501  503 -0.00000000000E+00 -0.00000000000E+00 -0.26576886165E+03  0.26576886165E+03  0.00000000000E+00 0. -1.
          6    2    1    2  501    0 -0.12833067022E+03 -0.79952742018E+02 -0.17476968178E+03  0.28805320096E+03  0.17195639866E+03 0.  0.
         24    2    3    3    0    0 -0.73245087119E+01  0.24713226257E+01 -0.78941017239E+02  0.11300623440E+03  0.80492042752E+02 0.  0.
         -6    2    1    2    0  502  0.12833067022E+03  0.79952742018E+02  0.34781724200E+03  0.41653208255E+03  0.17222351781E+03 0.  0.
        -24    2    5    5    0    0  0.48695776343E+02  0.80799410360E+02  0.29630696987E+03  0.32156982002E+03  0.81911570645E+02 0.  0.
          5    1    3    3  501    0 -0.12100616151E+03 -0.82424064644E+02 -0.95828664542E+02  0.17504696657E+03  0.47000000000E+01 0. -1.
        -13    1    4    4    0    0  0.17324578027E+02  0.47677979140E+01 -0.85523074211E+02  0.87390326257E+02  0.00000000000E+00 0.  1.
         14    1    4    4    0    0 -0.24649086739E+02 -0.22964752882E+01  0.65820569724E+01  0.25615908140E+02  0.00000000000E+00 0. -1.
         -5    1    5    5    0  502  0.79634893881E+02 -0.84666834260E+00  0.51510272132E+02  0.94962262536E+02  0.47000000000E+01 0.  1.
         11    1    6    6    0    0 -0.11110632156E+01  0.67470183579E+02  0.11771863865E+03  0.13568764873E+03  0.00000000000E+00 0. -1.
        -12    1    6    6    0    0  0.49806839558E+02  0.13329226781E+02  0.17858833122E+03  0.18588217128E+03  0.00000000000E+00 0.  1.
</event>
<event>
12    1  0.8344842E-002  0.2607556E+03  0.7818608E-02  0.1106939E+00
         21   -1    0    0  501  502  0.00000000000E+00  0.00000000000E+00  0.44925691317E+02  0.44925691317E+02  0.00000000000E+00 0. -1.
         21   -1    0    0  502  503 -0.00000000000E+00 -0.00000000000E+00 -0.25792103052E+04  0.25792103052E+04  0.00000000000E+00 0.  1.
         -6    2    1    2    0  503 -0.15315916220E+03  0.12316624448E+03 -0.42229754040E+03  0.49631511256E+03  0.17136459839E+03 0.  0.
        -24    2    3    3    0    0 -0.88016710773E+02 -0.28587064638E+01 -0.18185413879E+03  0.21710023721E+03  0.79413296268E+02 0.  0.
          6    2    1    2  501    0  0.15315916220E+03 -0.12316624448E+03 -0.21119870735E+04  0.21278208840E+04  0.16883323991E+03 0.  0.
         24    2    5    5    0    0  0.15695516333E+03 -0.14894140066E+03 -0.18808214283E+04  0.18951442547E+04  0.85229318630E+02 0.  0.
          5    1    5    5  501    0 -0.37960011323E+01  0.25775156177E+02 -0.23116564516E+03  0.23267662926E+03  0.47000000000E+01 0. -1.
        -13    1    6    6    0    0  0.72218991450E+02 -0.50467675893E+02 -0.11063276516E+04  0.11098303662E+04  0.00000000000E+00 0.  1.
         14    1    6    6    0    0  0.84736171884E+02 -0.98473724765E+02 -0.77449377679E+03  0.78531388857E+03  0.00000000000E+00 0. -1.
         -5    1    3    3    0  503 -0.65142451429E+02  0.12602495094E+03 -0.24044340161E+03  0.27921487535E+03  0.47000000000E+01 0.  1.
         13    1    4    4    0    0 -0.83857428604E+02  0.26787660747E+02 -0.14485154433E+03  0.16950403239E+03  0.00000000000E+00 0. -1.
        -14    1    4    4    0    0 -0.41592821693E+01 -0.29646367210E+02 -0.37002594454E+02  0.47596204820E+02  0.00000000000E+00 0.  1.
</event>
<event>
12    1  0.8344842E-002  0.2494590E+03  0.7818608E-02  0.1113765E+00
         21   -1    0    0  501  502  0.00000000000E+00  0.00000000000E+00  0.18856696116E+03  0.18856696116E+03  0.00000000000E+00 0. -1.
         21   -1    0    0  502  503 -0.00000000000E+00 -0.00000000000E+00 -0.37496923018E+03  0.37496923018E+03  0.00000000000E+00 0.  1.
         -6    2    1    2    0  503  0.10804717168E+03  0.14369592064E+03  0.55389885539E+01  0.24878032578E+03  0.17186698688E+03 0.  0.
        -24    2    3    3    0    0  0.12698710719E+02  0.12288790471E+03  0.22643811074E+02  0.14958875613E+03  0.81248750161E+02 0.  0.
          6    2    1    2  501    0 -0.10804717168E+03 -0.14369592064E+03 -0.19194125758E+03  0.31475586556E+03  0.17293669254E+03 0.  0.
         24    2    5    5    0    0 -0.12807980587E+03 -0.82321806151E+02 -0.18031105691E+03  0.24898778873E+03  0.79382146951E+02 0.  0.
          5    1    5    5  501    0  0.20032634183E+02 -0.61374114493E+02 -0.11630200667E+02  0.65768076829E+02  0.47000000000E+01 0. -1.
        -13    1    6    6    0    0 -0.28271566667E+02  0.15066988938E+02 -0.38743997468E+02  0.50273183481E+02  0.00000000000E+00 0.  1.
         14    1    6    6    0    0 -0.99808239200E+02 -0.97388795089E+02 -0.14156705944E+03  0.19871460525E+03  0.00000000000E+00 0. -1.
         -5    1    3    3    0  503  0.95348460965E+02  0.20808015937E+02 -0.17104822520E+02  0.99191569647E+02  0.47000000000E+01 0.  1.
         13    1    4    4    0    0  0.10752210071E+02  0.93797464567E+02 -0.21364507044E+02  0.96798845767E+02  0.00000000000E+00 0. -1.
        -14    1    4    4    0    0  0.19465006485E+01  0.29090440141E+02  0.44008318119E+02  0.52789910362E+02  0.00000000000E+00 0.  1.
</event>
<event>
12    1  0.8344842E-002  0.2396586E+03  0.7818608E-02  0.1122138E+00
         21   -1    0    0  501  502  0.00000000000E+00  0.00000000000E+00  0.92447750412E+03  0.92447750412E+03  0.00000000000E+00 0.  1.
         21   -1    0    0  502  503 -0.00000000000E+00 -0.00000000000E+00 -0.12666079925E+03  0.12666079925E+03  0.00000000000E+00 0.  1.
         -6    2    1    2    0  503  0.10023048207E+03 -0.10757638575E+03  0.98542347432E+01  0.22753579473E+03  0.17336840438E+03 0.  0.
        -24    2    3    3    0    0  0.74012562693E+02  0.20738469074E+02  0.29053710432E+01  0.96301431965E+02  0.57944638075E+02 0.  0.
          6    2    1    2  501    0 -0.10023048207E+03  0.10757638575E+03  0.78796247013E+03  0.82360250864E+03  0.18925487999E+03 0.  0.
         24    2    5    5    0    0 -0.72006559173E+01  0.92716016533E+02  0.61056172179E+03  0.62268338402E+03  0.79378028777E+02 0.  0.
          5    1    5    5  501    0 -0.93029826148E+02  0.14860369217E+02  0.17740074834E+03  0.20091912462E+03  0.47000000000E+01 0. -1.
        -13    1    6    6    0    0 -0.34378953246E+02  0.11853610558E+02  0.15559816340E+03  0.15979114170E+03  0.00000000000E+00 0.  1.
         14    1    6    6    0    0  0.27178297328E+02  0.80862405974E+02  0.45496355838E+03  0.46289224232E+03  0.00000000000E+00 0. -1.
         -5    1    3    3    0  503  0.26217919372E+02 -0.12831485482E+03  0.69488637001E+01  0.13123436277E+03  0.47000000000E+01 0.  1.
         13    1    4    4    0    0  0.27271464461E+02  0.13111193556E+02 -0.26779636633E+02  0.40407735751E+02  0.00000000000E+00 0. -1.
        -14    1    4    4    0    0  0.46741098232E+02  0.76272755185E+01  0.29685007676E+02  0.55893696214E+02  0.00000000000E+00 0.  1.
</event>
<event>
12    1  0.8344842E-002  0.1867787E+03  0.7818608E-02  0.1161451E+00
         21   -1    0    0  503  502  0.00000000000E+00  0.00000000000E+00  0.54041045424E+02  0.54041045424E+02  0.00000000000E+00 0.  1.
         21   -1    0    0  501  503 -0.00000000000E+00 -0.00000000000E+00 -0.73055188110E+03  0.73055188110E+03  0.00000000000E+00 0.  1.
          6    2    1    2  501    0 -0.72667499686E+02  0.48281565258E+01 -0.47286396046E+03  0.50841578958E+03  0.17199538767E+03 0.  0.
         24    2    3    3    0    0 -0.42385235887E+02  0.60784409969E+02 -0.19081927238E+03  0.21924557348E+03  0.78519895969E+02 0.  0.
         -6    2    1    2    0  502  0.72667499686E+02 -0.48281565258E+01 -0.20364687521E+03  0.27617713695E+03  0.17174948205E+03 0.  0.
        -24    2    5    5    0    0  0.73411763764E+02 -0.92723490940E+01 -0.22711986513E+03  0.25181782596E+03  0.79708975777E+02 0.  0.
          5    1    3    3  501    0 -0.30282263799E+02 -0.55956253443E+02 -0.28204468808E+03  0.28917021609E+03  0.47000000000E+01 0. -1.
        -11    1    4    4    0    0  0.20603436339E+01  0.43840297330E+02 -0.15088584368E+03  0.15713928378E+03  0.00000000000E+00 0.  1.
         12    1    4    4    0    0 -0.44445579521E+02  0.16944112639E+02 -0.39933428705E+02  0.62106289699E+02  0.00000000000E+00 0. -1.
         -5    1    5    5    0  502 -0.74426407810E+00  0.44441925681E+01  0.23472989911E+02  0.24359310991E+02  0.47000000000E+01 0.  1.
         13    1    6    6    0    0  0.64834743580E+02 -0.40244565692E+02 -0.16826624827E+03  0.18476119546E+03  0.00000000000E+00 0. -1.
        -14    1    6    6    0    0  0.85770201837E+01  0.30972216598E+02 -0.58853616858E+02  0.67056630496E+02  0.00000000000E+00 0.  1.
</event>
<event>
12    1  0.8344842E-002  0.1900718E+03  0.7818608E-02  0.1158893E+00
         21   -1    0    0  501  502  0.00000000000E+00  0.00000000000E+00  0.45381297798E+03  0.45381297798E+03  0.00000000000E+00 0.  1.
         21   -1    0    0  502  503 -0.00000000000E+00 -0.00000000000E+00 -0.11888761263E+03  0.11888761263E+03  0.00000000000E+00 0.  1.
         -6    2    1    2    0  503 -0.19091811275E+02  0.76620710682E+02  0.16093239286E+01  0.19007865306E+03  0.17289324412E+03 0.  0.
        -24    2    3    3    0    0  0.50842139048E+02  0.40730739341E+02  0.29942422010E+02  0.10639053026E+03  0.78603308222E+02 0.  0.
          6    2    1    2  501    0  0.19091811275E+02 -0.76620710682E+02  0.33331604142E+03  0.38262193755E+03  0.17048382053E+03 0.  0.
         24    2    5    5    0    0 -0.49949076877E+02 -0.58424020002E+02  0.15222243371E+03  0.18790483881E+03  0.78919469896E+02 0.  0.
          5    1    5    5  501    0  0.69040888152E+02 -0.18196690680E+02  0.18109360771E+03  0.19471709874E+03  0.47000000000E+01 0. -1.
        -11    1    6    6    0    0 -0.35719853806E+02  0.12487031524E+02  0.51766875066E+02  0.64122096553E+02  0.00000000000E+00 0.  1.
         12    1    6    6    0    0 -0.14229223071E+02 -0.70911051526E+02  0.10045555864E+03  0.12378274225E+03  0.00000000000E+00 0. -1.
         -5    1    3    3    0  503 -0.69933950323E+02  0.35889971341E+02 -0.28333098081E+02  0.83688122798E+02  0.47000000000E+01 0.  1.
         13    1    4    4    0    0  0.17435191992E+02  0.59918059338E+02  0.10652171528E+02  0.63305833166E+02  0.00000000000E+00 0. -1.
        -14    1    4    4    0    0  0.33406947055E+02 -0.19187319997E+02  0.19290250482E+02  0.43084697096E+02  0.00000000000E+00 0.  1.
</event>
<event>
12    1  0.8344842E-002  0.1790674E+03  0.7818608E-02  0.1168830E+00
         21   -1    0    0  503  502  0.00000000000E+00  0.00000000000E+00  0.39671007013E+03  0.39671007013E+03  0.00000000000E+00 0.  1.
         21   -1    0    0  501  503 -0.00000000000E+00 -0.00000000000E+00 -0.85757980637E+02  0.85757980637E+02  0.00000000000E+00 0.  1.
          6    2    1    2  501    0  0.10972997144E+01 -0.50675972902E+02  0.21441364436E+03  0.27903552304E+03  0.17122603171E+03 0.  0.
         24    2    3    3    0    0 -0.30382483134E+02 -0.20947129581E+02  0.33244562686E+02  0.92704884098E+02  0.78275903498E+02 0.  0.
         -6    2    1    2    0  502 -0.10972997144E+01  0.50675972902E+02  0.96538445132E+02  0.20343252773E+03  0.17174359858E+03 0.  0.
        -24    2    5    5    0    0  0.45564768922E+02 -0.15649054404E+02  0.28653907257E+02  0.97570549761E+02  0.79861910251E+02 0.  0.
          5    1    3    3  501    0  0.31479782849E+02 -0.29728843321E+02  0.18116908168E+03  0.18633063894E+03  0.47000000000E+01 0. -1.
        -13    1    4    4    0    0  0.40853973963E+00 -0.25849585889E+02 -0.18848324219E+02  0.31994176364E+02  0.00000000000E+00 0.  1.
         14    1    4    4    0    0 -0.30791022874E+02  0.49024563076E+01  0.52092886905E+02  0.60710707734E+02  0.00000000000E+00 0. -1.
         -5    1    5    5    0  502 -0.46662068636E+02  0.66325027306E+02  0.67884537874E+02  0.10586197797E+03  0.47000000000E+01 0.  1.
         13    1    6    6    0    0  0.30242277954E+02  0.30527064381E+02  0.22575986550E+02  0.48540418254E+02  0.00000000000E+00 0. -1.
        -14    1    6    6    0    0  0.15322490967E+02 -0.46176118785E+02  0.60779207075E+01  0.49030131507E+02  0.00000000000E+00 0.  1.
</event>
<event>
12    1  0.8344842E-002  0.2256775E+03  0.7818608E-02  0.1129881E+00
         21   -1    0    0  501  502  0.00000000000E+00  0.00000000000E+00  0.11855015243E+04  0.11855015243E+04  0.00000000000E+00 0.  1.
         21   -1    0    0  502  503 -0.00000000000E+00 -0.00000000000E+00 -0.12578850242E+03  0.12578850242E+03  0.00000000000E+00 0. -1.
         -6    2    1    2    0  503  0.68591574236E+02 -0.12947324981E+03 -0.23598329096E+01  0.22568983695E+03  0.17164558607E+03 0.  0.
        -24    2    3    3    0    0  0.10808674944E+03 -0.11136060874E+03  0.20978386808E+02  0.17614491662E+03  0.80641232334E+02 0.  0.
          6    2    1    2  501    0 -0.68591574236E+02  0.12947324981E+03  0.10620728548E+04  0.10856001897E+04  0.17047256862E+03 0.  0.
         24    2    5    5    0    0  0.12949263188E+02  0.13925240988E+02  0.35325720706E+03  0.36279872118E+03  0.80440425146E+02 0.  0.
          5    1    5    5  501    0 -0.81540837425E+02  0.11554800883E+03  0.70881564770E+03  0.72280146855E+03  0.47000000000E+01 0. -1.
        -13    1    6    6    0    0  0.38478232302E+02  0.32947254880E+02  0.20563390808E+03  0.21178149144E+03  0.00000000000E+00 0.  1.
         14    1    6    6    0    0 -0.25528969113E+02 -0.19022013892E+02  0.14762329898E+03  0.15101722974E+03  0.00000000000E+00 0. -1.
         -5    1    3    3    0  503 -0.39495175208E+02 -0.18112641073E+02 -0.23338219718E+02  0.49544920334E+02  0.47000000000E+01 0.  1.
         13    1    4    4    0    0  0.47900295322E+02 -0.45401817031E+01 -0.11162817893E+02  0.49392914928E+02  0.00000000000E+00 0. -1.
        -14    1    4    4    0    0  0.60186454123E+02 -0.10682042704E+03  0.32141204702E+02  0.12675200169E+03  0.00000000000E+00 0.  1.
</event>
<event>
12    1  0.8344842E-002  0.1915807E+03  0.7818608E-02  0.1157257E+00
         21   -1    0    0  503  502  0.00000000000E+00  0.00000000000E+00  0.10117330538E+03  0.10117330538E+03  0.00000000000E+00 0. -1.
         21   -1    0    0  501  503 -0.00000000000E+00 -0.00000000000E+00 -0.10397796599E+04  0.10397796599E+04  0.00000000000E+00 0. -1.
          6    2    1    2  501    0 -0.67411502697E+02 -0.50918785360E+02 -0.79579592535E+01  0.19079003746E+03  0.17088146734E+03 0.  0.
         24    2    3    3    0    0 -0.56131552665E+02 -0.27625685619E+02 -0.69774292459E+02  0.12361001945E+03  0.80604313221E+02 0.  0.
         -6    2    1    2    0  502  0.67411502697E+02  0.50918785360E+02 -0.93064839529E+03  0.95016292786E+03  0.17194801662E+03 0.  0.
        -24    2    5    5    0    0  0.10861201362E+03  0.17056648455E+02 -0.67817756595E+03  0.69207818192E+03  0.83426016201E+02 0.  0.
          5    1    3    3  501    0 -0.11279950032E+02 -0.23293099741E+02  0.61816333206E+02  0.67180018006E+02  0.47000000000E+01 0. -1.
        -11    1    4    4    0    0 -0.75007373512E+01 -0.17484900491E+02 -0.71415139385E+02  0.73906054822E+02  0.00000000000E+00 0.  1.
         12    1    4    4    0    0 -0.48630815314E+02 -0.10140785128E+02  0.16408469259E+01  0.49703964628E+02  0.00000000000E+00 0. -1.
         -5    1    5    5    0  502 -0.41200510918E+02  0.33862136905E+02 -0.25247082934E+03  0.25808474594E+03  0.47000000000E+01 0.  1.
         11    1    6    6    0    0  0.16428388988E+02 -0.30228788585E+02 -0.16678036945E+03  0.17029199411E+03  0.00000000000E+00 0. -1.
        -12    1    6    6    0    0  0.92183624628E+02  0.47285437040E+02 -0.51139719650E+03  0.52178618781E+03  0.00000000000E+00 0.  1.
</event>
<event>
12    1  0.8344842E-002  0.1773580E+03  0.7818608E-02  0.1170922E+00
         21   -1    0    0  503  502  0.00000000000E+00  0.00000000000E+00  0.40233060618E+02  0.40233060618E+02  0.00000000000E+00 0. -1.
         21   -1    0    0  501  503 -0.00000000000E+00 -0.00000000000E+00 -0.78933076070E+03  0.78933076070E+03  0.00000000000E+00 0. -1.
          6    2    1    2  501    0  0.14749532484E+02 -0.39997088991E+02 -0.43317059787E+03  0.46725761276E+03  0.16992820246E+03 0.  0.
         24    2    3    3    0    0 -0.17424163766E+02  0.28518870958E+02 -0.14125827251E+03  0.16565443109E+03  0.79815809863E+02 0.  0.
         -6    2    1    2    0  502 -0.14749532484E+02  0.39997088991E+02 -0.31592710221E+03  0.36230620856E+03  0.17215847063E+03 0.  0.
        -24    2    5    5    0    0 -0.41631296736E+02 -0.35643646281E+02 -0.19549503454E+03  0.21749556321E+03  0.77989596083E+02 0.  0.
          5    1    3    3  501    0  0.32173696251E+02 -0.68515959949E+02 -0.29191232536E+03  0.30160318167E+03  0.47000000000E+01 0. -1.
        -13    1    4    4    0    0  0.26212439166E+02  0.25480485885E+02 -0.34428582878E+02  0.50216276714E+02  0.00000000000E+00 0.  1.
         14    1    4    4    0    0 -0.43636602933E+02  0.30383850734E+01 -0.10682968963E+03  0.11543815437E+03  0.00000000000E+00 0. -1.
         -5    1    5    5    0  502  0.26881764252E+02  0.75640735272E+02 -0.12043206767E+03  0.14481064535E+03  0.47000000000E+01 0.  1.
         13    1    6    6    0    0 -0.71747218999E+01  0.24182818310E+02 -0.38976896279E+02  0.46427187932E+02  0.00000000000E+00 0. -1.
        -14    1    6    6    0    0 -0.34456574836E+02 -0.59826464590E+02 -0.15651813826E+03  0.17106837528E+03  0.00000000000E+00 0.  1.
</event>
<event>
12    1  0.8344842E-002  0.1889795E+03  0.7818608E-02  0.1159882E+00
         21   -1    0    0  501  502  0.00000000000E+00  0.00000000000E+00  0.87765747648E+02  0.87765747648E+02  0.00000000000E+00 0.  1.
         21   -1    0    0  502  503 -0.00000000000E+00 -0.00000000000E+00 -0.41182115794E+03  0.41182115794E+03  0.00000000000E+00 0.  1.
         -6    2    1    2    0  503 -0.54312772584E+02  0.51095061882E+02 -0.20104335806E+03  0.27591971196E+03  0.17364525047E+03 0.  0.
        -24    2    3    3    0    0 -0.10310826110E+03  0.43384914169E+02 -0.13405115809E+03  0.19255010757E+03  0.81192774659E+02 0.  0.
          6    2    1    2  501    0  0.54312772584E+02 -0.51095061882E+02 -0.12301205224E+03  0.22366719364E+03  0.17127307406E+03 0.  0.
         24    2    5    5    0    0  0.76400804594E+02  0.20769806233E+01 -0.18743869693E+02  0.10446530123E+03  0.68704219076E+02 0.  0.
          5    1    5    5  501    0 -0.22088032010E+02 -0.53172042505E+02 -0.10426818254E+03  0.11920189241E+03  0.47000000000E+01 0. -1.
        -11    1    6    6    0    0  0.75603212127E+02 -0.21585277629E+02 -0.18576731842E+02  0.80789014477E+02  0.00000000000E+00 0.  1.
         12    1    6    6    0    0  0.79759246699E+00  0.23662258252E+02 -0.16713785070E+00  0.23676286753E+02  0.00000000000E+00 0. -1.
         -5    1    3    3    0  503  0.48795488520E+02  0.77101477123E+01 -0.66992199973E+02  0.83369604382E+02  0.47000000000E+01 0.  1.
         11    1    4    4    0    0 -0.33063435851E+02 -0.52204647066E+01 -0.91161807707E+02  0.97112919976E+02  0.00000000000E+00 0. -1.
        -12    1    4    4    0    0 -0.70044825254E+02  0.48605378876E+02 -0.42889350381E+02  0.95437187598E+02  0.00000000000E+00 0.  1.
</event>
<event>
12    1  0.8344842E-002  0.1814694E+03  0.7818608E-02  0.1166416E+00
         21   -1    0    0  501  502  0.00000000000E+00  0.00000000000E+00  0.24244588823E+03  0.24244588823E+03  0.00000000000E+00 0. -1.
         21   -1    0    0  502  503 -0.00000000000E+00 -0.00000000000E+00 -0.15282151593E+03  0.15282151593E+03  0.00000000000E+00 0. -1.
         -6    2    1    2    0  503 -0.15049357794E+02  0.54688548798E+02 -0.21270427096E+02  0.18259672901E+03  0.17225508363E+03 0.  0.
        -24    2    3    3    0    0 -0.12818502878E+02  0.29968258650E+02 -0.70658022135E+02  0.12712336601E+03  0.10052553681E+03 0.  0.
          6    2    1    2  501    0  0.15049357794E+02 -0.54688548798E+02  0.11089479939E+03  0.21267067515E+03  0.17237702572E+03 0.  0.
         24    2    5    5    0    0 -0.30841116875E+02 -0.24046905097E+02 -0.69766923405E+00  0.88092125434E+02  0.78932298119E+02 0.  0.
          5    1    5    5  501    0  0.45890474669E+02 -0.30641643701E+02  0.11159246863E+03  0.12457854971E+03  0.47000000000E+01 0. -1.
        -13    1    6    6    0    0 -0.51018870688E+02 -0.10832368211E+02  0.20442410173E+02  0.56019260090E+02  0.00000000000E+00 0.  1.
         14    1    6    6    0    0  0.20177753813E+02 -0.13214536886E+02 -0.21140079407E+02  0.32072865344E+02  0.00000000000E+00 0. -1.
         -5    1    3    3    0  503 -0.22308549161E+01  0.24720290148E+02  0.49387595039E+02  0.55473362998E+02  0.47000000000E+01 0.  1.
         13    1    4    4    0    0 -0.73222838331E+01  0.65778093391E+02 -0.60066797356E+02  0.89377813552E+02  0.00000000000E+00 0. -1.
        -14    1    4    4    0    0 -0.54962190448E+01 -0.35809834741E+02 -0.10591224778E+02  0.37745552457E+02  0.00000000000E+00 0.  1.
</event>
<event>
12    1  0.8344842E-002  0.1834376E+03  0.7818608E-02  0.1164611E+00
         21   -1    0    0  503  502  0.00000000000E+00  0.00000000000E+00  0.59914645566E+03  0.59914645566E+03  0.00000000000E+00 0.  1.
         21   -1    0    0  501  503 -0.00000000000E+00 -0.00000000000E+00 -0.97570620586E+02  0.97570620586E+02  0.00000000000E+00 0.  1.
          6    2    1    2  501    0 -0.40299911220E+02 -0.50245467712E+02  0.23671412623E+02  0.18495859802E+03  0.17175755394E+03 0.  0.
         24    2    3    3    0    0  0.21451143305E+02  0.15979791991E+02  0.37927171325E+02  0.93174642923E+02  0.80793183239E+02 0.  0.
         -6    2    1    2    0  502  0.40299911220E+02  0.50245467712E+02  0.47790442246E+03  0.51175847823E+03  0.17133421481E+03 0.  0.
        -24    2    5    5    0    0  0.18700952515E+02  0.32002710351E+02  0.10224848213E+03  0.13501083229E+03  0.79995460148E+02 0.  0.
          5    1    3    3  501    0 -0.61751054525E+02 -0.66225259703E+02 -0.14255758702E+02  0.91783955100E+02  0.47000000000E+01 0. -1.
        -11    1    4    4    0    0  0.87203027260E+01  0.37034001302E+02 -0.99667332477E+01  0.39330607721E+02  0.00000000000E+00 0.  1.
         12    1    4    4    0    0  0.12730840579E+02 -0.21054209311E+02  0.47893904573E+02  0.53844035202E+02  0.00000000000E+00 0. -1.
         -5    1    5    5    0  502  0.21598958705E+02  0.18242757361E+02  0.37565594033E+03  0.37674764594E+03  0.47000000000E+01 0.  1.
         11    1    6    6    0    0 -0.14493870948E+01  0.56453757436E+02  0.64570085815E+02  0.85781253393E+02  0.00000000000E+00 0. -1.
        -12    1    6    6    0    0  0.20150339610E+02 -0.24451047085E+02  0.37678396312E+02  0.49229578899E+02  0.00000000000E+00 0.  1.
</event>
<event>
12    1  0.8344842E-002  0.1975973E+03  0.7818608E-02  0.1151974E+00
         21   -1    0    0  503  502  0.00000000000E+00  0.00000000000E+00  0.18011728161E+04  0.18011728161E+04  0.00000000000E+00 0.  1.
         21   -1    0    0  501  503 -0.00000000000E+00 -0.00000000000E+00 -0.24794198883E+02  0.24794198883E+02  0.00000000000E+00 0.  1.
          6    2    1    2  501    0 -0.70664963179E+02 -0.64689380803E+02  0.12186947341E+04  0.12346098706E+04  0.17281905154E+03 0.  0.
         24    2    3    3    0    0  0.12427002743E+02  0.10112663897E+02  0.39628376249E+03  0.40462100503E+03  0.80128901971E+02 0.  0.
         -6    2    1    2    0  502  0.70664963179E+02  0.64689380803E+02  0.55768388310E+03  0.59135714439E+03  0.17179553472E+03 0.  0.
        -24    2    5    5    0    0  0.69067582264E+02  0.10220002613E+03  0.50981410167E+03  0.53033906418E+03  0.78319400367E+02 0.  0.
          5    1    3    3  501    0 -0.83091965921E+02 -0.74802044701E+02  0.82241097161E+03  0.82998886553E+03  0.47000000000E+01 0. -1.
        -11    1    4    4    0    0  0.27342431466E+02 -0.27690442289E+02  0.14786406193E+03  0.15289914965E+03  0.00000000000E+00 0.  1.
         12    1    4    4    0    0 -0.14915428723E+02  0.37803106187E+02  0.24841970056E+03  0.25172185538E+03  0.00000000000E+00 0. -1.
         -5    1    5    5    0  502  0.15973809147E+01 -0.37510645331E+02  0.47869781426E+02  0.61018080211E+02  0.47000000000E+01 0.  1.
         13    1    6    6    0    0  0.16683721410E+02 -0.11692463347E+02  0.58953244451E+02  0.62374235791E+02  0.00000000000E+00 0. -1.
        -14    1    6    6    0    0  0.52383860854E+02  0.11389248948E+03  0.45086085722E+03  0.46796482839E+03  0.00000000000E+00 0.  1.
</event>
<event>
12    1  0.8344842E-002  0.1872108E+03  0.7818608E-02  0.1161567E+00
         21   -1    0    0  501  502  0.00000000000E+00  0.00000000000E+00  0.59844424138E+03  0.59844424138E+03  0.00000000000E+00 0. -1.
         21   -1    0    0  502  503 -0.00000000000E+00 -0.00000000000E+00 -0.10752526314E+03  0.10752526314E+03  0.00000000000E+00 0.  1.
         -6    2    1    2    0  503 -0.59898528896E+02 -0.34467442828E+02  0.45597903576E+01  0.18482350397E+03  0.17135663848E+03 0.  0.
        -24    2    3    3    0    0  0.14513473806E+02  0.69255327490E+01  0.41494673006E+02  0.91889117815E+02  0.80394018180E+02 0.  0.
          6    2    1    2  501    0  0.59898528896E+02  0.34467442828E+02  0.48635918789E+03  0.52114600055E+03  0.17398866592E+03 0.  0.
         24    2    5    5    0    0  0.43087615199E+02  0.26140224815E+02  0.49201324080E+03  0.50099636797E+03  0.79877892184E+02 0.  0.
          5    1    5    5  501    0  0.16810913697E+02  0.83272180128E+01 -0.56540529056E+01  0.20149632588E+02  0.47000000000E+01 0. -1.
        -11    1    6    6    0    0  0.47707385096E+01  0.28161881396E+02  0.52125735943E+02  0.59438572134E+02  0.00000000000E+00 0.  1.
         12    1    6    6    0    0  0.38316876689E+02 -0.20216565807E+01  0.43988750485E+03  0.44155779583E+03  0.00000000000E+00 0. -1.
         -5    1    3    3    0  503 -0.74412002702E+02 -0.41392975577E+02 -0.36934882649E+02  0.92934386152E+02  0.47000000000E+01 0.  1.
         13    1    4    4    0    0 -0.82502577246E+01 -0.30153404698E+02  0.36556668167E+02  0.48100774992E+02  0.00000000000E+00 0. -1.
        -14    1    4    4    0    0  0.22763731531E+02  0.37078937447E+02  0.49380048391E+01  0.43788342823E+02  0.00000000000E+00 0.  1.
</event>
<event>
12    1  0.8344842E-002  0.1780952E+03  0.7818608E-02  0.1172979E+00
         21   -1    0    0  501  502  0.00000000000E+00  0.00000000000E+00  0.25087140218E+03  0.25087140218E+03  0.00000000000E+00 0. -1.
         21   -1    0    0  502  503 -0.00000000000E+00 -0.00000000000E+00 -0.62752184877E+03  0.62752184877E+03  0.00000000000E+00 0. -1.
         -6    2    1    2    0  503  0.38976355042E+01  0.42833064740E+02 -0.58560259539E+03  0.61208519817E+03  0.17282368788E+03 0.  0.
        -24    2    3    3    0    0 -0.50466882115E+02  0.43003277611E+02 -0.50001585750E+03  0.51058293488E+03  0.79264667864E+02 0.  0.
          6    2    1    2  501    0 -0.38976355042E+01 -0.42833064740E+02  0.20895214880E+03  0.26630805278E+03  0.15940236977E+03 0.  0.
         24    2    5    5    0    0  0.49784888056E+02 -0.34084581802E+02  0.17460013824E+03  0.20180611545E+03  0.81241652890E+02 0.  0.
          5    1    5    5  501    0 -0.53682523560E+02 -0.87484829377E+01  0.34352010562E+02  0.64501937329E+02  0.47000000000E+01 0. -1.
        -13    1    6    6    0    0  0.15088160470E+02  0.58999653487E-01 -0.48673248348E+01  0.15853924384E+02  0.00000000000E+00 0.  1.
         14    1    6    6    0    0  0.34696727587E+02 -0.34143581455E+02  0.17946746308E+03  0.18595219107E+03  0.00000000000E+00 0. -1.
         -5    1    3    3    0  503  0.54364517619E+02 -0.17021287131E+00 -0.85586737895E+02  0.10150226328E+03  0.47000000000E+01 0.  1.
         11    1    4    4    0    0 -0.13556549168E+01 -0.21841052210E+02 -0.96534780973E+02  0.98984005271E+02  0.00000000000E+00 0. -1.
        -12    1    4    4    0    0 -0.49111227199E+02  0.64844329821E+02 -0.40348107652E+03  0.41159892961E+03  0.00000000000E+00 0.  1.
</event>
<event>
12    1  0.8344842E-002  0.2136988E+03  0.7818608E-02  0.1138967E+00
         21   -1    0    0  501  502  0.00000000000E+00  0.00000000000E+00  0.16436377231E+03  0.16436377231E+03  0.00000000000E+00 0. -1.
         21   -1    0    0  502  503 -0.00000000000E+00 -0.00000000000E+00 -0.28350580716E+03  0.28350580716E+03  0.00000000000E+00 0. -1.
         -6    2    1    2    0  503 -0.73777389600E+00  0.12576774179E+03 -0.96139766259E+02  0.23293637202E+03  0.17087547971E+03 0.  0.
        -24    2    3    3    0    0  0.13788713263E+02  0.26905952256E+02  0.12643329908E+02  0.85150972636E+02  0.78592464457E+02 0.  0.
          6    2    1    2  501    0  0.73777389600E+00 -0.12576774179E+03 -0.23002268589E+02  0.21493320745E+03  0.17276895011E+03 0.  0.
         24    2    5    5    0    0  0.50871909907E+02 -0.35363172176E+02  0.17654781803E+02  0.10375090874E+03  0.81326838010E+02 0.  0.
          5    1    5    5  501    0 -0.50134136011E+02 -0.90404569609E+02 -0.40657050392E+02  0.11118229871E+03  0.47000000000E+01 0. -1.
        -11    1    6    6    0    0 -0.16584362307E+02  0.99571955927E+01 -0.37690465545E+01  0.19707676909E+02  0.00000000000E+00 0.  1.
         12    1    6    6    0    0  0.67456272214E+02 -0.45320367769E+02  0.21423828357E+02  0.84043231835E+02  0.00000000000E+00 0. -1.
         -5    1    3    3    0  503 -0.14526487159E+02  0.98861789529E+02 -0.10878309617E+03  0.14778539938E+03  0.47000000000E+01 0.  1.
         11    1    4    4    0    0  0.42736663282E+02  0.28665350288E+02 -0.41695209190E+01  0.51628573487E+02  0.00000000000E+00 0. -1.
        -12    1    4    4    0    0 -0.28947950020E+02 -0.17593980316E+01  0.16812850827E+02  0.33522399149E+02  0.00000000000E+00 0.  1.
</event>
<event>
12    1  0.8344842E-002  0.1836572E+03  0.7818608E-02  0.1164451E+00
         21   -1    0    0  501  502  0.00000000000E+00  0.00000000000E+00  0.72635205132E+03  0.72635205132E+03  0.00000000000E+00 0.  1.
         21   -1    0    0  502  503 -0.00000000000E+00 -0.00000000000E+00 -0.12506372077E+03  0.12506372077E+03  0.00000000000E+00 0.  1.
         -6    2    1    2    0  503 -0.25416017518E+02 -0.55706084539E+02 -0.37041562441E+02  0.18735542332E+03  0.17314974877E+03 0.  0.
        -24    2    3    3    0    0  0.46469992462E+02 -0.52867167856E+02 -0.82348956064E+01  0.10971798433E+03  0.83760521395E+02 0.  0.
          6    2    1    2  501    0  0.25416017518E+02  0.55706084539E+02  0.63832989299E+03  0.66406034877E+03  0.17251652884E+03 0.  0.
         24    2    5    5    0    0  0.77788888308E+01  0.97286031285E+02  0.56033533721E+03  0.57380958140E+03  0.75872673498E+02 0.  0.
          5    1    5    5  501    0  0.17637128687E+02 -0.41579946746E+02  0.77994555778E+02  0.90250767369E+02  0.47000000000E+01 0. -1.
        -13    1    6    6    0    0 -0.24752981443E+02  0.44671863831E+01  0.10458697062E+03  0.10756904884E+03  0.00000000000E+00 0.  1.
         14    1    6    6    0    0  0.32531870274E+02  0.92818844902E+02  0.45574836660E+03  0.46624053257E+03  0.00000000000E+00 0. -1.
         -5    1    3    3    0  503 -0.71886009980E+02 -0.28389166825E+01 -0.28806666835E+02  0.77637438990E+02  0.47000000000E+01 0.  1.
         13    1    4    4    0    0  0.47386967141E+02 -0.27711434105E+02  0.31044236169E+02  0.63064988974E+02  0.00000000000E+00 0. -1.
        -14    1    4    4    0    0 -0.91697467856E+00 -0.25155733751E+02 -0.39279131776E+02  0.46652995361E+02  0.00000000000E+00 0.  1.
</event>
<event>
12    1  0.8344842E-002  0.1744002E+03  0.7818608E-02  0.1173773E+00
         21   -1    0    0  503  502  0.00000000000E+00  0.00000000000E+00  0.14237264427E+04  0.14237264427E+04  0.00000000000E+00 0. -1.
         21   -1    0    0  501  503 -0.00000000000E+00 -0.00000000000E+00 -0.30319891408E+02  0.30319891408E+02  0.00000000000E+00 0. -1.
          6    2    1    2  501    0 -0.48549971205E+01 -0.30163021666E+02  0.29450954901E+03  0.34139631649E+03  0.16994761422E+03 0.  0.
         24    2    3    3    0    0 -0.45189389161E+02 -0.70604101499E+02  0.19580000426E+03  0.22725601535E+03  0.79250456157E+02 0.  0.
         -6    2    1    2    0  502  0.48549971205E+01  0.30163021666E+02  0.10988970023E+04  0.11126500176E+04  0.17170341063E+03 0.  0.
        -24    2    5    5    0    0  0.51635615354E+02 -0.17441005999E+02  0.82028602440E+03  0.82611775646E+03  0.81430708260E+02 0.  0.
          5    1    3    3  501    0  0.40334392041E+02  0.40441079833E+02  0.98709544754E+02  0.11414030114E+03  0.47000000000E+01 0. -1.
        -11    1    4    4    0    0 -0.29208308208E+01 -0.33985353700E+02  0.15320768185E+03  0.15695900515E+03  0.00000000000E+00 0.  1.
         12    1    4    4    0    0 -0.42268558340E+02 -0.36618747798E+02  0.42592322410E+02  0.70297010198E+02  0.00000000000E+00 0. -1.
         -5    1    5    5    0  502 -0.46780618233E+02  0.47604027665E+02  0.27861097786E+03  0.28653226114E+03  0.47000000000E+01 0.  1.
         13    1    6    6    0    0  0.27556925717E+02  0.20996695686E+02  0.61061107436E+03  0.61159310780E+03  0.00000000000E+00 0. -1.
        -14    1    6    6    0    0  0.24078689637E+02 -0.38437701685E+02  0.20967495005E+03  0.21452464866E+03  0.00000000000E+00 0.  1.
</event>
<event>
12    1  0.8344842E-002  0.2279526E+03  0.7818608E-02  0.1128471E+00
         21   -1    0    0  503  502  0.00000000000E+00  0.00000000000E+00  0.26123495974E+02  0.26123495974E+02  0.00000000000E+00 0. -1.
         21   -1    0    0  501  503 -0.00000000000E+00 -0.00000000000E+00 -0.30248745756E+04  0.30248745756E+04  0.00000000000E+00 0.  1.
          6    2    1    2  501    0 -0.82622754493E+02  0.12093489397E+03 -0.24046054822E+04  0.24153860762E+04  0.17467284710E+03 0.  0.
         24    2    3    3    0    0 -0.74991944277E+02  0.89267595565E+02 -0.95667122779E+03  0.96707784160E+03  0.80169933983E+02 0.  0.
         -6    2    1    2    0  502  0.82622754493E+02 -0.12093489397E+03 -0.59414559734E+03  0.63561199537E+03  0.17187742634E+03 0.  0.
        -24    2    5    5    0    0  0.11901850344E+03 -0.10177224734E+03 -0.39808658891E+03  0.43522965495E+03  0.80180582371E+02 0.  0.
          5    1    3    3  501    0 -0.76308102161E+01  0.31667298407E+02 -0.14479342545E+04  0.14483082346E+04  0.47000000000E+01 0. -1.
        -11    1    4    4    0    0 -0.10126290546E+02  0.38206591135E+02 -0.58571687022E+03  0.58704900769E+03  0.00000000000E+00 0.  1.
         12    1    4    4    0    0 -0.64865653732E+02  0.51061004430E+02 -0.37095435757E+03  0.38002883391E+03  0.00000000000E+00 0. -1.
         -5    1    5    5    0  502 -0.36395748944E+02 -0.19162646630E+02 -0.19605900843E+03  0.20038234042E+03  0.47000000000E+01 0.  1.
         13    1    6    6    0    0  0.42612412689E+01 -0.26421761383E+01  0.34006496445E+01  0.60583570299E+01  0.00000000000E+00 0. -1.
        -14    1    6    6    0    0  0.11475726217E+03 -0.99130071204E+02 -0.40148723856E+03  0.42917129792E+03  0.00000000000E+00 0.  1.
</event>
<event>
12    1  0.8344842E-002  0.1723279E+03  0.7818608E-02  0.1175535E+00
         21   -1    0    0  501  502  0.00000000000E+00  0.00000000000E+00  0.52359649551E+02  0.52359649551E+02  0.00000000000E+00 0. -1.
         21   -1    0    0  502  503 -0.00000000000E+00 -0.00000000000E+00 -0.19229128126E+04  0.19229128126E+04  0.00000000000E+00 0. -1.
         -6    2    1    2    0  503 -0.28217481162E+01  0.26558153634E+01 -0.17652182770E+04  0.17736100130E+04  0.17228434889E+03 0.  0.
        -24    2    3    3    0    0 -0.25595170242E+02 -0.56674009143E+02 -0.13217502272E+04  0.13255869577E+04  0.79309918886E+02 0.  0.
          6    2    1    2  501    0  0.28217481162E+01 -0.26558153634E+01 -0.10533488600E+03  0.20166244918E+03  0.17192233590E+03 0.  0.
         24    2    5    5    0    0  0.31304972286E+02  0.39248113119E+02 -0.11056670617E+02  0.94528396807E+02  0.79328129718E+02 0.  0.
          5    1    5    5  501    0 -0.28483224170E+02 -0.41903928483E+02 -0.94278215385E+02  0.10713405237E+03  0.47000000000E+01 0. -1.
        -13    1    6    6    0    0  0.44326839194E+02 -0.12096521071E+01 -0.23576036498E+02  0.50221125317E+02  0.00000000000E+00 0.  1.
         14    1    6    6    0    0 -0.13021866908E+02  0.40457765226E+02  0.12519365881E+02  0.44307271491E+02  0.00000000000E+00 0. -1.
         -5    1    3    3    0  503  0.22773422126E+02  0.59329824507E+02 -0.44346804986E+03  0.44802305530E+03  0.47000000000E+01 0.  1.
         13    1    4    4    0    0  0.62335063464E+01 -0.34914212187E+02 -0.10955796998E+04  0.10961536104E+04  0.00000000000E+00 0. -1.
        -14    1    4    4    0    0 -0.31828676588E+02 -0.21759796956E+02 -0.22617052734E+03  0.22943334730E+03  0.00000000000E+00 0.  1.
</event>
<event>
12    1  0.8344842E-002  0.1903544E+03  0.7818608E-02  0.1158917E+00
         21   -1    0    0  501  502  0.00000000000E+00  0.00000000000E+00  0.19170799266E+03  0.19170799266E+03  0.00000000000E+00 0. -1.
         21   -1    0    0  502  503 -0.00000000000E+00 -0.00000000000E+00 -0.22111289310E+03  0.22111289310E+03  0.00000000000E+00 0. -1.
         -6    2    1    2    0  503 -0.81720235894E+02  0.69656845731E+00 -0.97489900897E+02  0.21386698757E+03  0.17191895019E+03 0.  0.
        -24    2    3    3    0    0  0.78708196797E+01 -0.14648672214E+02 -0.93211195206E+02  0.12274931106E+03  0.78118711297E+02 0.  0.
          6    2    1    2  501    0  0.81720235894E+02 -0.69656845731E+00  0.68085000452E+02  0.19895389818E+03  0.16813210328E+03 0.  0.
         24    2    5    5    0    0  0.20711915052E+01 -0.16630434921E+02  0.77657297880E+02  0.11702968168E+03  0.85932702036E+02 0.  0.
          5    1    5    5  501    0  0.79649044389E+02  0.15933866463E+02 -0.95722974273E+01  0.81924216509E+02  0.47000000000E+01 0. -1.
        -11    1    6    6    0    0 -0.31537339613E+02  0.14151033050E+02  0.10986538344E+02  0.36270643101E+02  0.00000000000E+00 0.  1.
         12    1    6    6    0    0  0.33608531118E+02 -0.30781467970E+02  0.66670759536E+02  0.80759038574E+02  0.00000000000E+00 0. -1.
         -5    1    3    3    0  503 -0.89591055574E+02  0.15345240672E+02 -0.42787056909E+01  0.91117676509E+02  0.47000000000E+01 0.  1.
         13    1    4    4    0    0 -0.13186604903E+02  0.28700285469E+02 -0.34051885114E+02  0.46444847020E+02  0.00000000000E+00 0. -1.
        -14    1    4    4    0    0  0.21057424583E+02 -0.43348957684E+02 -0.59159310092E+02  0.76304464043E+02  0.00000000000E+00 0.  1.
</event>
<event>
12    1  0.8344842E-002  0.2270249E+03  0.7818608E-02  0.1128776E+00
         21   -1    0    0  501  502  0.00000000000E+00  0.00000000000E+00  0.86820545266E+02  0.86820545266E+02  0.00000000000E+00 0.  1.
         21   -1    0    0  502  503 -0.00000000000E+00 -0.00000000000E+00 -0.76177977934E+03  0.76177977934E+03  0.00000000000E+00 0. -1.
         -6    2    1    2    0  503  0.18383377292E+02  0.14631247728E+03 -0.53694965595E+03  0.58291826324E+03  0.17243398455E+03 0.  0.
        -24    2    3    3    0    0 -0.30829996357E+02  0.12163498627E+03 -0.25349980336E+03  0.29413314651E+03  0.80663492459E+02 0.  0.
          6    2    1    2  501    0 -0.18383377292E+02 -0.14631247728E+03 -0.13800957812E+03  0.26568206136E+03  0.17261235328E+03 0.  0.
         24    2    5    5    0    0 -0.26757232845E+02 -0.10866801798E+03 -0.17842054677E+02  0.13939053170E+03  0.81158448557E+02 0.  0.
          5    1    5    5  501    0  0.83738555522E+01 -0.37644459305E+02 -0.12016752344E+03  0.12629152966E+03  0.47000000000E+01 0. -1.
        -11    1    6    6    0    0 -0.15802484195E+02 -0.64654025472E+02  0.30403093513E+02  0.73172464846E+02  0.00000000000E+00 0.  1.
         12    1    6    6    0    0 -0.10954748650E+02 -0.44013992506E+02 -0.48245148190E+02  0.66218066856E+02  0.00000000000E+00 0. -1.
         -5    1    3    3    0  503  0.49213373650E+02  0.24677491014E+02 -0.28344985260E+03  0.28878511673E+03  0.47000000000E+01 0.  1.
         13    1    4    4    0    0 -0.21348850566E+02  0.11631787179E+03 -0.25684220699E+03  0.28276057011E+03  0.00000000000E+00 0. -1.
        -14    1    4    4    0    0 -0.94811457917E+01  0.53171144799E+01  0.33424036352E+01  0.11372576400E+02  0.00000000000E+00 0.  1.
</event>
<event>
12    1  0.8344842E-002  0.1838211E+03  0.7818608E-02  0.1164173E+00
         21   -1    0    0  503  502  0.00000000000E+00  0.00000000000E+00  0.65853895609E+02  0.65853895609E+02  0.00000000000E+00 0.  1.
         21   -1    0    0  501  503 -0.00000000000E+00 -0.00000000000E+00 -0.12211328498E+04  0.12211328498E+04  0.00000000000E+00 0.  1.
          6    2    1    2  501    0  0.11293144699E+02  0.62495569935E+02 -0.10676518023E+04  0.10833480586E+04  0.17242219584E+03 0.  0.
         24    2    3    3    0    0  0.64509205153E+02  0.44686820804E+02 -0.48542972042E+03  0.49840896490E+03  0.81308876082E+02 0.  0.
         -6    2    1    2    0  502 -0.11293144699E+02 -0.62495569935E+02 -0.87627151834E+02  0.20363868681E+03  0.17250207433E+03 0.  0.
        -24    2    5    5    0    0 -0.67589885761E+02 -0.26386061497E+02 -0.35264569384E+02  0.11856724804E+03  0.86890652861E+02 0.  0.
          5    1    3    3  501    0 -0.53216060455E+02  0.17808749131E+02 -0.58222208192E+03  0.58493909368E+03  0.47000000000E+01 0. -1.
        -13    1    4    4    0    0  0.39462036027E+02 -0.19554063523E+02 -0.18598093615E+03  0.19112436343E+03  0.00000000000E+00 0.  1.
         14    1    4    4    0    0  0.25047169126E+02  0.64240884327E+02 -0.29944878427E+03  0.30728460147E+03  0.00000000000E+00 0. -1.
         -5    1    5    5    0  502  0.56296741063E+02 -0.36109508438E+02 -0.52362582450E+02  0.85071438772E+02  0.47000000000E+01 0.  1.
         11    1    6    6    0    0 -0.15231442974E+01  0.26738200790E+02 -0.17375232791E+02  0.31924129817E+02  0.00000000000E+00 0. -1.
        -12    1    6    6    0    0 -0.66066741464E+02 -0.53124262286E+02 -0.17889336593E+02  0.86643118220E+02  0.00000000000E+00 0.  1.
</event>
<event>
12    1  0.8344842E-002  0.1825495E+03  0.7818608E-02  0.1165721E+00
         21   -1    0    0  503  502  0.00000000000E+00  0.00000000000E+00  0.14893702161E+03  0.14893702161E+03  0.00000000000E+00 0.  1.
         21   -1    0    0  501  503 -0.00000000000E+00 -0.00000000000E+00 -0.23623525433E+03  0.23623525433E+03  0.00000000000E+00 0.  1.
          6    2    1    2  501    0  0.29574933949E+02  0.47322614690E+02  0.36427280269E+01  0.18258583548E+03  0.17381084912E+03 0.  0.
         24    2    3    3    0    0  0.20389252343E+02  0.51290650444E+01  0.67805554280E+02  0.10510273635E+03  0.77504600362E+02 0.  0.
         -6    2    1    2    0  502 -0.29574933949E+02 -0.47322614690E+02 -0.90940960752E+02  0.20258644046E+03  0.17221179094E+03 0.  0.
        -24    2    5    5    0    0 -0.32946215136E+02  0.34255180537E+02 -0.63926405767E+02  0.11645759285E+03  0.84952428404E+02 0.  0.
          5    1    3    3  501    0  0.91856816059E+01  0.42193549646E+02 -0.64162826253E+02  0.77483099132E+02  0.47000000000E+01 0. -1.
        -11    1    4    4    0    0 -0.11535368146E+02  0.49550787337E+01  0.71835476089E+02  0.72924297380E+02  0.00000000000E+00 0.  1.
         12    1    4    4    0    0  0.31924620489E+02  0.17398631072E+00 -0.40299218083E+01  0.32178438968E+02  0.00000000000E+00 0. -1.
         -5    1    5    5    0  502  0.33712811866E+01 -0.81577795227E+02 -0.27014554985E+02  0.86128847618E+02  0.47000000000E+01 0.  1.
         13    1    6    6    0    0  0.13249988386E+02  0.45698110240E+02 -0.19730032965E+02  0.51508772773E+02  0.00000000000E+00 0. -1.
        -14    1    6    6    0    0 -0.46196203522E+02 -0.11442929703E+02 -0.44196372802E+02  0.64948820073E+02  0.00000000000E+00 0.  1.
</event>
<event>
12    1  0.8344842E-002  0.2064169E+03  0.7818608E-02  0.1144514E+00
         21   -1    0    0  501  502  0.00000000000E+00  0.00000000000E+00  0.18180249246E+03  0.18180249246E+03  0.00000000000E+00 0.  1.
         21   -1    0    0  502  503 -0.00000000000E+00 -0.00000000000E+00 -0.23782257593E+03  0.23782257593E+03  0.00000000000E+00 0. -1.
         -6    2    1    2    0  503 -0.91822910736E+02  0.68557429024E+02 -0.54851732240E+02  0.21320489865E+03  0.17121929876E+03 0.  0.
        -24    2    3    3    0    0 -0.96145821075E+01  0.81544240100E+02  0.10391820498E+01  0.11284180355E+03  0.77396960194E+02 0.  0.
          6    2    1    2  501    0  0.91822910736E+02 -0.68557429024E+02 -0.11683512242E+01  0.20642016974E+03  0.17168678872E+03 0.  0.
         24    2    5    5    0    0  0.44164951538E+02  0.26243087638E+02 -0.31605606977E+02  0.95935168169E+02  0.74601605252E+02 0.  0.
          5    1    5    5  501    0  0.47657959198E+02 -0.94800516662E+02  0.30437255753E+02  0.11048500157E+03  0.47000000000E+01 0. -1.
        -11    1    6    6    0    0  0.57479234169E+02  0.15571924366E+02  0.52660106812E+00  0.59553543117E+02  0.00000000000E+00 0.  1.
         12    1    6    6    0    0 -0.13314282631E+02  0.10671163272E+02 -0.32132208045E+02  0.36381625052E+02  0.00000000000E+00 0. -1.
         -5    1    3    3    0  503 -0.82208328628E+02 -0.12986811076E+02 -0.55890914290E+02  0.10036309510E+03  0.47000000000E+01 0.  1.
         13    1    4    4    0    0 -0.34438835632E+02  0.20112238879E+02 -0.18212902556E+02  0.43843418798E+02  0.00000000000E+00 0. -1.
        -14    1    4    4    0    0  0.24824253525E+02  0.61432001221E+02  0.19252084606E+02  0.68998384755E+02  0.00000000000E+00 0.  1.
</event>
<event>
12    1  0.8344842E-002  0.1728928E+03  0.7818608E-02  0.1175350E+00
         21   -1    0    0  501  502  0.00000000000E+00  0.00000000000E+00  0.14433113152E+03  0.14433113152E+03  0.00000000000E+00 0.  1.
         21   -1    0    0  502  503 -0.00000000000E+00 -0.00000000000E+00 -0.25817623559E+03  0.25817623559E+03  0.00000000000E+00 0.  1.
         -6    2    1    2    0  503 -0.28066133000E+00 -0.22295320851E+01  0.34297798145E+02  0.17626194145E+03  0.17287823305E+03 0.  0.
        -24    2    3    3    0    0 -0.66128391755E+02 -0.10612847062E+02  0.22901562074E+02  0.10874773725E+03  0.82559021873E+02 0.  0.
          6    2    1    2  501    0  0.28066133000E+00  0.22295320851E+01 -0.14814290222E+03  0.22624542567E+03  0.17098427874E+03 0.  0.
         24    2    5    5    0    0 -0.42432391486E+02  0.56198760925E+01 -0.15557022763E+03  0.18250580431E+03  0.85288815374E+02 0.  0.
          5    1    5    5  501    0  0.42713052816E+02 -0.33903440074E+01  0.74273254182E+01  0.43739621354E+02  0.47000000000E+01 0. -1.
        -13    1    6    6    0    0 -0.50884395362E+01  0.41752061479E+02 -0.85340309225E+02  0.95142499617E+02  0.00000000000E+00 0.  1.
         14    1    6    6    0    0 -0.37343951950E+02 -0.36132185386E+02 -0.70229918409E+02  0.87363304698E+02  0.00000000000E+00 0. -1.
         -5    1    3    3    0  503  0.65847730425E+02  0.83833149768E+01  0.11396236071E+02  0.67514204199E+02  0.47000000000E+01 0.  1.
         11    1    4    4    0    0 -0.35230132088E+02  0.81428645164E+01 -0.28409100484E+02  0.45984186845E+02  0.00000000000E+00 0. -1.
        -12    1    4    4    0    0 -0.30898259667E+02 -0.18755711578E+02  0.51310662558E+02  0.62763550405E+02  0.00000000000E+00 0.  1.
</event>
<event>
12    1  0.8344842E-002  0.1762806E+03  0.7818608E-02  0.1171917E+00
         21   -1    0    0  501  502  0.00000000000E+00  0.00000000000E+00  0.10814458686E+04  0.10814458686E+04  0.00000000000E+00 0.  1.
         21   -1    0    0  502  503 -0.00000000000E+00 -0.00000000000E+00 -0.37019336657E+02  0.37019336657E+02  0.00000000000E+00 0.  1.
         -6    2    1    2    0  503 -0.33069873550E+01 -0.39435237513E+02  0.25500506884E+03  0.31000391143E+03  0.17178115683E+03 0.  0.
        -24    2    3    3    0    0 -0.57724097549E+02 -0.20252158792E+02  0.91147268173E+02  0.13622047945E+03  0.80659612889E+02 0.  0.
          6    2    1    2  501    0  0.33069873550E+01  0.39435237513E+02  0.78942146308E+03  0.80846129380E+03  0.16987449218E+03 0.  0.
         24    2    5    5    0    0  0.18369905037E+02  0.88317629648E+02  0.48417199489E+03  0.49892016959E+03  0.79758121054E+02 0.  0.
          5    1    5    5  501    0 -0.15062917682E+02 -0.48882392135E+02  0.30524946819E+03  0.30954112421E+03  0.47000000000E+01 0. -1.
        -11    1    6    6    0    0 -0.15257449222E+02  0.68749498748E+02  0.19872375900E+03  0.21083267234E+03  0.00000000000E+00 0.  1.
         12    1    6    6    0    0  0.33627354259E+02  0.19568130900E+02  0.28544823589E+03  0.28808749726E+03  0.00000000000E+00 0. -1.
         -5    1    3    3    0  503  0.54417110194E+02 -0.19183078720E+02  0.16385780067E+03  0.17378343198E+03  0.47000000000E+01 0.  1.
         11    1    4    4    0    0  0.13793498175E+02  0.11219579980E+02  0.23412914838E+01  0.17933800842E+02  0.00000000000E+00 0. -1.
        -12    1    4    4    0    0 -0.71517595724E+02 -0.31471738772E+02  0.88805976689E+02  0.11828667860E+03  0.00000000000E+00 0.  1.
</event>
<event>
12    1  0.8344842E-002  0.1973449E+03  0.7818608E-02  0.1152055E+00
         21   -1    0    0  503  502  0.00000000000E+00  0.00000000000E+00  0.19200599571E+03  0.19200599571E+03  0.00000000000E+00 0. -1.
         21   -1    0    0  501  503 -0.00000000000E+00 -0.00000000000E+00 -0.67420082929E+03  0.67420082929E+03  0.00000000000E+00 0. -1.
          6    2    1    2  501    0  0.50670067943E+02  0.82576809378E+02 -0.60339013942E+03  0.63484224778E+03  0.17192624575E+03 0.  0.
         24    2    3    3    0    0  0.51303084133E+02  0.30267255537E+02 -0.16205189493E+03  0.19038952118E+03  0.80244874752E+02 0.  0.
         -6    2    1    2    0  502 -0.50670067943E+02 -0.82576809378E+02  0.12119530585E+03  0.23136457722E+03  0.17162424130E+03 0.  0.
        -24    2    5    5    0    0  0.19105755012E+02 -0.95210613059E+02  0.82449999398E+02  0.15042282510E+03  0.79993332201E+02 0.  0.
          5    1    3    3  501    0 -0.63301619002E+00  0.52309553841E+02 -0.44133824449E+03  0.44445272660E+03  0.47000000000E+01 0. -1.
        -13    1    4    4    0    0  0.20121392712E+02  0.55998571192E+02 -0.97443178892E+02  0.11417479377E+03  0.00000000000E+00 0.  1.
         14    1    4    4    0    0  0.31181691421E+02 -0.25731315655E+02 -0.64608716042E+02  0.76214727408E+02  0.00000000000E+00 0. -1.
         -5    1    5    5    0  502 -0.69775822955E+02  0.12633803681E+02  0.38745306448E+02  0.80941752120E+02  0.47000000000E+01 0.  1.
         11    1    6    6    0    0  0.64215670982E+01 -0.93136278231E+02  0.94476435960E+02  0.13282093133E+03  0.00000000000E+00 0. -1.
        -12    1    6    6    0    0  0.12684187914E+02 -0.20743348281E+01 -0.12026436563E+02  0.17601893773E+02  0.00000000000E+00 0.  1.
</event>
<event>
12    1  0.8344842E-002  0.1733018E+03  0.7818608E-02  0.1174728E+00
         21   -1    0    0  503  502  0.00000000000E+00  0.00000000000E+00  0.59186228601E+03  0.59186228601E+03  0.00000000000E+00 0.  1.
         21   -1    0    0  501  503 -0.00000000000E+00 -0.00000000000E+00 -0.95231233575E+02  0.95231233575E+02  0.00000000000E+00 0.  1.
          6    2    1    2  501    0  0.16022394991E+02 -0.77208763303E+01  0.12242767158E+02  0.17263698842E+03  0.17128139230E+03 0.  0.
         24    2    3    3    0    0  0.44764131107E+02 -0.15451458900E+02 -0.48424185464E+02  0.10489912277E+03  0.80102117351E+02 0.  0.
         -6    2    1    2    0  502 -0.16022394991E+02  0.77208763303E+01  0.48438828527E+03  0.51445653117E+03  0.17238672361E+03 0.  0.
        -24    2    5    5    0    0 -0.49755261591E+02 -0.37521839742E+02  0.19412046027E+03  0.21871625681E+03  0.79186952096E+02 0.  0.
          5    1    3    3  501    0 -0.28741736116E+02  0.77305825700E+01  0.60666952622E+02  0.67737865646E+02  0.47000000000E+01 0. -1.
        -13    1    4    4    0    0  0.10326952511E+02 -0.29797834359E+02  0.12119009725E+02  0.33785015575E+02  0.00000000000E+00 0.  1.
         14    1    4    4    0    0  0.34437178596E+02  0.14346375459E+02 -0.60543195189E+02  0.71114107195E+02  0.00000000000E+00 0. -1.
         -5    1    5    5    0  502  0.33732866600E+02  0.45242716072E+02  0.29026782500E+03  0.29574027436E+03  0.47000000000E+01 0.  1.
         13    1    6    6    0    0  0.20864636403E+02 -0.17264527328E+02  0.58861041383E+02  0.64792122582E+02  0.00000000000E+00 0. -1.
        -14    1    6    6    0    0 -0.70619897993E+02 -0.20257312414E+02  0.13525941889E+03  0.15392413423E+03  0.00000000000E+00 0.  1.
</event>
<event>
12    1  0.8344842E-002  0.2436224E+03  0.7818608E-02  0.1117460E+00
         21   -1    0    0  501  502  0.00000000000E+00  0.00000000000E+00  0.11388965710E+03  0.11388965710E+03  0.00000000000E+00 0.  1.
         21   -1    0    0  502  503 -0.00000000000E+00 -0.00000000000E+00 -0.90021661499E+03  0.90021661499E+03  0.00000000000E+00 0.  1.
         -6    2    1    2    0  503  0.17221435031E+03 -0.12837880030E+02 -0.72268986027E+03  0.76264833644E+03  0.17184079064E+03 0.  0.
        -24    2    3    3    0    0  0.16931338814E+02 -0.13083770204E+02 -0.33208724118E+03  0.34228495774E+03  0.80119917997E+02 0.  0.
          6    2    1    2  501    0 -0.17221435031E+03  0.12837880030E+02 -0.63637097626E+02  0.25145793564E+03  0.17134415540E+03 0.  0.
         24    2    5    5    0    0 -0.16932791553E+03  0.29435475487E+02 -0.96098032354E+02  0.21458499212E+03  0.85284798324E+02 0.  0.
          5    1    5    5  501    0 -0.28864347725E+01 -0.16597595458E+02  0.32460934727E+02  0.36872943523E+02  0.47000000000E+01 0. -1.
        -11    1    6    6    0    0 -0.16939186963E+03  0.34762464028E+02 -0.67717249641E+02  0.18570853589E+03  0.00000000000E+00 0.  1.
         12    1    6    6    0    0  0.63954101659E-01 -0.53269885403E+01 -0.28380782713E+02  0.28876456230E+02  0.00000000000E+00 0. -1.
         -5    1    3    3    0  503  0.15528301149E+03  0.24589017488E+00 -0.39060261908E+03  0.42036337870E+03  0.47000000000E+01 0.  1.
         11    1    4    4    0    0  0.23268707337E+02  0.29401443839E+02 -0.11400547089E+03  0.12001302027E+03  0.00000000000E+00 0. -1.
        -12    1    4    4    0    0 -0.63373685234E+01 -0.42485214044E+02 -0.21808177030E+03  0.22227193747E+03  0.00000000000E+00 0.  1.
</event>
<event>
12    1  0.8344842E-002  0.2256929E+03  0.7818608E-02  0.1129926E+00
         21   -1    0    0  503  502  0.00000000000E+00  0.00000000000E+00  0.15671456090E+03  0.15671456090E+03  0.00000000000E+00 0.  1.
         21   -1    0    0  501  503 -0.00000000000E+00 -0.00000000000E+00 -0.87384954301E+03  0.87384954301E+03  0.00000000000E+00 0.  1.
          6    2    1    2  501    0 -0.14136431305E+03 -0.29307121497E+02 -0.76791999646E+03  0.80039891462E+03  0.17347773688E+03 0.  0.
         24    2    3    3    0    0 -0.74300999105E+02 -0.19835360931E+02 -0.68150661277E+03  0.69050548804E+03  0.80202778945E+02 0.  0.
         -6    2    1    2    0  502  0.14136431305E+03  0.29307121497E+02  0.50785014358E+02  0.23016518929E+03  0.17191311846E+03 0.  0.
        -24    2    5    5    0    0  0.42897786872E+02 -0.24088667422E+02  0.69754618057E+02  0.11646073503E+03  0.79226965405E+02 0.  0.
          5    1    3    3  501    0 -0.67063313949E+02 -0.94717605656E+01 -0.86413383693E+02  0.10989342659E+03  0.47000000000E+01 0. -1.
        -13    1    4    4    0    0 -0.81091491759E+02 -0.37945728583E+02 -0.60516173409E+03  0.61174866797E+03  0.00000000000E+00 0.  1.
         14    1    4    4    0    0  0.67904926541E+01  0.18110367652E+02 -0.76344878678E+02  0.78756820069E+02  0.00000000000E+00 0. -1.
         -5    1    5    5    0  502  0.98466526182E+02  0.53395788919E+02 -0.18969603699E+02  0.11370445425E+03  0.47000000000E+01 0.  1.
         11    1    6    6    0    0  0.26338566891E+01 -0.14120863989E+02 -0.15816782340E+02  0.21366015174E+02  0.00000000000E+00 0. -1.
        -12    1    6    6    0    0  0.40263930183E+02 -0.99678034337E+01  0.85571400397E+02  0.95094719858E+02  0.00000000000E+00 0.  1.
</event>
<event>
12    1  0.8344842E-002  0.1839658E+03  0.7818608E-02  0.1164196E+00
         21   -1    0    0  501  502  0.00000000000E+00  0.00000000000E+00  0.32367699788E+02  0.32367699788E+02  0.00000000000E+00 0.  1.
         21   -1    0    0  502  503 -0.00000000000E+00 -0.00000000000E+00 -0.12726489412E+04  0.12726489412E+04  0.00000000000E+00 0. -1.
         -6    2    1    2    0  503 -0.41482051077E+02 -0.49044444950E+02 -0.89935882783E+03  0.91798132138E+03  0.17238702694E+03 0.  0.
        -24    2    3    3    0    0  0.39092301480E+02 -0.91461503689E+00 -0.40684542646E+03  0.41658302926E+03  0.80555413675E+02 0.  0.
          6    2    1    2  501    0  0.41482051077E+02  0.49044444950E+02 -0.34092241354E+03  0.38703531958E+03  0.17158708693E+03 0.  0.
         24    2    5    5    0    0 -0.11422481251E+02 -0.12804577967E+01 -0.28102392044E+03  0.29247631761E+03  0.80223686346E+02 0.  0.
          5    1    5    5  501    0  0.52904532328E+02  0.50324902746E+02 -0.59898493105E+02  0.94559001970E+02  0.47000000000E+01 0. -1.
        -11    1    6    6    0    0 -0.23599411331E+02 -0.10632650458E+02 -0.24978544257E+02  0.35971004214E+02  0.00000000000E+00 0.  1.
         12    1    6    6    0    0  0.12176930081E+02  0.93521926612E+01 -0.25604537618E+03  0.25650531339E+03  0.00000000000E+00 0. -1.
         -5    1    3    3    0  503 -0.80574352558E+02 -0.48129829913E+02 -0.49251340137E+03  0.50139829212E+03  0.47000000000E+01 0.  1.
         11    1    4    4    0    0 -0.18040300572E+01 -0.20305459055E+02 -0.29808014241E+03  0.29877640049E+03  0.00000000000E+00 0. -1.
        -12    1    4    4    0    0  0.40896331538E+02  0.19390844018E+02 -0.10876528405E+03  0.11780662876E+03  0.00000000000E+00 0.  1.
</event>
<event>
12    1  0.8344842E-002  0.2056247E+03  0.7818608E-02  0.1145818E+00
         21   -1    0    0  503  502  0.00000000000E+00  0.00000000000E+00  0.22161386463E+03  0.22161386463E+03  0.00000000000E+00 0. -1.
         21   -1    0    0  501  503 -0.00000000000E+00 -0.00000000000E+00 -0.20249413654E+03  0.20249413654E+03  0.00000000000E+00 0. -1.
          6    2    1    2  501    0 -0.71221303568E+01 -0.10895759715E+03 -0.48293262462E+02  0.20771477326E+03  0.16997265990E+03 0.  0.
         24    2    3    3    0    0 -0.35572253985E+02 -0.65544688912E+01 -0.51150141432E+02  0.10129080055E+03  0.79593611495E+02 0.  0.
         -6    2    1    2    0  502  0.71221303568E+01  0.10895759715E+03  0.67412990553E+02  0.21639322790E+03  0.17423844315E+03 0.  0.
        -24    2    5    5    0    0  0.56079498254E+02  0.12045946967E+03  0.56892586284E+02  0.16479976079E+03  0.79163127932E+02 0.  0.
          5    1    3    3  501    0  0.28450123628E+02 -0.10240312825E+03  0.28568789700E+01  0.10642397271E+03  0.47000000000E+01 0. -1.
        -13    1    4    4    0    0 -0.48153775593E+02 -0.13102355382E+02 -0.64676486068E+02  0.81691527532E+02  0.00000000000E+00 0.  1.
         14    1    4    4    0    0  0.12581521609E+02  0.65478864908E+01  0.13526344635E+02  0.19599273014E+02  0.00000000000E+00 0. -1.
         -5    1    5    5    0  502 -0.48957367897E+02 -0.11501872524E+02  0.10520404269E+02  0.51593467115E+02  0.47000000000E+01 0.  1.
         13    1    6    6    0    0 -0.54025735452E+01  0.54699169515E+02  0.50344839118E+02  0.74537170408E+02  0.00000000000E+00 0. -1.
        -14    1    6    6    0    0  0.61482071799E+02  0.65760300154E+02  0.65477471659E+01  0.90262590379E+02  0.00000000000E+00 0.  1.
</event>
<event>
12    1  0.8344842E-002  0.2355749E+03  0.7818608E-02  0.1123092E+00
         21   -1    0    0  501  502  0.00000000000E+00  0.00000000000E+00  0.15381787889E+04  0.15381787889E+04  0.00000000000E+00 0.  1.
         21   -1    0    0  502  503 -0.00000000000E+00 -0.00000000000E+00 -0.12356039825E+03  0.12356039825E+03  0.00000000000E+00 0. -1.
         -6    2    1    2    0  503  0.15827647342E+03 -0.28512531388E+02  0.78710206502E+01  0.23570635910E+03  0.17213694626E+03 0.  0.
        -24    2    3    3    0    0  0.63942693937E+02  0.46815130822E+02 -0.80472152087E+01  0.11385153204E+03  0.81345492147E+02 0.  0.
          6    2    1    2  501    0 -0.15827647342E+03  0.28512531388E+02  0.14067473700E+04  0.14260328280E+04  0.16960854098E+03 0.  0.
         24    2    5    5    0    0 -0.83542850465E+02  0.72881321700E+02  0.10485644951E+04  0.10574263091E+04  0.79823579386E+02 0.  0.
          5    1    5    5  501    0 -0.74733622952E+02 -0.44368790312E+02  0.35818287488E+03  0.36860651895E+03  0.47000000000E+01 0. -1.
        -13    1    6    6    0    0 -0.50348552012E+02 -0.57974408422E+01  0.43686228784E+03  0.43979227545E+03  0.00000000000E+00 0.  1.
         14    1    6    6    0    0 -0.33194298453E+02  0.78678762542E+02  0.61170220724E+03  0.61763403361E+03  0.00000000000E+00 0. -1.
         -5    1    3    3    0  503  0.94333779480E+02 -0.75327662210E+02  0.15918235859E+02  0.12185482706E+03  0.47000000000E+01 0.  1.
         13    1    4    4    0    0  0.73391503408E+02  0.48686526615E+02 -0.27398557248E+02  0.92235413945E+02  0.00000000000E+00 0. -1.
        -14    1    4    4    0    0 -0.94488094708E+01 -0.18713957929E+01  0.19351342039E+02  0.21616118092E+02  0.00000000000E+00 0.  1.
</event>
<event>
12    1  0.8344842E-002  0.2371426E+03  0.7818608E-02  0.1121783E+00
         21   -1    0    0  501  502  0.00000000000E+00  0.00000000000E+00  0.19390660951E+03  0.19390660951E+03  0.00000000000E+00 0.  1.
         21   -1    0    0  502  503 -0.00000000000E+00 -0.00000000000E+00 -0.33745150535E+03  0.33745150535E+03  0.00000000000E+00 0. -1.
         -6    2    1    2    0  503 -0.19802966716E+02 -0.16193566091E+03 -0.17197761990E+03  0.29293844537E+03  0.17210844042E+03 0.  0.
        -24    2    3    3    0    0  0.31303574138E+01 -0.17557476491E+03 -0.10256253581E+03  0.21842330320E+03  0.79708019800E+02 0.  0.
          6    2    1    2  501    0  0.19802966716E+02  0.16193566091E+03  0.28432724057E+02  0.23841966949E+03  0.17152318571E+03 0.  0.
         24    2    5    5    0    0  0.39233298585E+02  0.17921051754E+03  0.48307511468E+02  0.20535827747E+03  0.78630433970E+02 0.  0.
          5    1    5    5  501    0 -0.19430331869E+02 -0.17274856623E+02 -0.19874787411E+02  0.33061392023E+02  0.47000000000E+01 0. -1.
        -13    1    6    6    0    0  0.17053906998E+02  0.17189440176E+03  0.29212735232E+02  0.17519105286E+03  0.00000000000E+00 0.  1.
         14    1    6    6    0    0  0.22179391587E+02  0.73161157736E+01  0.19094776235E+02  0.30167224610E+02  0.00000000000E+00 0. -1.
         -5    1    3    3    0  503 -0.22933324130E+02  0.13639103992E+02 -0.69415084089E+02  0.74515142169E+02  0.47000000000E+01 0.  1.
         13    1    4    4    0    0 -0.22493891546E+02 -0.27145918566E+02  0.15999053965E+01  0.35290731772E+02  0.00000000000E+00 0. -1.
        -14    1    4    4    0    0  0.25624248960E+02 -0.14842884634E+03 -0.10416244121E+03  0.18313257143E+03  0.00000000000E+00 0.  1.
</event>
<event>
12    1  0.8344842E-002  0.3226895E+03  0.7818608E-02  0.1074437E+00
         21   -1    0    0  501  502  0.00000000000E+00  0.00000000000E+00  0.13126202649E+03  0.13126202649E+03  0.00000000000E+00 0. -1.
         21   -1    0    0  502  503 -0.00000000000E+00 -0.00000000000E+00 -0.85092608359E+03  0.85092608359E+03  0.00000000000E+00 0. -1.
         -6    2    1    2    0  503 -0.24590775494E+03  0.12005675767E+03 -0.23147813832E+03  0.39699239297E+03  0.17069441278E+03 0.  0.
        -24    2    3    3    0    0 -0.21751608169E+03  0.63019693014E+02 -0.11985505658E+03  0.26838012205E+03  0.79861929754E+02 0.  0.
          6    2    1    2  501    0  0.24590775494E+03 -0.12005675767E+03 -0.48818591879E+03  0.58519571711E+03  0.17100961090E+03 0.  0.
         24    2    5    5    0    0  0.50781632765E+02 -0.37699422623E+00 -0.13205544470E+03  0.16181828041E+03  0.78534062983E+02 0.  0.
          5    1    5    5  501    0  0.19512612217E+03 -0.11967976345E+03 -0.35613047409E+03  0.42337743670E+03  0.47000000000E+01 0. -1.
        -13    1    6    6    0    0  0.80768265895E+01 -0.12027479585E+02 -0.11249419119E+03  0.11342327118E+03  0.00000000000E+00 0.  1.
         14    1    6    6    0    0  0.42704806176E+02  0.11650485359E+02 -0.19561253508E+02  0.48395009230E+02  0.00000000000E+00 0. -1.
         -5    1    3    3    0  503 -0.28391673251E+02  0.57037064657E+02 -0.11162308173E+03  0.12861227092E+03  0.47000000000E+01 0.  1.
         11    1    4    4    0    0 -0.19615629097E+03  0.39720490512E+02 -0.12555679089E+03  0.23626154066E+03  0.00000000000E+00 0. -1.
        -12    1    4    4    0    0 -0.21359790712E+02  0.23299202503E+02  0.57017343099E+01  0.32118581393E+02  0.00000000000E+00 0.  1.
</event>
<event>
12    1  0.8344842E-002  0.2254341E+03  0.7818608E-02  0.1129901E+00
         21   -1    0    0  503  502  0.00000000000E+00  0.00000000000E+00  0.49485514201E+02  0.49485514201E+02  0.00000000000E+00 0.  1.
         21   -1    0    0  501  503 -0.00000000000E+00 -0.00000000000E+00 -0.11550662533E+04  0.11550662533E+04  0.00000000000E+00 0.  1.
          6    2    1    2  501    0 -0.13779949245E+03 -0.46631037507E+02 -0.75342902172E+03  0.78642337981E+03  0.17217226185E+03 0.  0.
         24    2    3    3    0    0 -0.11404494139E+03 -0.59703727535E+02 -0.34333991259E+03  0.37541201579E+03  0.80505293514E+02 0.  0.
         -6    2    1    2    0  502  0.13779949245E+03  0.46631037507E+02 -0.35215171742E+03  0.41812838774E+03  0.17221313182E+03 0.  0.
        -24    2    5    5    0    0  0.42027480844E+02  0.37645428156E+02 -0.28371402138E+03  0.29998090524E+03  0.79444384133E+02 0.  0.
          5    1    3    3  501    0 -0.23754551065E+02  0.13072690028E+02 -0.41008910913E+03  0.41101136401E+03  0.47000000000E+01 0. -1.
        -13    1    4    4    0    0 -0.87883743605E+02 -0.14655022791E+01 -0.20516456570E+03  0.22319990839E+03  0.00000000000E+00 0.  1.
         14    1    4    4    0    0 -0.26161197783E+02 -0.58238225256E+02 -0.13817534690E+03  0.15221210740E+03  0.00000000000E+00 0. -1.
         -5    1    5    5    0  502  0.95772011609E+02  0.89856093512E+01 -0.68437696039E+02  0.11814748250E+03  0.47000000000E+01 0.  1.
         13    1    6    6    0    0  0.98056943803E+01  0.56866772476E+02 -0.20169514640E+03  0.20978778214E+03  0.00000000000E+00 0. -1.
        -14    1    6    6    0    0  0.32221786464E+02 -0.19221344320E+02 -0.82018874987E+02  0.90193123100E+02  0.00000000000E+00 0.  1.
</event>
<event>
12    1  0.8344842E-002  0.2320327E+03  0.7818608E-02  0.1126465E+00
         21   -1    0    0  501  502  0.00000000000E+00  0.00000000000E+00  0.68955939405E+03  0.68955939405E+03  0.00000000000E+00 0.  1.
         21   -1    0    0  502  503 -0.00000000000E+00 -0.00000000000E+00 -0.12973328846E+03  0.12973328846E+03  0.00000000000E+00 0.  1.
         -6    2    1    2    0  503 -0.78694196743E+02 -0.13415133555E+03  0.13090255371E+02  0.22535729398E+03  0.16255829026E+03 0.  0.
        -24    2    3    3    0    0 -0.90017728793E+02 -0.74870678075E+02  0.55064665458E+02  0.15169346411E+03  0.79183203637E+02 0.  0.
          6    2    1    2  501    0  0.78694196743E+02  0.13415133555E+03  0.54673585022E+03  0.59393538853E+03  0.17219116819E+03 0.  0.
         24    2    5    5    0    0  0.94574925502E+02  0.82682437822E+02  0.50610848269E+03  0.52630464129E+03  0.71203771931E+02 0.  0.
          5    1    5    5  501    0 -0.15880728759E+02  0.51468897730E+02  0.40627367527E+02  0.67630747236E+02  0.47000000000E+01 0. -1.
        -11    1    6    6    0    0  0.58414482553E+02  0.47404813403E+02  0.16331845172E+03  0.17981208184E+03  0.00000000000E+00 0.  1.
         12    1    6    6    0    0  0.36160442949E+02  0.35277624419E+02  0.34279003097E+03  0.34649255945E+03  0.00000000000E+00 0. -1.
         -5    1    3    3    0  503  0.11323532051E+02 -0.59280657477E+02 -0.41974410086E+02  0.73663829870E+02  0.47000000000E+01 0.  1.
         11    1    4    4    0    0 -0.13990661651E+02 -0.49088595972E+02 -0.52047055613E+01  0.51308067864E+02  0.00000000000E+00 0. -1.
        -12    1    4    4    0    0 -0.76027067142E+02 -0.25782082103E+02  0.60269371019E+02  0.10038539624E+03  0.00000000000E+00 0.  1.
</event>
<event>
12    1  0.8344842E-002  0.1848387E+03  0.7818608E-02  0.1163524E+00
         21   -1    0    0  501  502  0.00000000000E+00  0.00000000000E+00  0.11087174331E+03  0.11087174331E+03  0.00000000000E+00 0. -1.
         21   -1    0    0  502  503 -0.00000000000E+00 -0.00000000000E+00 -0.48726345209E+03  0.48726345209E+03  0.00000000000E+00 0. -1.
         -6    2    1    2    0  503 -0.45219466638E+02  0.43820384064E+02 -0.37023197055E+03  0.41319393292E+03  0.17231508339E+03 0.  0.
        -24    2    3    3    0    0  0.14690934965E+02  0.49720969468E+02 -0.10997211134E+03  0.14602103489E+03  0.80871991332E+02 0.  0.
          6    2    1    2  501    0  0.45219466638E+02 -0.43820384064E+02 -0.61597382406E+01  0.18494126248E+03  0.17378234079E+03 0.  0.
         24    2    5    5    0    0  0.12578520145E+02  0.43145185707E+02 -0.52548663551E+01  0.91928626206E+02  0.80022074936E+02 0.  0.
          5    1    5    5  501    0  0.32640946493E+02 -0.86965569771E+02 -0.90487188554E+00  0.93012636275E+02  0.47000000000E+01 0. -1.
        -13    1    6    6    0    0 -0.26652370613E+02 -0.58309567861E+01  0.65943659356E+01  0.28068391091E+02  0.00000000000E+00 0.  1.
         14    1    6    6    0    0  0.39230890758E+02  0.48976142493E+02 -0.11849232291E+02  0.63860235116E+02  0.00000000000E+00 0. -1.
         -5    1    3    3    0  503 -0.59910401603E+02 -0.59005854035E+01 -0.26025985920E+03  0.26717289803E+03  0.47000000000E+01 0.  1.
         11    1    4    4    0    0  0.22410232551E+02 -0.15972669468E+02 -0.48273442830E+02  0.55566806419E+02  0.00000000000E+00 0. -1.
        -12    1    4    4    0    0 -0.77192975867E+01  0.65693638936E+02 -0.61698668512E+02  0.90454228469E+02  0.00000000000E+00 0.  1.
</event>
<event>
12    1  0.8344842E-002  0.2046738E+03  0.7818608E-02  0.1146300E+00
         21   -1    0    0  503  502  0.00000000000E+00  0.00000000000E+00  0.77538190763E+03  0.77538190763E+03  0.00000000000E+00 0.  1.
         21   -1    0    0  501  503 -0.00000000000E+00 -0.00000000000E+00 -0.55850925378E+02  0.55850925378E+02  0.00000000000E+00 0.  1.
          6    2    1    2  501    0 -0.46222076064E+02  0.97505722387E+02  0.27189037243E+03  0.33901999218E+03  0.17136608260E+03 0.  0.
         24    2    3    3    0    0  0.13106091396E+02  0.11152460156E+02  0.18686143123E+03  0.20400618476E+03  0.80032380578E+02 0.  0.
         -6    2    1    2    0  502  0.46222076064E+02 -0.97505722387E+02  0.44764060983E+03  0.49221284083E+03  0.17391813850E+03 0.  0.
        -24    2    5    5    0    0  0.77171379108E+02 -0.99821432466E+02  0.43323106824E+03  0.45767377945E+03  0.76527052588E+02 0.  0.
          5    1    3    3  501    0 -0.59328167460E+02  0.86353262231E+02  0.85028941197E+02  0.13501380742E+03  0.47000000000E+01 0. -1.
        -11    1    4    4    0    0 -0.22459335557E+02  0.31322951094E+02  0.11550218970E+03  0.12176331485E+03  0.00000000000E+00 0.  1.
         12    1    4    4    0    0  0.35565426953E+02 -0.20170490938E+02  0.71359241529E+02  0.82242869908E+02  0.00000000000E+00 0. -1.
         -5    1    5    5    0  502 -0.30949303044E+02  0.23157100793E+01  0.14409541589E+02  0.34539061378E+02  0.47000000000E+01 0.  1.
         11    1    6    6    0    0  0.39266730324E+02 -0.85767625999E+01  0.20610311370E+03  0.20998554818E+03  0.00000000000E+00 0. -1.
        -12    1    6    6    0    0  0.37904648784E+02 -0.91244669866E+02  0.22712795454E+03  0.24768823127E+03  0.00000000000E+00 0.  1.
</event>
<event>
12    1  0.8344842E-002  0.2538253E+03  0.7818608E-02  0.1111049E+00
         21   -1    0    0  503  502  0.00000000000E+00  0.00000000000E+00  0.33439815164E+03  0.33439815164E+03  0.00000000000E+00 0.  1.
         21   -1    0    0  501  503 -0.00000000000E+00 -0.00000000000E+00 -0.22658502950E+03  0.22658502950E+03  0.00000000000E+00 0. -1.
          6    2    1    2  501    0  0.46228687470E+02  0.18104827470E+03 -0.55612860065E+02  0.25984624386E+03  0.17178972882E+03 0.  0.
         24    2    3    3    0    0  0.38675152007E+02  0.15525955905E+03 -0.10195105090E+03  0.20607420946E+03  0.80444172973E+02 0.  0.
         -6    2    1    2    0  502 -0.46228687470E+02 -0.18104827470E+03  0.16342598221E+03  0.30113693729E+03  0.17046945188E+03 0.  0.
        -24    2    5    5    0    0  0.21154842703E+02 -0.16295625136E+03  0.11955177454E+03  0.21858454456E+03  0.80525207832E+02 0.  0.
          5    1    3    3  501    0  0.75535354630E+01  0.25788715642E+02  0.46338190840E+02  0.53772034393E+02  0.47000000000E+01 0. -1.
        -11    1    4    4    0    0 -0.19711090515E+02  0.34454189548E+02 -0.45844215777E+02  0.60640831021E+02  0.00000000000E+00 0.  1.
         12    1    4    4    0    0  0.58386242522E+02  0.12080536951E+03 -0.56106835128E+02  0.14543337844E+03  0.00000000000E+00 0. -1.
         -5    1    5    5    0  502 -0.67383530173E+02 -0.18092023334E+02  0.43874207669E+02  0.82552392730E+02  0.47000000000E+01 0.  1.
         11    1    6    6    0    0 -0.22824778393E+02 -0.31309320669E+02  0.59020247554E+01  0.39192830539E+02  0.00000000000E+00 0. -1.
        -12    1    6    6    0    0  0.43979621097E+02 -0.13164693069E+03  0.11364974978E+03  0.17939171402E+03  0.00000000000E+00 0.  1.
</event>
<event>
12    1  0.8344842E-002  0.2045288E+03  0.7818608E-02  0.1147694E+00
         21   -1    0    0  501  502  0.00000000000E+00  0.00000000000E+00  0.81639343886E+02  0.81639343886E+02  0.00000000000E+00 0. -1.
         21   -1    0    0  502  503 -0.00000000000E+00 -0.00000000000E+00 -0.64857275368E+03  0.64857275368E+03  0.00000000000E+00 0. -1.
         -6    2    1    2    0  503  0.27915351166E+02  0.10603229755E+03 -0.46722261522E+03  0.51002845272E+03  0.17265553990E+03 0.  0.
        -24    2    3    3    0    0  0.66048072382E+02  0.12393042091E+03 -0.36559340400E+03  0.39991472142E+03  0.80945353606E+02 0.  0.
          6    2    1    2  501    0 -0.27915351166E+02 -0.10603229755E+03 -0.99710794566E+02  0.22018364484E+03  0.16283881585E+03 0.  0.
         24    2    5    5    0    0 -0.57617104056E+02 -0.10963940996E+03 -0.11433532181E+03  0.18655074158E+03  0.79925480758E+02 0.  0.
          5    1    5    5  501    0  0.29701752889E+02  0.36071124051E+01  0.14624527245E+02  0.33632903261E+02  0.47000000000E+01 0. -1.
        -11    1    6    6    0    0 -0.81838157828E+00 -0.84237115424E+02 -0.55227334188E+02  0.10073043137E+03  0.00000000000E+00 0.  1.
         12    1    6    6    0    0 -0.56798722477E+02 -0.25402294532E+02 -0.59107987624E+02  0.85820310204E+02  0.00000000000E+00 0. -1.
         -5    1    3    3    0  503 -0.38132721216E+02 -0.17898123359E+02 -0.10162921123E+03  0.11011373130E+03  0.47000000000E+01 0.  1.
         13    1    4    4    0    0  0.53634915027E+02  0.71445703426E+02 -0.30934877397E+03  0.32199046042E+03  0.00000000000E+00 0. -1.
        -14    1    4    4    0    0  0.12413157356E+02  0.52484717483E+02 -0.56244630029E+02  0.77924260997E+02  0.00000000000E+00 0.  1.
</event>
<event>
12    1  0.8344842E-002  0.1989936E+03  0.7818608E-02  0.1151250E+00
         21   -1    0    0  501  502  0.00000000000E+00  0.00000000000E+00  0.86113638962E+02  0.86113638962E+02  0.00000000000E+00 0.  1.
         21   -1    0    0  502  503 -0.00000000000E+00 -0.00000000000E+00 -0.14708394804E+04  0.14708394804E+04  0.00000000000E+00 0.  1.
         -6    2    1    2    0  503  0.65675386186E+01  0.10428227951E+03 -0.13383677805E+04  0.13526310119E+04  0.16572390289E+03 0.  0.
        -24    2    3    3    0    0  0.29782418360E+02  0.76641516374E+02 -0.12693197149E+04  0.12745754689E+04  0.81296818893E+02 0.  0.
          6    2    1    2  501    0 -0.65675386186E+01 -0.10428227951E+03 -0.46358060879E+02  0.20432210744E+03  0.16935326214E+03 0.  0.
         24    2    5    5    0    0 -0.11268534673E+02 -0.13272367171E+03 -0.66323998139E+02  0.16894215825E+03  0.80000169986E+02 0.  0.
          5    1    5    5  501    0  0.47009960546E+01  0.28441392201E+02  0.19965937260E+02  0.35379949193E+02  0.47000000000E+01 0. -1.
        -13    1    6    6    0    0  0.25342820428E+01 -0.97583669794E+02 -0.60288590772E+01  0.97802568155E+02  0.00000000000E+00 0.  1.
         14    1    6    6    0    0 -0.13802816716E+02 -0.35140001919E+02 -0.60295139062E+02  0.71139590093E+02  0.00000000000E+00 0. -1.
         -5    1    3    3    0  503 -0.23214879742E+02  0.27640763137E+02 -0.69048065659E+02  0.78055543041E+02  0.47000000000E+01 0.  1.
         13    1    4    4    0    0  0.33325031037E+00  0.13759376864E+02 -0.80267491036E+03  0.80279290183E+03  0.00000000000E+00 0. -1.
        -14    1    4    4    0    0  0.29449168050E+02  0.62882139510E+02 -0.46664480453E+03  0.47178256704E+03  0.00000000000E+00 0.  1.
</event>
<event>
12    1  0.8344842E-002  0.5118058E+03  0.7818608E-02  0.1010744E+00
         21   -1    0    0  501  502  0.00000000000E+00  0.00000000000E+00  0.12607923584E+04  0.12607923584E+04  0.00000000000E+00 0.  1.
         21   -1    0    0  502  503 -0.00000000000E+00 -0.00000000000E+00 -0.21206948286E+03  0.21206948286E+03  0.00000000000E+00 0. -1.
         -6    2    1    2    0  503 -0.90276328440E+02 -0.47356859284E+03  0.62938558240E+03  0.81120559752E+03  0.17178848190E+03 0.  0.
        -24    2    3    3    0    0 -0.11359149984E+03 -0.25051809706E+03  0.37717427412E+03  0.47367373990E+03  0.80274734636E+02 0.  0.
          6    2    1    2  501    0  0.90276328440E+02  0.47356859284E+03  0.41933729313E+03  0.66165624374E+03  0.17183769048E+03 0.  0.
         24    2    5    5    0    0 -0.54670798787E+01  0.27892277181E+03  0.28366983903E+03  0.40576262525E+03  0.79667614998E+02 0.  0.
          5    1    5    5  501    0  0.95743408319E+02  0.19464582103E+03  0.13566745410E+03  0.25589361849E+03  0.47000000000E+01 0. -1.
        -11    1    6    6    0    0  0.36919776752E+02  0.14310119861E+03  0.14864419471E+03  0.20960944535E+03  0.00000000000E+00 0.  1.
         12    1    6    6    0    0 -0.42386856631E+02  0.13582157320E+03  0.13502564432E+03  0.19615317990E+03  0.00000000000E+00 0. -1.
         -5    1    3    3    0  503  0.23315171400E+02 -0.22305049577E+03  0.25221130828E+03  0.33753185762E+03  0.47000000000E+01 0.  1.
         13    1    4    4    0    0  0.94910217192E+00 -0.15640024169E+02  0.10795430553E+01  0.15705940409E+02  0.00000000000E+00 0. -1.
        -14    1    4    4    0    0 -0.11454060201E+03 -0.23487807289E+03  0.37609473107E+03  0.45796779949E+03  0.00000000000E+00 0.  1.
</event>
<event>
12    1  0.8344842E-002  0.1777461E+03  0.7818608E-02  0.1170591E+00
         21   -1    0    0  501  502  0.00000000000E+00  0.00000000000E+00  0.58919484603E+02  0.58919484603E+02  0.00000000000E+00 0. -1.
         21   -1    0    0  502  503 -0.00000000000E+00 -0.00000000000E+00 -0.65662935598E+03  0.65662935598E+03  0.00000000000E+00 0. -1.
         -6    2    1    2    0  503 -0.37296679654E+02  0.73157441912E+01 -0.45492183473E+03  0.48755297906E+03  0.17120008543E+03 0.  0.
        -24    2    3    3    0    0 -0.19427911789E+02 -0.31343581843E+02 -0.42772172805E+03  0.43680091351E+03  0.80556176154E+02 0.  0.
          6    2    1    2  501    0  0.37296679654E+02 -0.73157441912E+01 -0.14278803665E+03  0.22799586152E+03  0.17363503977E+03 0.  0.
         24    2    5    5    0    0 -0.60468772194E+01  0.17539053874E+02 -0.45541396057E+01  0.80934224104E+02  0.78647474905E+02 0.  0.
          5    1    5    5  501    0  0.43343556874E+02 -0.24854798065E+02 -0.13823389704E+03  0.14706163742E+03  0.47000000000E+01 0. -1.
        -11    1    6    6    0    0  0.16371970672E+02  0.28137707433E+02 -0.30807778850E+02  0.44820656409E+02  0.00000000000E+00 0.  1.
         12    1    6    6    0    0 -0.22418847892E+02 -0.10598653559E+02  0.26253639245E+02  0.36113567695E+02  0.00000000000E+00 0. -1.
         -5    1    3    3    0  503 -0.17868767865E+02  0.38659326034E+02 -0.27200106682E+02  0.50752065553E+02  0.47000000000E+01 0.  1.
         13    1    4    4    0    0  0.16997701005E+02  0.17026213203E+02 -0.70713979244E+02  0.74694582374E+02  0.00000000000E+00 0. -1.
        -14    1    4    4    0    0 -0.36425612794E+02 -0.48369795046E+02 -0.35700774880E+03  0.36210633113E+03  0.00000000000E+00 0.  1.
</event>
<event>
12    1  0.8344842E-002  0.1843126E+03  0.7818608E-02  0.1164158E+00
         21   -1    0    0  503  502  0.00000000000E+00  0.00000000000E+00  0.89359172004E+02  0.89359172004E+02  0.00000000000E+00 0.  1.
         21   -1    0    0  501  503 -0.00000000000E+00 -0.00000000000E+00 -0.39495575851E+03  0.39495575851E+03  0.00000000000E+00 0.  1.
          6    2    1    2  501    0  0.42069682470E+02  0.49198153788E+02 -0.20490801323E+03  0.27429271524E+03  0.17046666311E+03 0.  0.
         24    2    3    3    0    0  0.48739978721E+02  0.94704884920E+02 -0.17551481604E+03  0.21950763086E+03  0.77675920342E+02 0.  0.
         -6    2    1    2    0  502 -0.42069682470E+02 -0.49198153788E+02 -0.10068857328E+03  0.21002221528E+03  0.17257121892E+03 0.  0.
        -24    2    5    5    0    0  0.20378643710E+02 -0.53968403452E+02 -0.11121564304E+03  0.14633973792E+03  0.75620909456E+02 0.  0.
          5    1    3    3  501    0 -0.66702962517E+01 -0.45506731132E+02 -0.29393197183E+02  0.54785084385E+02  0.47000000000E+01 0. -1.
        -11    1    4    4    0    0  0.39343692001E+02  0.52531381637E+01 -0.36444527016E+02  0.53886223752E+02  0.00000000000E+00 0.  1.
         12    1    4    4    0    0  0.93962867205E+01  0.89451746757E+02 -0.13907028903E+03  0.16562140711E+03  0.00000000000E+00 0. -1.
         -5    1    5    5    0  502 -0.62448326180E+02  0.47702496636E+01  0.10527069756E+02  0.63682477356E+02  0.47000000000E+01 0.  1.
         11    1    6    6    0    0  0.14280690944E+02  0.32802695399E+01 -0.79039035271E+02  0.80385741265E+02  0.00000000000E+00 0. -1.
        -12    1    6    6    0    0  0.60979527660E+01 -0.57248672992E+02 -0.32176607769E+02  0.65953996655E+02  0.00000000000E+00 0.  1.
</event>
<event>
12    1  0.8344842E-002  0.1811873E+03  0.7818608E-02  0.1167154E+00
         21   -1    0    0  503  502  0.00000000000E+00  0.00000000000E+00  0.61681371362E+03  0.61681371362E+03  0.00000000000E+00 0.  1.
         21   -1    0    0  501  503 -0.00000000000E+00 -0.00000000000E+00 -0.56082786504E+02  0.56082786504E+02  0.00000000000E+00 0. -1.
          6    2    1    2  501    0  0.40683814013E+02 -0.36796310418E+02  0.19828581979E+03  0.26860028607E+03  0.17268383296E+03 0.  0.
         24    2    3    3    0    0  0.52168450300E+02  0.39674108666E+02  0.11450106463E+03  0.15448807348E+03  0.80377166790E+02 0.  0.
         -6    2    1    2    0  502 -0.40683814013E+02  0.36796310418E+02  0.36244510732E+03  0.40429621405E+03  0.17052809648E+03 0.  0.
        -24    2    5    5    0    0  0.41416897087E+02  0.97966531984E+01  0.15244361666E+03  0.17715699610E+03  0.79587758019E+02 0.  0.
          5    1    3    3  501    0 -0.11484636286E+02 -0.76470419083E+02  0.83784755167E+02  0.11411221260E+03  0.47000000000E+01 0. -1.
        -11    1    4    4    0    0  0.67392929668E+02  0.34619001780E+02  0.11581148429E+03  0.13839285439E+03  0.00000000000E+00 0.  1.
         12    1    4    4    0    0 -0.15224479368E+02  0.50551068856E+01 -0.13104196656E+01  0.16095219084E+02  0.00000000000E+00 0. -1.
         -5    1    5    5    0  502 -0.82100711101E+02  0.26999657219E+02  0.21000149066E+03  0.22713921795E+03  0.47000000000E+01 0.  1.
         13    1    6    6    0    0  0.27049655421E+02 -0.11275961523E+02  0.14848245130E+03  0.15134685167E+03  0.00000000000E+00 0. -1.
        -14    1    6    6    0    0  0.14367241666E+02  0.21072614721E+02  0.39611653641E+01  0.25810144426E+02  0.00000000000E+00 0.  1.
</event>
<event>
12    1  0.8344842E-002  0.1901414E+03  0.7818608E-02  0.1158724E+00
         21   -1    0    0  501  502  0.00000000000E+00  0.00000000000E+00  0.11608507388E+04  0.11608507388E+04  0.00000000000E+00 0. -1.
         21   -1    0    0  502  503 -0.00000000000E+00 -0.00000000000E+00 -0.30976519958E+02  0.30976519958E+02  0.00000000000E+00 0.  1.
         -6    2    1    2    0  503  0.77903224967E+02 -0.10882873017E+02  0.60365083036E+03  0.63288868139E+03  0.17310808375E+03 0.  0.
        -24    2    3    3    0    0  0.30306733319E+02  0.57163947521E+02  0.26331370688E+03  0.28253565455E+03  0.79410785667E+02 0.  0.
          6    2    1    2  501    0 -0.77903224967E+02  0.10882873017E+02  0.52622338845E+03  0.55893857733E+03  0.17121311074E+03 0.  0.
         24    2    5    5    0    0 -0.60395702016E+02  0.43143234753E+02  0.18124233785E+03  0.21197855142E+03  0.81099578972E+02 0.  0.
          5    1    5    5  501    0 -0.17507522952E+02 -0.32260361736E+02  0.34498105060E+03  0.34696002590E+03  0.47000000000E+01 0. -1.
        -13    1    6    6    0    0 -0.56997858874E+02  0.24649160612E+02  0.50920425774E+02  0.80307078120E+02  0.00000000000E+00 0.  1.
         14    1    6    6    0    0 -0.33978431414E+01  0.18494074141E+02  0.13032191207E+03  0.13167147331E+03  0.00000000000E+00 0. -1.
         -5    1    3    3    0  503  0.47596491648E+02 -0.68046820537E+02  0.34033712348E+03  0.35035302684E+03  0.47000000000E+01 0.  1.
         13    1    4    4    0    0  0.30856229418E+01  0.14810039573E+02  0.20473762319E+03  0.20529576881E+03  0.00000000000E+00 0. -1.
        -14    1    4    4    0    0  0.27221110378E+02  0.42353907948E+02  0.58576083684E+02  0.77239885736E+02  0.00000000000E+00 0.  1.
</event>
<event>
12    1  0.8344842E-002  0.2577740E+03  0.7818608E-02  0.1108639E+00
         21   -1    0    0  503  502  0.00000000000E+00  0.00000000000E+00  0.15836547546E+04  0.15836547546E+04  0.00000000000E+00 0. -1.
         21   -1    0    0  501  503 -0.00000000000E+00 -0.00000000000E+00 -0.53633356756E+02  0.53633356756E+02  0.00000000000E+00 0. -1.
          6    2    1    2  501    0  0.16207291056E+03 -0.10157945607E+03  0.37927380080E+03  0.45802245415E+03  0.17131823692E+03 0.  0.
         24    2    3    3    0    0  0.20830987977E+02 -0.35186353890E+01  0.92379102734E+02  0.12351406409E+03  0.79218145332E+02 0.  0.
         -6    2    1    2    0  502 -0.16207291056E+03  0.10157945607E+03  0.11507475970E+04  0.11792656572E+04  0.17280464092E+03 0.  0.
        -24    2    5    5    0    0 -0.41909808937E+02  0.11213753509E+02  0.66064026485E+03  0.66659381454E+03  0.77585911657E+02 0.  0.
          5    1    3    3  501    0  0.14124192258E+03 -0.98060820679E+02  0.28689469806E+03  0.33450839006E+03  0.47000000000E+01 0. -1.
        -13    1    4    4    0    0  0.75474671011E+01  0.37314058248E+02  0.33985422530E+02  0.51032461700E+02  0.00000000000E+00 0.  1.
         14    1    4    4    0    0  0.13283520876E+02 -0.40832693637E+02  0.58393680204E+02  0.72481602385E+02  0.00000000000E+00 0. -1.
         -5    1    5    5    0  502 -0.12016310162E+03  0.90365702560E+02  0.49010733219E+03  0.51267184266E+03  0.47000000000E+01 0.  1.
         11    1    6    6    0    0 -0.24836708930E+02  0.44423516760E+02  0.42023819834E+03  0.42330893482E+03  0.00000000000E+00 0. -1.
        -12    1    6    6    0    0 -0.17073100007E+02 -0.33209763251E+02  0.24040206650E+03  0.24328487972E+03  0.00000000000E+00 0.  1.
</event>
<event>
12    1  0.8344842E-002  0.1953434E+03  0.7818608E-02  0.1155490E+00
         21   -1    0    0  501  502  0.00000000000E+00  0.00000000000E+00  0.22666101410E+03  0.22666101410E+03  0.00000000000E+00 0. -1.
         21   -1    0    0  502  503 -0.00000000000E+00 -0.00000000000E+00 -0.35477930764E+03  0.35477930764E+03  0.00000000000E+00 0.  1.
         -6    2    1    2    0  503 -0.43595083573E+02 -0.53829731770E+02 -0.27916905361E+03  0.34072631251E+03  0.18264963238E+03 0.  0.
        -24    2    3    3    0    0  0.13900976049E+02  0.36545460260E+01 -0.45810223293E+02  0.93565084253E+02  0.80307257401E+02 0.  0.
          6    2    1    2  501    0  0.43595083573E+02  0.53829731770E+02  0.15105076006E+03  0.24071400924E+03  0.17415145935E+03 0.  0.
         24    2    5    5    0    0 -0.44273344219E+01 -0.33803566842E+02  0.78383857561E+02  0.11706807774E+03  0.79991395033E+02 0.  0.
          5    1    5    5  501    0  0.48022417995E+02  0.87633298612E+02  0.72666902500E+02  0.12364593149E+03  0.47000000000E+01 0. -1.
        -13    1    6    6    0    0  0.35095942041E+02 -0.25904384767E+02  0.25333371158E+02  0.50443453412E+02  0.00000000000E+00 0.  1.
         14    1    6    6    0    0 -0.39523276463E+02 -0.78991820743E+01  0.53050486403E+02  0.66624624332E+02  0.00000000000E+00 0. -1.
         -5    1    3    3    0  503 -0.57496059622E+02 -0.57484277796E+02 -0.23335883031E+03  0.24716122825E+03  0.47000000000E+01 0.  1.
         13    1    4    4    0    0 -0.64873538099E+01  0.28863146656E+02  0.80862356684E+01  0.30668456134E+02  0.00000000000E+00 0. -1.
        -14    1    4    4    0    0  0.20388329859E+02 -0.25208600630E+02 -0.53896458962E+02  0.62896628119E+02  0.00000000000E+00 0.  1.
</event>
<event>
12    1  0.8344842E-002  0.2581706E+03  0.7818608E-02  0.1108271E+00
         21   -1    0    0  503  502  0.00000000000E+00  0.00000000000E+00  0.88526731868E+03  0.88526731868E+03  0.00000000000E+00 0.  1.
         21   -1    0    0  501  503 -0.00000000000E+00 -0.00000000000E+00 -0.14012418013E+03  0.14012418013E+03  0.00000000000E+00 0. -1.
          6    2    1    2  501    0 -0.19186444196E+03 -0.25135956316E+01  0.23647672854E+02  0.25909666950E+03  0.17249228812E+03 0.  0.
         24    2    3    3    0    0 -0.63582854076E+02 -0.36144077061E+02 -0.34572083803E+02  0.11418702476E+03  0.80587058558E+02 0.  0.
         -6    2    1    2    0  502  0.19186444196E+03  0.25135956316E+01  0.72149546570E+03  0.76629482931E+03  0.17272456731E+03 0.  0.
        -24    2    5    5    0    0  0.84988851015E+01  0.13246596262E+02  0.16221713175E+03  0.17760775661E+03  0.70586216878E+02 0.  0.
          5    1    3    3  501    0 -0.12828158789E+03  0.33630481429E+02  0.58219756657E+02  0.14490964473E+03  0.47000000000E+01 0. -1.
        -11    1    4    4    0    0 -0.90349657198E+01  0.24771174019E+02 -0.30116999569E+01  0.26538877227E+02  0.00000000000E+00 0.  1.
         12    1    4    4    0    0 -0.54547888356E+02 -0.60915251079E+02 -0.31560383846E+02  0.87648147537E+02  0.00000000000E+00 0. -1.
         -5    1    5    5    0  502  0.18336555686E+03 -0.10733000631E+02  0.55927833394E+03  0.58868707270E+03  0.47000000000E+01 0.  1.
         13    1    6    6    0    0 -0.26000661130E+01  0.41691132875E+02  0.95448313031E+02  0.10418872955E+03  0.00000000000E+00 0. -1.
        -14    1    6    6    0    0  0.11098951214E+02 -0.28444536613E+02  0.66768818723E+02  0.73419027063E+02  0.00000000000E+00 0.  1.
</event>
<event>
12    1  0.8344842E-002  0.1880211E+03  0.7818608E-02  0.1160273E+00
         21   -1    0    0  501  502  0.00000000000E+00  0.00000000000E+00  0.30074947848E+03  0.30074947848E+03  0.00000000000E+00 0. -1.
         21   -1    0    0  502  503 -0.00000000000E+00 -0.00000000000E+00 -0.13564114281E+03  0.13564114281E+03  0.00000000000E+00 0. -1.
         -6    2    1    2    0  503  0.38328890037E+01 -0.75616140029E+02  0.27821429025E+01  0.18804164250E+03  0.17210295560E+03 0.  0.
        -24    2    3    3    0    0 -0.32579754445E+02 -0.10705273040E+03  0.14753188922E+02  0.13824670541E+03  0.79829615360E+02 0.  0.
          6    2    1    2  501    0 -0.38328890037E+01  0.75616140029E+02  0.16232619277E+03  0.24834897879E+03  0.17203177246E+03 0.  0.
         24    2    5    5    0    0  0.31393044090E+02  0.10631507772E+03  0.96573172946E+02  0.16754773652E+03  0.80358243579E+02 0.  0.
          5    1    5    5  501    0 -0.35225933093E+02 -0.30698937690E+02  0.65753019822E+02  0.80801242276E+02  0.47000000000E+01 0. -1.
        -11    1    6    6    0    0 -0.26734226963E+02  0.38038559379E+02  0.41471940157E+02  0.62302268910E+02  0.00000000000E+00 0.  1.
         12    1    6    6    0    0  0.58127271053E+02  0.68276518340E+02  0.55101232790E+02  0.10524546761E+03  0.00000000000E+00 0. -1.
         -5    1    3    3    0  503  0.36412643449E+02  0.31436590371E+02 -0.11971046020E+02  0.49794937091E+02  0.47000000000E+01 0.  1.
         11    1    4    4    0    0  0.88242433226E+01 -0.59060953747E+02  0.37946131005E+02  0.70752896661E+02  0.00000000000E+00 0. -1.
        -12    1    4    4    0    0 -0.41403997768E+02 -0.47991776653E+02 -0.23192942083E+02  0.67493808752E+02  0.00000000000E+00 0.  1.
</event>
<event>
12    1  0.8344842E-002  0.2466294E+03  0.7818608E-02  0.1115505E+00
         21   -1    0    0  501  502  0.00000000000E+00  0.00000000000E+00  0.21778225343E+03  0.21778225343E+03  0.00000000000E+00 0.  1.
         21   -1    0    0  502  503 -0.00000000000E+00 -0.00000000000E+00 -0.86222662624E+03  0.86222662624E+03  0.00000000000E+00 0.  1.
         -6    2    1    2    0  503 -0.55254595751E+02 -0.16716139572E+03 -0.76630368627E+03  0.80491657712E+03  0.17225955402E+03 0.  0.
        -24    2    3    3    0    0 -0.81697006955E+02 -0.70135131199E+02 -0.54936193754E+03  0.56575322402E+03  0.81760837249E+02 0.  0.
          6    2    1    2  501    0  0.55254595751E+02  0.16716139572E+03  0.12185931347E+03  0.27509230255E+03  0.17271386764E+03 0.  0.
         24    2    5    5    0    0  0.89696604689E+02  0.17353281277E+03  0.96919773748E+02  0.23183819782E+03  0.78717148210E+02 0.  0.
          5    1    5    5  501    0 -0.34442008938E+02 -0.63714170518E+01  0.24939539722E+02  0.43254104736E+02  0.47000000000E+01 0. -1.
        -11    1    6    6    0    0  0.72484008636E+01  0.84292458973E+02  0.16668880198E+02  0.86229980412E+02  0.00000000000E+00 0.  1.
         12    1    6    6    0    0  0.82448203825E+02  0.89240353798E+02  0.80250893550E+02  0.14560821740E+03  0.00000000000E+00 0. -1.
         -5    1    3    3    0  503  0.26442411204E+02 -0.97026264520E+02 -0.21694174874E+03  0.23916335309E+03  0.47000000000E+01 0.  1.
         13    1    4    4    0    0 -0.54684084798E+02 -0.81654228397E+02 -0.32663041776E+03  0.34109411011E+03  0.00000000000E+00 0. -1.
        -14    1    4    4    0    0 -0.27012922156E+02  0.11519097197E+02 -0.22273151977E+03  0.22465911391E+03  0.00000000000E+00 0.  1.
</event>
<event>
12    1  0.8344842E-002  0.2045448E+03  0.7818608E-02  0.1146003E+00
         21   -1    0    0  501  502  0.00000000000E+00  0.00000000000E+00  0.44779444960E+03  0.44779444960E+03  0.00000000000E+00 0.  1.
         21   -1    0    0  502  503 -0.00000000000E+00 -0.00000000000E+00 -0.17490888014E+03  0.17490888014E+03  0.00000000000E+00 0.  1.
         -6    2    1    2    0  503  0.96023873323E+02 -0.53811735491E+02 -0.76144863173E+02  0.21825811100E+03  0.17240149566E+03 0.  0.
        -24    2    3    3    0    0  0.31351148252E+01 -0.39030125843E+02 -0.83362021164E+02  0.12380709296E+03  0.82739289497E+02 0.  0.
          6    2    1    2  501    0 -0.96023873323E+02  0.53811735491E+02  0.34903043263E+03  0.40444521875E+03  0.17215517692E+03 0.  0.
         24    2    5    5    0    0 -0.67709738132E+02  0.78203865810E+02  0.34495611920E+03  0.36655912231E+03  0.68340417841E+02 0.  0.
          5    1    5    5  501    0 -0.28314135192E+02 -0.24392130319E+02  0.40743134313E+01  0.37886096435E+02  0.47000000000E+01 0. -1.
        -13    1    6    6    0    0 -0.80610135940E+02  0.68648900105E+02  0.27253126407E+03  0.29237639336E+03  0.00000000000E+00 0.  1.
         14    1    6    6    0    0  0.12900397808E+02  0.95549657044E+01  0.72424855134E+02  0.74182728949E+02  0.00000000000E+00 0. -1.
         -5    1    3    3    0  503  0.92888758498E+02 -0.14781609648E+02  0.72171579912E+01  0.94451018039E+02  0.47000000000E+01 0.  1.
         11    1    4    4    0    0 -0.14849710180E+02  0.22399307460E+02 -0.18141208350E+02  0.32424470813E+02  0.00000000000E+00 0. -1.
        -12    1    4    4    0    0  0.17984825005E+02 -0.61429433303E+02 -0.65220812815E+02  0.91382622148E+02  0.00000000000E+00 0.  1.
</event>
<event>
12    1  0.8344842E-002  0.1791693E+03  0.7818608E-02  0.1168850E+00
         21   -1    0    0  503  502  0.00000000000E+00  0.00000000000E+00  0.90745663408E+02  0.90745663408E+02  0.00000000000E+00 0. -1.
         21   -1    0    0  501  503 -0.00000000000E+00 -0.00000000000E+00 -0.63890691362E+03  0.63890691362E+03  0.00000000000E+00 0. -1.
          6    2    1    2  501    0  0.20733108669E+02  0.44069694356E+02 -0.51905451449E+03  0.54910765443E+03  0.17242281573E+03 0.  0.
         24    2    3    3    0    0  0.65211541759E+02 -0.13127650566E+02 -0.25704923773E+03  0.27722767664E+03  0.79724486115E+02 0.  0.
         -6    2    1    2    0  502 -0.20733108669E+02 -0.44069694356E+02 -0.29106735719E+02  0.18054492260E+03  0.17139797915E+03 0.  0.
        -24    2    5    5    0    0 -0.87630362187E+01 -0.29449168567E+02  0.49888667584E+02  0.99185189608E+02  0.80029859122E+02 0.  0.
          5    1    3    3  501    0 -0.44478433090E+02  0.57197344921E+02 -0.26200527675E+03  0.27187997779E+03  0.47000000000E+01 0. -1.
        -13    1    4    4    0    0  0.39364535727E+02 -0.36103205217E+02 -0.75922311820E+02  0.92828904615E+02  0.00000000000E+00 0.  1.
         14    1    4    4    0    0  0.25847006033E+02  0.22975554651E+02 -0.18112692591E+03  0.18439877202E+03  0.00000000000E+00 0. -1.
         -5    1    5    5    0  502 -0.11970072451E+02 -0.14620525789E+02 -0.78995403303E+02  0.81359732988E+02  0.47000000000E+01 0.  1.
         11    1    6    6    0    0 -0.21066336443E+02  0.18306964165E+02 -0.15152165338E+01  0.27950516082E+02  0.00000000000E+00 0. -1.
        -12    1    6    6    0    0  0.12303300224E+02 -0.47756132732E+02  0.51403884118E+02  0.71234673526E+02  0.00000000000E+00 0.  1.
</event>
<event>
12    1  0.8344842E-002  0.2357456E+03  0.7818608E-02  0.1123192E+00
         21   -1    0    0  503  502  0.00000000000E+00  0.00000000000E+00  0.45150420931E+03  0.45150420931E+03  0.00000000000E+00 0.  1.
         21   -1    0    0  501  503 -0.00000000000E+00 -0.00000000000E+00 -0.12228449722E+03  0.12228449722E+03  0.00000000000E+00 0. -1.
          6    2    1    2  501    0  0.15941167560E+03  0.20873934709E+02  0.18685006011E+03  0.29838883505E+03  0.16815215862E+03 0.  0.
         24    2    3    3    0    0  0.37149443775E+02  0.53703676306E+02  0.10599677132E+03  0.14810513808E+03  0.80222505418E+02 0.  0.
         -6    2    1    2    0  502 -0.15941167560E+03 -0.20873934709E+02  0.14236965198E+03  0.27539987149E+03  0.17241858352E+03 0.  0.
        -24    2    5    5    0    0 -0.52181638158E+02 -0.50372718322E+02  0.19704381685E+02  0.10975773403E+03  0.79988520495E+02 0.  0.
          5    1    3    3  501    0  0.12226223182E+03 -0.32829741597E+02  0.80853288796E+02  0.15028369696E+03  0.47000000000E+01 0. -1.
        -11    1    4    4    0    0  0.16185039853E+02  0.86745836955E+01  0.95614003513E+02  0.97361396791E+02  0.00000000000E+00 0.  1.
         12    1    4    4    0    0  0.20964403921E+02  0.45029092611E+02  0.10382767805E+02  0.50743741293E+02  0.00000000000E+00 0. -1.
         -5    1    5    5    0  502 -0.10723003744E+03  0.29498783612E+02  0.12266527029E+03  0.16564213745E+03  0.47000000000E+01 0.  1.
         11    1    6    6    0    0 -0.56097747137E+02 -0.53383678132E+01  0.29349070576E+02  0.63536000413E+02  0.00000000000E+00 0. -1.
        -12    1    6    6    0    0  0.39161089786E+01 -0.45034350508E+02 -0.96446888912E+01  0.46221733622E+02  0.00000000000E+00 0.  1.
</event>
<event>
12    1  0.8344842E-002  0.1847910E+03  0.7818608E-02  0.1163253E+00
         21   -1    0    0  503  502  0.00000000000E+00  0.00000000000E+00  0.19825387471E+04  0.19825387471E+04  0.00000000000E+00 0.  1.
         21   -1    0    0  501  503 -0.00000000000E+00 -0.00000000000E+00 -0.18379497555E+02  0.18379497555E+02  0.00000000000E+00 0.  1.
          6    2    1    2  501    0 -0.67109927523E+02 -0.13378163686E+02  0.73100292420E+03  0.75399800397E+03  0.17165371292E+03 0.  0.
         24    2    3    3    0    0  0.29959595086E+01  0.27774819468E+02  0.54039691477E+03  0.54672730114E+03  0.78112098611E+02 0.  0.
         -6    2    1    2    0  502  0.67109927523E+02  0.13378163686E+02  0.12331563253E+04  0.12469202407E+04  0.17161831565E+03 0.  0.
        -24    2    5    5    0    0 -0.10255776845E+02  0.53301606934E+02  0.71264941006E+03  0.71916189410E+03  0.79864923524E+02 0.  0.
          5    1    3    3  501    0 -0.70105887032E+02 -0.41152983154E+02  0.19060600943E+03  0.20727070283E+03  0.47000000000E+01 0. -1.
        -11    1    4    4    0    0  0.10948103176E+02  0.33351099957E+02  0.95867459559E+02  0.10209175595E+03  0.00000000000E+00 0.  1.
         12    1    4    4    0    0 -0.79521436669E+01 -0.55762804889E+01  0.44452945521E+03  0.44463554519E+03  0.00000000000E+00 0. -1.
         -5    1    5    5    0  502  0.77365704368E+02 -0.39923443249E+02  0.52050691526E+03  0.52775834656E+03  0.47000000000E+01 0.  1.
         13    1    6    6    0    0 -0.18142534946E+02  0.61935501754E+02  0.32552673191E+03  0.33186263896E+03  0.00000000000E+00 0. -1.
        -14    1    6    6    0    0  0.78867581007E+01 -0.86338948192E+01  0.38712267815E+03  0.38729925514E+03  0.00000000000E+00 0.  1.
</event>
<event>
12    1  0.8344842E-002  0.3732095E+03  0.7818608E-02  0.1053475E+00
         21   -1    0    0  501  502  0.00000000000E+00  0.00000000000E+00  0.22434836082E+03  0.22434836082E+03  0.00000000000E+00 0.  1.
         21   -1    0    0  502  503 -0.00000000000E+00 -0.00000000000E+00 -0.63158553494E+03  0.63158553494E+03  0.00000000000E+00 0. -1.
         -6    2    1    2    0  503  0.13689927088E+03  0.30157772714E+03 -0.14767365518E+03  0.40133674599E+03  0.17196842550E+03 0.  0.
        -24    2    3    3    0    0  0.95576836344E+01  0.15624281697E+03 -0.10101252809E+03  0.20249644138E+03  0.79360637395E+02 0.  0.
          6    2    1    2  501    0 -0.13689927088E+03 -0.30157772714E+03 -0.25956351894E+03  0.45459714977E+03  0.17203142835E+03 0.  0.
         24    2    5    5    0    0 -0.61058753776E+02 -0.16633702575E+03 -0.62659836964E+02  0.20392808243E+03  0.79146889306E+02 0.  0.
          5    1    5    5  501    0 -0.75840517102E+02 -0.13524070140E+03 -0.19690368198E+03  0.25066906735E+03  0.47000000000E+01 0. -1.
        -11    1    6    6    0    0 -0.67462058674E+02 -0.96101592285E+02 -0.63312495204E+02  0.13339834125E+03  0.00000000000E+00 0.  1.
         12    1    6    6    0    0  0.64033048978E+01 -0.70235433460E+02  0.65265824036E+00  0.70529741172E+02  0.00000000000E+00 0. -1.
         -5    1    3    3    0  503  0.12734158724E+03  0.14533491017E+03 -0.46661127088E+02  0.19884030461E+03  0.47000000000E+01 0.  1.
         11    1    4    4    0    0  0.14408609302E+02  0.34647862907E+01 -0.31021024934E+02  0.34379016187E+02  0.00000000000E+00 0. -1.
        -12    1    4    4    0    0 -0.48509256673E+01  0.15277803068E+03 -0.69991503156E+02  0.16811742519E+03  0.00000000000E+00 0.  1.
</event>
<event>
12    1  0.8344842E-002  0.3422546E+03  0.7818608E-02  0.1065939E+00
         21   -1    0    0  501  502  0.00000000000E+00  0.00000000000E+00  0.72328324543E+03  0.72328324543E+03  0.00000000000E+00 0. -1.
         21   -1    0    0  502  503 -0.00000000000E+00 -0.00000000000E+00 -0.16160373224E+03  0.16160373224E+03  0.00000000000E+00 0.  1.
         -6    2    1    2    0  503  0.19098403205E+03 -0.22627388727E+03  0.29121931581E+03  0.44866807766E+03  0.16976331010E+03 0.  0.
        -24    2    3    3    0    0  0.59596199781E+02 -0.16969538331E+03  0.18944625639E+03  0.27304423189E+03  0.79467215666E+02 0.  0.
          6    2    1    2  501    0 -0.19098403205E+03  0.22627388727E+03  0.27046019738E+03  0.43621890000E+03  0.17164917066E+03 0.  0.
         24    2    5    5    0    0 -0.75954451664E+02  0.12551905651E+03  0.64443695797E+02  0.17960980193E+03  0.81133092797E+02 0.  0.
          5    1    5    5  501    0 -0.11502958039E+03  0.10075483076E+03  0.20601650159E+03  0.25660909807E+03  0.47000000000E+01 0. -1.
        -11    1    6    6    0    0  0.79355991343E+01  0.54245436623E+02  0.37065090970E+02  0.66176748913E+02  0.00000000000E+00 0.  1.
         12    1    6    6    0    0 -0.83890050798E+02  0.71273619889E+02  0.27378604827E+02  0.11343305302E+03  0.00000000000E+00 0. -1.
         -5    1    3    3    0  503  0.13138783227E+03 -0.56578503959E+02  0.10177305942E+03  0.17562384577E+03  0.47000000000E+01 0.  1.
         13    1    4    4    0    0  0.30645079872E+02 -0.43372106766E+02  0.10697127820E+03  0.11942828361E+03  0.00000000000E+00 0. -1.
        -14    1    4    4    0    0  0.28951119909E+02 -0.12632327654E+03  0.82474978188E+02  0.15361594829E+03  0.00000000000E+00 0.  1.
</event>
<event>
12    1  0.8344842E-002  0.1875413E+03  0.7818608E-02  0.1161654E+00
         21   -1    0    0  501  502  0.00000000000E+00  0.00000000000E+00  0.13718279457E+04  0.13718279457E+04  0.00000000000E+00 0. -1.
         21   -1    0    0  502  503 -0.00000000000E+00 -0.00000000000E+00 -0.26625147417E+02  0.26625147417E+02  0.00000000000E+00 0. -1.
         -6    2    1    2    0  503 -0.51775596370E+02  0.35338378848E+02  0.83407512603E+03  0.85400544684E+03  0.17237886750E+03 0.  0.
        -24    2    3    3    0    0 -0.40934423282E+02 -0.42557387667E+02  0.37212580164E+03  0.38538561181E+03  0.80979622675E+02 0.  0.
          6    2    1    2  501    0  0.51775596370E+02 -0.35338378848E+02  0.51112767222E+03  0.54444764625E+03  0.17675471365E+03 0.  0.
         24    2    5    5    0    0  0.70174528519E+02  0.23672734323E+02  0.19144832944E+03  0.21881318188E+03  0.75775213084E+02 0.  0.
          5    1    5    5  501    0 -0.18398932149E+02 -0.59011113171E+02  0.31967934278E+03  0.32563446437E+03  0.47000000000E+01 0. -1.
        -13    1    6    6    0    0  0.51586938830E+02 -0.21771140714E+02  0.11582547222E+03  0.12864965931E+03  0.00000000000E+00 0.  1.
         14    1    6    6    0    0  0.18587589689E+02  0.45443875037E+02  0.75622857222E+02  0.90163522575E+02  0.00000000000E+00 0. -1.
         -5    1    3    3    0  503 -0.10841173087E+02  0.77895766514E+02  0.46194932440E+03  0.46861983503E+03  0.47000000000E+01 0.  1.
         11    1    4    4    0    0  0.22602571412E+02 -0.16859429661E+02  0.15990407435E+03  0.16237127085E+03  0.00000000000E+00 0. -1.
        -12    1    4    4    0    0 -0.63536994694E+02 -0.25697958006E+02  0.21222172728E+03  0.22301434095E+03  0.00000000000E+00 0.  1.
</event>
<event>
12    1  0.8344842E-002  0.2004088E+03  0.7818608E-02  0.1149621E+00
         21   -1    0    0  501  502  0.00000000000E+00  0.00000000000E+00  0.30460871059E+02  0.30460871059E+02  0.00000000000E+00 0.  1.
         21   -1    0    0  502  503 -0.00000000000E+00 -0.00000000000E+00 -0.18824349043E+04  0.18824349043E+04  0.00000000000E+00 0.  1.
         -6    2    1    2    0  503 -0.10149681059E+03  0.80094252369E+00 -0.14544550154E+04  0.14681972217E+04  0.17280464710E+03 0.  0.
        -24    2    3    3    0    0 -0.11568093522E+03  0.40619544951E+01 -0.71840590584E+03  0.73198923125E+03  0.79388984573E+02 0.  0.
          6    2    1    2  501    0  0.10149681059E+03 -0.80094252369E+00 -0.39751901791E+03  0.44469855368E+03  0.17156103863E+03 0.  0.
         24    2    5    5    0    0  0.70620538227E+02  0.12998131933E+02 -0.10157802465E+03  0.14679434064E+03  0.77937612874E+02 0.  0.
          5    1    5    5  501    0  0.30876272363E+02 -0.13799074457E+02 -0.29594099326E+03  0.29790421304E+03  0.47000000000E+01 0. -1.
        -11    1    6    6    0    0  0.32202756169E+02 -0.32464407427E+02 -0.35720480533E+02  0.58025063412E+02  0.00000000000E+00 0.  1.
         12    1    6    6    0    0  0.38417782058E+02  0.45462539361E+02 -0.65857544113E+02  0.88769277230E+02  0.00000000000E+00 0. -1.
         -5    1    3    3    0  503  0.14184124635E+02 -0.32610119714E+01 -0.73604910952E+03  0.73620799046E+03  0.47000000000E+01 0.  1.
         11    1    4    4    0    0 -0.27789794444E+01  0.15288147127E+02 -0.25542444712E+02  0.29897602767E+02  0.00000000000E+00 0. -1.
        -12    1    4    4    0    0 -0.11290195578E+03 -0.11226192632E+02 -0.69286346113E+03  0.70209162849E+03  0.00000000000E+00 0.  1.
</event>
<event>
12    1  0.8344842E-002  0.2881304E+03  0.7818608E-02  0.1091357E+00
         21   -1    0    0  501  502  0.00000000000E+00  0.00000000000E+00  0.73041518489E+03  0.73041518489E+03  0.00000000000E+00 0. -1.
         21   -1    0    0  502  503 -0.00000000000E+00 -0.00000000000E+00 -0.11792951249E+03  0.11792951249E+03  0.00000000000E+00 0. -1.
         -6    2    1    2    0  503 -0.57928105774E+02  0.22328082591E+03  0.22465893060E+03  0.36520011014E+03  0.17230639190E+03 0.  0.
        -24    2    3    3    0    0 -0.53769937096E+02  0.24493243141E+03  0.19436795524E+03  0.32744146113E+03  0.80968551612E+02 0.  0.
          6    2    1    2  501    0  0.57928105774E+02 -0.22328082591E+03  0.38782674180E+03  0.48314458724E+03  0.17265317217E+03 0.  0.
         24    2    5    5    0    0  0.72724273427E+02 -0.17772493574E+03  0.20127749440E+03  0.29048691827E+03  0.83636398795E+02 0.  0.
          5    1    5    5  501    0 -0.14796167652E+02 -0.45555890173E+02  0.18654924740E+03  0.19265766897E+03  0.47000000000E+01 0. -1.
        -11    1    6    6    0    0  0.81888646633E+02 -0.12539874354E+03  0.17761941302E+03  0.23233435220E+03  0.00000000000E+00 0.  1.
         12    1    6    6    0    0 -0.91643732065E+01 -0.52326192198E+02  0.23658081385E+02  0.58152566074E+02  0.00000000000E+00 0. -1.
         -5    1    3    3    0  503 -0.41581686783E+01 -0.21651605494E+02  0.30290975361E+02  0.37758649017E+02  0.47000000000E+01 0.  1.
         13    1    4    4    0    0 -0.11911143236E+02  0.49127776632E+02  0.86028897860E+02  0.99781686882E+02  0.00000000000E+00 0. -1.
        -14    1    4    4    0    0 -0.41858793860E+02  0.19580465478E+03  0.10833905738E+03  0.22765977424E+03  0.00000000000E+00 0.  1.
</event>
<event>
12    1  0.8344842E-002  0.2495171E+03  0.7818608E-02  0.1114020E+00
         21   -1    0    0  503  502  0.00000000000E+00  0.00000000000E+00  0.24864390298E+03  0.24864390298E+03  0.00000000000E+00 0. -1.
         21   -1    0    0  501  503 -0.00000000000E+00 -0.00000000000E+00 -0.27283300691E+03  0.27283300691E+03  0.00000000000E+00 0.  1.
          6    2    1    2  501    0  0.65529959620E+02 -0.16726226748E+03 -0.90989840448E+02  0.26317262131E+03  0.16943977046E+03 0.  0.
         24    2    3    3    0    0  0.76335548149E+02 -0.16990805240E+03 -0.11774107222E+03  0.23382165331E+03  0.78190429663E+02 0.  0.
         -6    2    1    2    0  502 -0.65529959620E+02  0.16726226748E+03  0.66800736514E+02  0.25830428858E+03  0.17317022080E+03 0.  0.
        -24    2    5    5    0    0  0.13710606161E+02  0.66416148574E+02 -0.15112081273E+02  0.10605184466E+03  0.80121989752E+02 0.  0.
          5    1    3    3  501    0 -0.10805588529E+02  0.26457849193E+01  0.26751231767E+02  0.29350967997E+02  0.47000000000E+01 0. -1.
        -11    1    4    4    0    0  0.69576752656E+02 -0.64577777354E+02 -0.70185658718E+02  0.11805609060E+03  0.00000000000E+00 0.  1.
         12    1    4    4    0    0  0.67587954927E+01 -0.10533027504E+03 -0.47555413498E+02  0.11576556271E+03  0.00000000000E+00 0. -1.
         -5    1    5    5    0  502 -0.79240565781E+02  0.10084611890E+03  0.81912817788E+02  0.15225244393E+03  0.47000000000E+01 0.  1.
         13    1    6    6    0    0 -0.93455557352E+01  0.16226904160E+02  0.29575991776E+02  0.35005586985E+02  0.00000000000E+00 0. -1.
        -14    1    6    6    0    0  0.23056161896E+02  0.50189244414E+02 -0.44688073049E+02  0.71046257671E+02  0.00000000000E+00 0.  1.
</event>
<event>
12    1  0.8344842E-002  0.2280426E+03  0.7818608E-02  0.1128110E+00
         21   -1    0    0  503  502  0.00000000000E+00  0.00000000000E+00  0.10083987886E+03  0.10083987886E+03  0.00000000000E+00 0.  1.
         21   -1    0    0  501  503 -0.00000000000E+00 -0.00000000000E+00 -0.51475075824E+03  0.51475075824E+03  0.00000000000E+00 0. -1.
          6    2    1    2  501    0 -0.29121083169E+02  0.14575149549E+03 -0.20231522700E+03  0.30485224964E+03  0.17295059154E+03 0.  0.
         24    2    3    3    0    0 -0.21381374092E+02  0.16342990160E+03 -0.11520267629E+03  0.21550396689E+03  0.77484238581E+02 0.  0.
         -6    2    1    2    0  502  0.29121083169E+02 -0.14575149549E+03 -0.21159565238E+03  0.31073838745E+03  0.17231973017E+03 0.  0.
        -24    2    5    5    0    0  0.63329824346E+02 -0.15922032631E+03 -0.18577399762E+03  0.26556654632E+03  0.81558772509E+02 0.  0.
          5    1    3    3  501    0 -0.77397090768E+01 -0.17678406104E+02 -0.87112550713E+02  0.89348282752E+02  0.47000000000E+01 0. -1.
        -11    1    4    4    0    0 -0.55585990000E+01  0.49705378626E+01  0.10321298474E+02  0.12733164244E+02  0.00000000000E+00 0.  1.
         12    1    4    4    0    0 -0.15822775092E+02  0.15845936373E+03 -0.12552397476E+03  0.20277080265E+03  0.00000000000E+00 0. -1.
         -5    1    5    5    0  502 -0.34208741178E+02  0.13468830812E+02 -0.25821654758E+02  0.45171841128E+02  0.47000000000E+01 0.  1.
         11    1    6    6    0    0  0.69870077011E+02 -0.67452831955E+02 -0.84361919295E+02  0.12864153928E+03  0.00000000000E+00 0. -1.
        -12    1    6    6    0    0 -0.65402526646E+01 -0.91767494350E+02 -0.10141207832E+03  0.13692500705E+03  0.00000000000E+00 0.  1.
</event>
<event>
12    1  0.8344842E-002  0.3226927E+03  0.7818608E-02  0.1074569E+00
         21   -1    0    0  501  502  0.00000000000E+00  0.00000000000E+00  0.15977763274E+03  0.15977763274E+03  0.00000000000E+00 0.  1.
         21   -1    0    0  502  503 -0.00000000000E+00 -0.00000000000E+00 -0.98881695901E+03  0.98881695901E+03  0.00000000000E+00 0. -1.
         -6    2    1    2    0  503 -0.13731838047E+03  0.23594830402E+03 -0.75173456107E+03  0.81806811872E+03  0.17205422625E+03 0.  0.
        -24    2    3    3    0    0 -0.28665031113E+02  0.81614920830E+02 -0.27252412807E+03  0.30300591607E+03  0.10030207120E+03 0.  0.
          6    2    1    2  501    0  0.13731838047E+03 -0.23594830402E+03 -0.77304765200E+02  0.33052647303E+03  0.16953991526E+03 0.  0.
         24    2    5    5    0    0  0.16240037813E+03 -0.17600912490E+03 -0.82126568905E+02  0.26520303473E+03  0.78960632246E+02 0.  0.
          5    1    5    5  501    0 -0.25081997662E+02 -0.59939179120E+02  0.48218037053E+01  0.65323438300E+02  0.47000000000E+01 0. -1.
        -11    1    6    6    0    0  0.77102226417E+01 -0.55537749941E+02 -0.16606162045E+02  0.58477806214E+02  0.00000000000E+00 0.  1.
         12    1    6    6    0    0  0.15469015549E+03 -0.12047137495E+03 -0.65520406860E+02  0.20672522851E+03  0.00000000000E+00 0. -1.
         -5    1    3    3    0  503 -0.10865334936E+03  0.15433338319E+03 -0.47921043300E+03  0.51506220264E+03  0.47000000000E+01 0.  1.
         13    1    4    4    0    0 -0.26570636445E+01  0.85014698646E+02 -0.11350291013E+03  0.14183606587E+03  0.00000000000E+00 0. -1.
        -14    1    4    4    0    0 -0.26007967468E+02 -0.33997778163E+01 -0.15902121794E+03  0.16116985021E+03  0.00000000000E+00 0.  1.
</event>
<event>
12    1  0.8344842E-002  0.2982227E+03  0.7818608E-02  0.1086200E+00
         21   -1    0    0  503  502  0.00000000000E+00  0.00000000000E+00  0.58999588389E+03  0.58999588389E+03  0.00000000000E+00 0. -1.
         21   -1    0    0  501  503 -0.00000000000E+00 -0.00000000000E+00 -0.16714403237E+03  0.16714403237E+03  0.00000000000E+00 0.  1.
          6    2    1    2  501    0 -0.92283686023E+02 -0.22484153251E+03  0.33116742766E+03  0.44565527916E+03  0.17282004876E+03 0.  0.
         24    2    3    3    0    0  0.87096622991E+00 -0.12959045890E+03  0.11045808785E+03  0.18780792327E+03  0.79223615489E+02 0.  0.
         -6    2    1    2    0  502  0.92283686023E+02  0.22484153251E+03  0.91684423863E+02  0.31148463710E+03  0.17189139631E+03 0.  0.
        -24    2    5    5    0    0  0.11926775461E+03  0.22236737421E+03  0.99889879667E+02  0.28278479526E+03  0.79480852847E+02 0.  0.
          5    1    3    3  501    0 -0.93154652253E+02 -0.95251073609E+02  0.22070933980E+03  0.25784735589E+03  0.47000000000E+01 0. -1.
        -13    1    4    4    0    0  0.14689707005E+00 -0.46802864265E+02 -0.35191500428E+01  0.46935211720E+02  0.00000000000E+00 0.  1.
         14    1    4    4    0    0  0.72406915986E+00 -0.82787594636E+02  0.11397723789E+03  0.14087271155E+03  0.00000000000E+00 0. -1.
         -5    1    5    5    0  502 -0.26984068585E+02  0.24741583009E+01 -0.82054558046E+01  0.28699841841E+02  0.47000000000E+01 0.  1.
         13    1    6    6    0    0  0.63343587355E+02  0.93331375069E+02  0.85255483570E+02  0.14139184245E+03  0.00000000000E+00 0. -1.
        -14    1    6    6    0    0  0.55924167253E+02  0.12903599914E+03  0.14634396097E+02  0.14139295282E+03  0.00000000000E+00 0.  1.
</event>
<event>
12    1  0.8344842E-002  0.1912333E+03  0.7818608E-02  0.1158762E+00
         21   -1    0    0  503  502  0.00000000000E+00  0.00000000000E+00  0.86035877975E+02  0.86035877975E+02  0.00000000000E+00 0. -1.
         21   -1    0    0  501  503 -0.00000000000E+00 -0.00000000000E+00 -0.75907266514E+03  0.75907266514E+03  0.00000000000E+00 0. -1.
          6    2    1    2  501    0 -0.70472773870E+02 -0.43049187470E+02 -0.62546570546E+03  0.65404702695E+03  0.17248339155E+03 0.  0.
         24    2    3    3    0    0  0.14881288496E+02 -0.14697893319E+02 -0.16502026334E+03  0.18487626165E+03  0.80684967587E+02 0.  0.
         -6    2    1    2    0  502  0.70472773870E+02  0.43049187470E+02 -0.47571081709E+02  0.19106151617E+03  0.16559544301E+03 0.  0.
        -24    2    5    5    0    0  0.83404812767E+02  0.18418074258E+02 -0.84545629058E+02  0.14455198467E+03  0.80322628370E+02 0.  0.
          5    1    3    3  501    0 -0.85354062366E+02 -0.28351294151E+02 -0.46044544212E+03  0.46917076530E+03  0.47000000000E+01 0. -1.
        -11    1    4    4    0    0  0.16332352757E+02  0.23161842593E+02 -0.13075849535E+03  0.13379462173E+03  0.00000000000E+00 0.  1.
         12    1    4    4    0    0 -0.14510642611E+01 -0.37859735913E+02 -0.34261767988E+02  0.51081639916E+02  0.00000000000E+00 0. -1.
         -5    1    5    5    0  502 -0.12932038897E+02  0.24631113212E+02  0.36974547349E+02  0.46509531493E+02  0.47000000000E+01 0.  1.
         11    1    6    6    0    0  0.32515678436E+02 -0.30077872961E+02 -0.18187013672E+02  0.47882306255E+02  0.00000000000E+00 0. -1.
        -12    1    6    6    0    0  0.50889134331E+02  0.48495947219E+02 -0.66358615386E+02  0.96669678419E+02  0.00000000000E+00 0.  1.
</event>
<event>
12    1  0.8344842E-002  0.2550090E+03  0.7818608E-02  0.1110185E+00
         21   -1    0    0  503  502  0.00000000000E+00  0.00000000000E+00  0.83989641038E+03  0.83989641038E+03  0.00000000000E+00 0. -1.
         21   -1    0    0  501  503 -0.00000000000E+00 -0.00000000000E+00 -0.92240404143E+02  0.92240404143E+02  0.00000000000E+00 0.  1.
          6    2    1    2  501    0 -0.11968384479E+02 -0.18802466647E+03  0.56070476480E+03  0.61597032833E+03  0.17185195569E+03 0.  0.
         24    2    3    3    0    0 -0.51068340953E+02 -0.15586847958E+03  0.51841406321E+03  0.54983848733E+03  0.81647185160E+02 0.  0.
         -6    2    1    2    0  502  0.11968384479E+02  0.18802466647E+03  0.18695124143E+03  0.31616648620E+03  0.17179628311E+03 0.  0.
        -24    2    5    5    0    0  0.69774696786E+02  0.11527270727E+03  0.14715149369E+03  0.21497099602E+03  0.80016633795E+02 0.  0.
          5    1    3    3  501    0  0.39099956473E+02 -0.32156186894E+02  0.42290701591E+02  0.66131840991E+02  0.47000000000E+01 0. -1.
        -11    1    4    4    0    0  0.32838305796E+01  0.87971265595E+01  0.19366674559E+02  0.21523035623E+02  0.00000000000E+00 0.  1.
         12    1    4    4    0    0 -0.54352171532E+02 -0.16466560614E+03  0.49904738865E+03  0.52831545171E+03  0.00000000000E+00 0. -1.
         -5    1    5    5    0  502 -0.57806312307E+02  0.72751959206E+02  0.39799747745E+02  0.10119549017E+03  0.47000000000E+01 0.  1.
         13    1    6    6    0    0  0.51158697567E+02  0.38633055998E+02  0.23440214612E+02  0.68258105845E+02  0.00000000000E+00 0. -1.
        -14    1    6    6    0    0  0.18615999219E+02  0.76639651272E+02  0.12371127907E+03  0.14671289018E+03  0.00000000000E+00 0.  1.
</event>
<event>
12    1  0.8344842E-002  0.1724072E+03  0.7818608E-02  0.1175549E+00
         21   -1    0    0  503  502  0.00000000000E+00  0.00000000000E+00  0.30626632978E+02  0.30626632978E+02  0.00000000000E+00 0.  1.
         21   -1    0    0  501  503 -0.00000000000E+00 -0.00000000000E+00 -0.11505424326E+04  0.11505424326E+04  0.00000000000E+00 0.  1.
          6    2    1    2  501    0 -0.20923959937E+02 -0.14977308548E+02 -0.32269685278E+03  0.36552068802E+03  0.16973503677E+03 0.  0.
         24    2    3    3    0    0  0.38627780083E+02  0.27244505831E+02 -0.13647700470E+03  0.16544816825E+03  0.80701642318E+02 0.  0.
         -6    2    1    2    0  502  0.20923959937E+02  0.14977308548E+02 -0.79721894689E+03  0.81564837761E+03  0.17047608260E+03 0.  0.
        -24    2    5    5    0    0 -0.10997281905E+02 -0.32826052180E+02 -0.23480335409E+03  0.25028343706E+03  0.79439875769E+02 0.  0.
          5    1    3    3  501    0 -0.59551740020E+02 -0.42221814379E+02 -0.18621984808E+03  0.20007251977E+03  0.47000000000E+01 0. -1.
        -13    1    4    4    0    0 -0.93614741330E+01  0.17126826736E+02  0.94050273043E+00  0.19540980972E+02  0.00000000000E+00 0.  1.
         14    1    4    4    0    0  0.47989254216E+02  0.10117679095E+02 -0.13741750743E+03  0.14590718728E+03  0.00000000000E+00 0. -1.
         -5    1    5    5    0  502  0.31921241842E+02  0.47803360727E+02 -0.56241559280E+03  0.56536494055E+03  0.47000000000E+01 0.  1.
         11    1    6    6    0    0 -0.42281762544E+02 -0.20806567590E+02 -0.89308200429E+02  0.10097829154E+03  0.00000000000E+00 0. -1.
        -12    1    6    6    0    0  0.31284480639E+02 -0.12019484590E+02 -0.14549515366E+03  0.14930514552E+03  0.00000000000E+00 0.  1.
</event>
<event>
12    1  0.8344842E-002  0.2130014E+03  0.7818608E-02  0.1139254E+00
         21   -1    0    0  501  502  0.00000000000E+00  0.00000000000E+00  0.21490459908E+04  0.21490459908E+04  0.00000000000E+00 0.  1.
         21   -1    0    0  502  503 -0.00000000000E+00 -0.00000000000E+00 -0.42937151831E+02  0.42937151831E+02  0.00000000000E+00 0.  1.
         -6    2    1    2    0  503 -0.55394087209E+02  0.11365356626E+03  0.27099251541E+03  0.34454667454E+03  0.17114271678E+03 0.  0.
        -24    2    3    3    0    0 -0.72010973176E+02  0.58879747268E+02  0.26048394446E+03  0.28616164042E+03  0.73377068821E+02 0.  0.
          6    2    1    2  501    0  0.55394087209E+02 -0.11365356626E+03  0.18351163236E+04  0.18474364681E+04  0.17141745718E+03 0.  0.
         24    2    5    5    0    0 -0.21354905529E+02 -0.62302413880E+02  0.60199775321E+03  0.61085616449E+03  0.80039590524E+02 0.  0.
          5    1    5    5  501    0  0.76748992738E+02 -0.51351152378E+02  0.12331185704E+04  0.12365803037E+04  0.47000000000E+01 0. -1.
        -13    1    6    6    0    0  0.23978329409E+02 -0.93474498668E+01  0.29128736171E+03  0.29242206174E+03  0.00000000000E+00 0.  1.
         14    1    6    6    0    0 -0.45333234938E+02 -0.52954964013E+02  0.31071039151E+03  0.31843410275E+03  0.00000000000E+00 0. -1.
         -5    1    3    3    0  503  0.16616885967E+02  0.54773818990E+02  0.10508570951E+02  0.58385034122E+02  0.47000000000E+01 0.  1.
         13    1    4    4    0    0  0.44908606857E+01  0.11633947659E+01  0.93635366227E+02  0.93750216669E+02  0.00000000000E+00 0. -1.
        -14    1    4    4    0    0 -0.76501833862E+02  0.57716352502E+02  0.16684857823E+03  0.19241142375E+03  0.00000000000E+00 0.  1.
</event>
<event>
12    1  0.8344842E-002  0.2056109E+03  0.7818608E-02  0.1145734E+00
         21   -1    0    0  503  502  0.00000000000E+00  0.00000000000E+00  0.16641401332E+04  0.16641401332E+04  0.00000000000E+00 0. -1.
         21   -1    0    0  501  503 -0.00000000000E+00 -0.00000000000E+00 -0.82846227349E+02  0.82846227349E+02  0.00000000000E+00 0.  1.
          6    2    1    2  501    0  0.68031578275E+02 -0.81425416617E+02  0.62705872043E+02  0.21496016614E+03  0.17611772348E+03 0.  0.
         24    2    3    3    0    0 -0.19802437170E+02 -0.12421418206E+01  0.10931684330E+01  0.80936335897E+02  0.78459008514E+02 0.  0.
         -6    2    1    2    0  502 -0.68031578275E+02  0.81425416617E+02  0.15185880338E+04  0.15320261944E+04  0.17244201873E+03 0.  0.
        -24    2    5    5    0    0 -0.60009253773E+02  0.11071929310E+03  0.14388428712E+04  0.14465635134E+04  0.80108163398E+02 0.  0.
          5    1    3    3  501    0  0.87834015445E+02 -0.80183274796E+02  0.61612703610E+02  0.13402383024E+03  0.47000000000E+01 0. -1.
        -13    1    4    4    0    0  0.47134127550E+01 -0.27186469264E+02 -0.24592012706E+02  0.36960620392E+02  0.00000000000E+00 0.  1.
         14    1    4    4    0    0 -0.24515849924E+02  0.25944327443E+02  0.25685181139E+02  0.43975715505E+02  0.00000000000E+00 0. -1.
         -5    1    5    5    0  502 -0.80223245020E+01 -0.29293876479E+02  0.79745162633E+02  0.85462681054E+02  0.47000000000E+01 0.  1.
         11    1    6    6    0    0 -0.47692109033E+02  0.54325738402E+02  0.11341250372E+04  0.11364266026E+04  0.00000000000E+00 0. -1.
        -12    1    6    6    0    0 -0.12317144740E+02  0.56393554694E+02  0.30471783403E+03  0.31013691080E+03  0.00000000000E+00 0.  1.
</event>
<event>
12    1  0.8344842E-002  0.1921434E+03  0.7818608E-02  0.1158479E+00
         21   -1    0    0  503  502  0.00000000000E+00  0.00000000000E+00  0.40822755977E+02  0.40822755977E+02  0.00000000000E+00 0. -1.
         21   -1    0    0  501  503 -0.00000000000E+00 -0.00000000000E+00 -0.15672059524E+04  0.15672059524E+04  0.00000000000E+00 0. -1.
          6    2    1    2  501    0  0.55882608691E+02  0.25535094671E+02 -0.12918543578E+04  0.13048408475E+04  0.17305215563E+03 0.  0.
         24    2    3    3    0    0 -0.18511288119E+02  0.60408542747E+02 -0.75387391474E+03  0.76060224508E+03  0.78727606821E+02 0.  0.
         -6    2    1    2    0  502 -0.55882608691E+02 -0.25535094671E+02 -0.23452883865E+03  0.30318786088E+03  0.18205547456E+03 0.  0.
        -24    2    5    5    0    0 -0.73265894415E+02  0.46912809027E+02 -0.13638394729E+03  0.17987773530E+03  0.78655677748E+02 0.  0.
          5    1    3    3  501    0  0.74393896810E+02 -0.34873448076E+02 -0.53798044309E+03  0.54423860246E+03  0.47000000000E+01 0. -1.
        -13    1    4    4    0    0  0.26982759237E+02  0.24439132913E+02 -0.16995962180E+03  0.17381488301E+03  0.00000000000E+00 0.  1.
         14    1    4    4    0    0 -0.45494047356E+02  0.35969409834E+02 -0.58391429294E+03  0.58678736207E+03  0.00000000000E+00 0. -1.
         -5    1    5    5    0  502  0.17383285724E+02 -0.72447903698E+02 -0.98144891358E+02  0.12331012559E+03  0.47000000000E+01 0.  1.
         13    1    6    6    0    0 -0.24248686856E+02  0.24850797448E+02 -0.15859677642E+01  0.34757391182E+02  0.00000000000E+00 0. -1.
        -14    1    6    6    0    0 -0.49017207560E+02  0.22062011578E+02 -0.13479797952E+03  0.14512034411E+03  0.00000000000E+00 0.  1.
</event>
<event>
12    1  0.8344842E-002  0.1989226E+03  0.7818608E-02  0.1152095E+00
         21   -1    0    0  501  502  0.00000000000E+00  0.00000000000E+00  0.55202915857E+03  0.55202915857E+03  0.00000000000E+00 0. -1.
         21   -1    0    0  502  503 -0.00000000000E+00 -0.00000000000E+00 -0.26999742550E+03  0.26999742550E+03  0.00000000000E+00 0. -1.
         -6    2    1    2    0  503  0.80959286797E+02 -0.56663871194E+02 -0.21395379454E+03  0.28763734743E+03  0.16490547906E+03 0.  0.
        -24    2    3    3    0    0  0.82071925927E+02 -0.62990348078E+02 -0.23308899470E+03  0.26691276877E+03  0.78793157725E+02 0.  0.
          6    2    1    2  501    0 -0.80959286797E+02  0.56663871194E+02  0.49598552761E+03  0.53438923664E+03  0.17264128190E+03 0.  0.
         24    2    5    5    0    0 -0.88969390561E+02 -0.28417137261E+01  0.42472625177E+03  0.44108837495E+03  0.79012263446E+02 0.  0.
          5    1    5    5  501    0  0.80101037641E+01  0.59505584921E+02  0.71259275839E+02  0.93300861690E+02  0.47000000000E+01 0. -1.
        -13    1    6    6    0    0 -0.44625246444E+02 -0.46660658589E+01  0.67103012763E+02  0.80721738786E+02  0.00000000000E+00 0.  1.
         14    1    6    6    0    0 -0.44344144117E+02  0.18243521328E+01  0.35762323901E+03  0.36036663616E+03  0.00000000000E+00 0. -1.
         -5    1    3    3    0  503 -0.11126391300E+01  0.63264768831E+01  0.19135200164E+02  0.20724578666E+02  0.47000000000E+01 0.  1.
         11    1    4    4    0    0  0.26204676311E+02  0.37969975549E+01 -0.12668599962E+03  0.12942350926E+03  0.00000000000E+00 0. -1.
        -12    1    4    4    0    0  0.55867249616E+02 -0.66787345632E+02 -0.10640299508E+03  0.13748925950E+03  0.00000000000E+00 0.  1.
</event>
<event>
12    1  0.8344842E-002  0.1818604E+03  0.7818608E-02  0.1166930E+00
         21   -1    0    0  501  502  0.00000000000E+00  0.00000000000E+00  0.16237585758E+03  0.16237585758E+03  0.00000000000E+00 0.  1.
         21   -1    0    0  502  503 -0.00000000000E+00 -0.00000000000E+00 -0.53494864220E+03  0.53494864220E+03  0.00000000000E+00 0.  1.
         -6    2    1    2    0  503  0.38508532290E+02 -0.44082774606E+02 -0.46312608152E+03  0.49755299438E+03  0.17218309079E+03 0.  0.
        -24    2    3    3    0    0  0.85304526383E+02 -0.59196399632E+02 -0.35970532435E+03  0.38293960189E+03  0.80459569832E+02 0.  0.
          6    2    1    2  501    0 -0.38508532290E+02  0.44082774606E+02  0.90553296902E+02  0.19977150539E+03  0.16817418563E+03 0.  0.
         24    2    5    5    0    0 -0.47503116097E+02  0.11677576365E+02 -0.89097599751E+01  0.94671604852E+02  0.80563125024E+02 0.  0.
          5    1    5    5  501    0  0.89945838073E+01  0.32405198241E+02  0.99463056877E+02  0.10509990054E+03  0.47000000000E+01 0. -1.
        -11    1    6    6    0    0 -0.51775404568E+02 -0.20154620804E+02 -0.22308405146E+02  0.59871246839E+02  0.00000000000E+00 0.  1.
         12    1    6    6    0    0  0.42722884711E+01  0.31832197169E+02  0.13398645171E+02  0.34800358012E+02  0.00000000000E+00 0. -1.
         -5    1    3    3    0  503 -0.46795994093E+02  0.15113625027E+02 -0.10342075717E+03  0.11461339249E+03  0.47000000000E+01 0.  1.
         13    1    4    4    0    0  0.38279160240E+02  0.98311985883E+01 -0.60260395764E+02  0.72064289853E+02  0.00000000000E+00 0. -1.
        -14    1    4    4    0    0  0.47025366143E+02 -0.69027598221E+02 -0.29944492859E+03  0.31087531203E+03  0.00000000000E+00 0.  1.
</event>
<event>
12    1  0.8344842E-002  0.2065781E+03  0.7818608E-02  0.1144608E+00
         21   -1    0    0  503  502  0.00000000000E+00  0.00000000000E+00  0.23396377908E+02  0.23396377908E+02  0.00000000000E+00 0.  1.
         21   -1    0    0  501  503 -0.00000000000E+00 -0.00000000000E+00 -0.20116855086E+04  0.20116855086E+04  0.00000000000E+00 0.  1.
          6    2    1    2  501    0  0.56355302808E+02 -0.10110987214E+03 -0.13189084316E+04  0.13349883795E+04  0.17110054308E+03 0.  0.
         24    2    3    3    0    0 -0.35387990707E+02 -0.63676692783E+02 -0.78536365220E+03  0.79230044290E+03  0.75079254987E+02 0.  0.
         -6    2    1    2    0  502 -0.56355302808E+02  0.10110987214E+03 -0.66938069903E+03  0.70009350702E+03  0.16929640265E+03 0.  0.
        -24    2    5    5    0    0  0.19890586743E+02  0.18775185040E+02 -0.18337053802E+03  0.20127449880E+03  0.78348750060E+02 0.  0.
          5    1    3    3  501    0  0.91743293515E+02 -0.37433179352E+02 -0.53354477944E+03  0.54268793656E+03  0.47000000000E+01 0. -1.
        -13    1    4    4    0    0 -0.24446480543E+02 -0.57337619007E+02 -0.76946834238E+03  0.77198883599E+03  0.00000000000E+00 0.  1.
         14    1    4    4    0    0 -0.10941510164E+02 -0.63390737763E+01 -0.15895309819E+02  0.20311606910E+02  0.00000000000E+00 0. -1.
         -5    1    5    5    0  502 -0.76245889551E+02  0.82334687095E+02 -0.48601016100E+03  0.49881900823E+03  0.47000000000E+01 0.  1.
         13    1    6    6    0    0 -0.21857201691E+02  0.12117325470E+02 -0.18562909075E+02  0.31131148961E+02  0.00000000000E+00 0. -1.
        -14    1    6    6    0    0  0.41747788434E+02  0.66578595701E+01 -0.16480762895E+03  0.17014334984E+03  0.00000000000E+00 0.  1.
</event>
<event>
12    1  0.8344842E-002  0.2059312E+03  0.7818608E-02  0.1145808E+00
         21   -1    0    0  503  502  0.00000000000E+00  0.00000000000E+00  0.17084847147E+02  0.17084847147E+02  0.00000000000E+00 0.  1.
         21   -1    0    0  501  503 -0.00000000000E+00 -0.00000000000E+00 -0.24508346754E+04  0.24508346754E+04  0.00000000000E+00 0. -1.
          6    2    1    2  501    0 -0.10480071948E+03  0.80668343445E+01 -0.11046458360E+04  0.11236770315E+04  0.17708580822E+03 0.  0.
         24    2    3    3    0    0  0.25278580211E+01 -0.33292273960E+02 -0.46381180787E+03  0.47258537818E+03  0.84266131883E+02 0.  0.
         -6    2    1    2    0  502  0.10480071948E+03 -0.80668343445E+01 -0.13291039923E+04  0.13442424911E+04  0.17152897113E+03 0.  0.
        -24    2    5    5    0    0  0.47625644924E+02 -0.68720194269E+02 -0.63046226605E+03  0.64063026063E+03  0.77031128571E+02 0.  0.
          5    1    3    3  501    0 -0.10732857750E+03  0.41359108305E+02 -0.64083402814E+03  0.65109165331E+03  0.47000000000E+01 0. -1.
        -11    1    4    4    0    0 -0.27597516479E+02  0.89190074078E+01 -0.76431104533E+02  0.81748916501E+02  0.00000000000E+00 0.  1.
         12    1    4    4    0    0  0.30125374500E+02 -0.42211281368E+02 -0.38738070333E+03  0.39083646168E+03  0.00000000000E+00 0. -1.
         -5    1    5    5    0  502  0.57175074551E+02  0.60653359924E+02 -0.69864172620E+03  0.70361223043E+03  0.47000000000E+01 0.  1.
         11    1    6    6    0    0  0.37078046491E+02 -0.25339552197E+01 -0.36304451068E+03  0.36494180247E+03  0.00000000000E+00 0. -1.
        -12    1    6    6    0    0  0.10547598433E+02 -0.66186239049E+02 -0.26741775537E+03  0.27568845816E+03  0.00000000000E+00 0.  1.
</event>
<event>
12    1  0.8344842E-002  0.1809188E+03  0.7818608E-02  0.1169042E+00
         21   -1    0    0  501  502  0.00000000000E+00  0.00000000000E+00  0.26773631065E+02  0.26773631065E+02  0.00000000000E+00 0.  1.
         21   -1    0    0  502  503 -0.00000000000E+00 -0.00000000000E+00 -0.16554867068E+04  0.16554867068E+04  0.00000000000E+00 0.  1.
         -6    2    1    2    0  503 -0.16276801283E+02 -0.24049155676E+02 -0.12860689352E+04  0.12987320475E+04  0.17857303526E+03 0.  0.
        -24    2    3    3    0    0  0.20792338565E+02  0.46225739647E+02 -0.86531703812E+03  0.87051839644E+03  0.80371398725E+02 0.  0.
          6    2    1    2  501    0  0.16276801283E+02  0.24049155676E+02 -0.34264414060E+03  0.38352829045E+03  0.16984006105E+03 0.  0.
         24    2    5    5    0    0  0.58908663753E+02  0.52946923490E+02 -0.16947590027E+03  0.20280229304E+03  0.78313995654E+02 0.  0.
          5    1    5    5  501    0 -0.42631862470E+02 -0.28897767814E+02 -0.17316824033E+03  0.18072599741E+03  0.47000000000E+01 0. -1.
        -13    1    6    6    0    0  0.59103343033E+02  0.63803073533E+01 -0.12496474814E+03  0.13838389269E+03  0.00000000000E+00 0.  1.
         14    1    6    6    0    0 -0.19467927978E+00  0.46566616137E+02 -0.44511152134E+02  0.64418400343E+02  0.00000000000E+00 0. -1.
         -5    1    3    3    0  503 -0.37069139848E+02 -0.70274895323E+02 -0.42075189705E+03  0.42821365101E+03  0.47000000000E+01 0.  1.
         13    1    4    4    0    0  0.33549245444E+02  0.44320869072E+02 -0.30319755882E+03  0.30825095455E+03  0.00000000000E+00 0. -1.
        -14    1    4    4    0    0 -0.12756906879E+02  0.19048705751E+01 -0.56211947930E+03  0.56226744190E+03  0.00000000000E+00 0.  1.
</event>
<event>
12    1  0.8344842E-002  0.2000915E+03  0.7818608E-02  0.1149921E+00
         21   -1    0    0  503  502  0.00000000000E+00  0.00000000000E+00  0.37174826480E+03  0.37174826480E+03  0.00000000000E+00 0.  1.
         21   -1    0    0  501  503 -0.00000000000E+00 -0.00000000000E+00 -0.10731953468E+03  0.10731953468E+03  0.00000000000E+00 0.  1.
          6    2    1    2  501    0  0.92395500454E+02  0.40109467245E+02  0.14485953198E+03  0.24702406499E+03  0.17288986903E+03 0.  0.
         24    2    3    3    0    0  0.94517159976E+02  0.19602717883E+02  0.30936060706E+02  0.13115484770E+03  0.83227364166E+02 0.  0.
         -6    2    1    2    0  502 -0.92395500454E+02 -0.40109467245E+02  0.11956919814E+03  0.23204373449E+03  0.17146954163E+03 0.  0.
        -24    2    5    5    0    0 -0.49135478438E+02 -0.60272983156E+02  0.14680121528E+03  0.17689240054E+03  0.60771677791E+02 0.  0.
          5    1    3    3  501    0 -0.21216595214E+01  0.20506749362E+02  0.11392347127E+03  0.11586921729E+03  0.47000000000E+01 0. -1.
        -13    1    4    4    0    0  0.12242199958E+02 -0.24906678595E+02  0.25117417734E+02  0.37431253947E+02  0.00000000000E+00 0.  1.
         14    1    4    4    0    0  0.82274960017E+02  0.44509396478E+02  0.58186429729E+01  0.93723593757E+02  0.00000000000E+00 0. -1.
         -5    1    5    5    0  502 -0.43260022016E+02  0.20163515911E+02 -0.27232017141E+02  0.55151333949E+02  0.47000000000E+01 0.  1.
         11    1    6    6    0    0 -0.25298616887E+02 -0.64658225045E+02  0.80532371108E+02  0.10633047013E+03  0.00000000000E+00 0. -1.
        -12    1    6    6    0    0 -0.23836861550E+02  0.43852418885E+01  0.66268844176E+02  0.70561930411E+02  0.00000000000E+00 0.  1.
</event>
<event>
12    1  0.8344842E-002  0.2499264E+03  0.7818608E-02  0.1113506E+00
         21   -1    0    0  503  502  0.00000000000E+00  0.00000000000E+00  0.35387928630E+03  0.35387928630E+03  0.00000000000E+00 0.  1.
         21   -1    0    0  501  503 -0.00000000000E+00 -0.00000000000E+00 -0.19039271117E+03  0.19039271117E+03  0.00000000000E+00 0.  1.
          6    2    1    2  501    0  0.27786463120E+02  0.17900656469E+03  0.66089084930E+01  0.25001374186E+03  0.17218523663E+03 0.  0.
         24    2    3    3    0    0  0.61896907725E+02  0.18693091095E+03 -0.70188723824E+01  0.21214391078E+03  0.78621763239E+02 0.  0.
         -6    2    1    2    0  502 -0.27786463120E+02 -0.17900656469E+03  0.15687766664E+03  0.29425825561E+03  0.17076850110E+03 0.  0.
        -24    2    5    5    0    0  0.46229243719E+02 -0.64293876454E+02  0.88530007439E+02  0.14151396531E+03  0.76927203481E+02 0.  0.
          5    1    3    3  501    0 -0.34110444605E+02 -0.79243462584E+01  0.13627780875E+02  0.37869831084E+02  0.47000000000E+01 0. -1.
        -11    1    4    4    0    0 -0.30424572450E+01  0.11060152291E+03 -0.14786749641E+02  0.11162706383E+03  0.00000000000E+00 0.  1.
         12    1    4    4    0    0  0.64939364970E+02  0.76329388046E+02  0.77678772586E+01  0.10051684694E+03  0.00000000000E+00 0. -1.
         -5    1    5    5    0  502 -0.74015706840E+02 -0.11471268824E+03  0.68347659196E+02  0.15274429030E+03  0.47000000000E+01 0.  1.
         13    1    6    6    0    0 -0.55790753495E+01 -0.14403483733E+02 -0.10822012647E+02  0.18860073784E+02  0.00000000000E+00 0. -1.
        -14    1    6    6    0    0  0.51808319069E+02 -0.49890392721E+02  0.99352020086E+02  0.12265389152E+03  0.00000000000E+00 0.  1.
</event>
<event>
12    1  0.8344842E-002  0.2565979E+03  0.7818608E-02  0.1109227E+00
         21   -1    0    0  503  502  0.00000000000E+00  0.00000000000E+00  0.21808856228E+03  0.21808856228E+03  0.00000000000E+00 0.  1.
         21   -1    0    0  501  503 -0.00000000000E+00 -0.00000000000E+00 -0.33308246799E+03  0.33308246799E+03  0.00000000000E+00 0. -1.
          6    2    1    2  501    0 -0.10640472478E+03  0.15750368652E+03 -0.14202973281E+03  0.29315278142E+03  0.17215322108E+03 0.  0.
         24    2    3    3    0    0  0.13477043410E+02  0.84675131734E+02 -0.69310200850E+02  0.13508362863E+03  0.78052380795E+02 0.  0.
         -6    2    1    2    0  502  0.10640472478E+03 -0.15750368652E+03  0.27035827100E+02  0.25801824886E+03  0.17237489398E+03 0.  0.
        -24    2    5    5    0    0  0.87657577084E+02 -0.11092795717E+03 -0.46058817275E+02  0.16921694736E+03  0.80771889441E+02 0.  0.
          5    1    3    3  501    0 -0.11988176819E+03  0.72828554783E+02 -0.72719531962E+02  0.15806915279E+03  0.47000000000E+01 0. -1.
        -13    1    4    4    0    0  0.17170626191E+02  0.70511869871E+02 -0.86234300308E+02  0.11270806868E+03  0.00000000000E+00 0.  1.
         14    1    4    4    0    0 -0.36935827809E+01  0.14163261862E+02  0.16924099458E+02  0.22375559944E+02  0.00000000000E+00 0. -1.
         -5    1    5    5    0  502  0.18747147695E+02 -0.46575729348E+02  0.73094644375E+02  0.88801301496E+02  0.47000000000E+01 0.  1.
         13    1    6    6    0    0  0.87426051615E+01 -0.71908026571E+00  0.17447462824E+02  0.19528547832E+02  0.00000000000E+00 0. -1.
        -14    1    6    6    0    0  0.78914971923E+02 -0.11020887690E+03 -0.63506280099E+02  0.14968839953E+03  0.00000000000E+00 0.  1.
</event>
<event>
12    1  0.8344842E-002  0.2827112E+03  0.7818608E-02  0.1094282E+00
         21   -1    0    0  503  502  0.00000000000E+00  0.00000000000E+00  0.14620153375E+04  0.14620153375E+04  0.00000000000E+00 0.  1.
         21   -1    0    0  501  503 -0.00000000000E+00 -0.00000000000E+00 -0.60690638794E+02  0.60690638794E+02  0.00000000000E+00 0. -1.
          6    2    1    2  501    0 -0.17221340056E+03 -0.14435436710E+03  0.45844065246E+03  0.53835038798E+03  0.17075617055E+03 0.  0.
         24    2    3    3    0    0 -0.13698307964E+03 -0.15199696313E+03  0.45068903010E+03  0.50117832272E+03  0.78687155275E+02 0.  0.
         -6    2    1    2    0  502  0.17221340056E+03  0.14435436710E+03  0.94288404628E+03  0.98435558835E+03  0.17155162765E+03 0.  0.
        -24    2    5    5    0    0  0.33174249314E+02  0.44359475370E+02  0.20293139957E+03  0.22482752875E+03  0.79359756033E+02 0.  0.
          5    1    3    3  501    0 -0.35230320917E+02  0.76425960391E+01  0.77516223548E+01  0.37172065254E+02  0.47000000000E+01 0. -1.
        -11    1    4    4    0    0 -0.12823453807E+02 -0.59793888017E+01  0.10465809327E+03  0.10561018202E+03  0.00000000000E+00 0.  1.
         12    1    4    4    0    0 -0.12415962583E+03 -0.14601757433E+03  0.34603093683E+03  0.39556814071E+03  0.00000000000E+00 0. -1.
         -5    1    5    5    0  502  0.13903915124E+03  0.99994891726E+02  0.73995264671E+03  0.75952805960E+03  0.47000000000E+01 0.  1.
         11    1    6    6    0    0  0.44872361746E+02 -0.35180315164E+01  0.71819665972E+02  0.84758302335E+02  0.00000000000E+00 0. -1.
        -12    1    6    6    0    0 -0.11698112431E+02  0.47877506887E+02  0.13111173360E+03  0.14006922641E+03  0.00000000000E+00 0.  1.
</event>
<event>
12    1  0.8344842E-002  0.1755004E+03  0.7818608E-02  0.1172579E+00
         21   -1    0    0  501  502  0.00000000000E+00  0.00000000000E+00  0.52363513845E+03  0.52363513845E+03  0.00000000000E+00 0. -1.
         21   -1    0    0  502  503 -0.00000000000E+00 -0.00000000000E+00 -0.78040795496E+02  0.78040795496E+02  0.00000000000E+00 0. -1.
         -6    2    1    2    0  503  0.53658013619E+01  0.21825186300E+02  0.71047271111E+02  0.18805062547E+03  0.17265628406E+03 0.  0.
        -24    2    3    3    0    0 -0.55926566046E+02  0.39986183051E+02  0.20571369404E+02  0.10646335466E+03  0.78642158037E+02 0.  0.
          6    2    1    2  501    0 -0.53658013619E+01 -0.21825186300E+02  0.37454707185E+03  0.41362530848E+03  0.17405532513E+03 0.  0.
         24    2    5    5    0    0 -0.13328606583E+02 -0.65523235484E+02  0.13703876397E+03  0.17195360538E+03  0.79482535387E+02 0.  0.
          5    1    5    5  501    0  0.79628052212E+01  0.43698049185E+02  0.23750830787E+03  0.24167170310E+03  0.47000000000E+01 0. -1.
        -13    1    6    6    0    0  0.25657506270E+02 -0.55871282609E+02  0.99598133515E+02  0.11704570068E+03  0.00000000000E+00 0.  1.
         14    1    6    6    0    0 -0.38986112853E+02 -0.96519528753E+01  0.37440630457E+02  0.54907904702E+02  0.00000000000E+00 0. -1.
         -5    1    3    3    0  503  0.61292367407E+02 -0.18160996751E+02  0.50475901707E+02  0.81587270812E+02  0.47000000000E+01 0.  1.
         13    1    4    4    0    0 -0.29779704521E+02 -0.14589868695E+02 -0.14858871466E+02  0.36338424995E+02  0.00000000000E+00 0. -1.
        -14    1    4    4    0    0 -0.26146861524E+02  0.54576051745E+02  0.35430240870E+02  0.70124929660E+02  0.00000000000E+00 0.  1.
</event>
<event>
12    1  0.8344842E-002  0.1936185E+03  0.7818608E-02  0.1156355E+00
         21   -1    0    0  501  502  0.00000000000E+00  0.00000000000E+00  0.16716540265E+03  0.16716540265E+03  0.00000000000E+00 0.  1.
         21   -1    0    0  502  503 -0.00000000000E+00 -0.00000000000E+00 -0.25345698448E+03  0.25345698448E+03  0.00000000000E+00 0.  1.
         -6    2    1    2    0  503  0.25544502606E+02  0.81199578754E+02 -0.12076353797E+03  0.22395911024E+03  0.16830911370E+03 0.  0.
        -24    2    3    3    0    0  0.36378888784E+02  0.10185927349E+03 -0.39218444145E+02  0.13901266101E+03  0.78023704181E+02 0.  0.
          6    2    1    2  501    0 -0.25544502606E+02 -0.81199578754E+02  0.34471956150E+02  0.19666327689E+03  0.17390294855E+03 0.  0.
         24    2    5    5    0    0  0.78150974993E+01  0.25176013363E+02  0.12389155411E+02  0.82916322618E+02  0.77631939219E+02 0.  0.
          5    1    5    5  501    0 -0.33359600106E+02 -0.10637559212E+03  0.22082800740E+02  0.11374695427E+03  0.47000000000E+01 0. -1.
        -11    1    6    6    0    0  0.69586167511E+01 -0.14909704592E+02  0.33705603257E+02  0.37507190364E+02  0.00000000000E+00 0.  1.
         12    1    6    6    0    0  0.85648074817E+00  0.40085717955E+02 -0.21316447846E+02  0.45409132254E+02  0.00000000000E+00 0. -1.
         -5    1    3    3    0  503 -0.10834386178E+02 -0.20659694735E+02 -0.81545093829E+02  0.84946449237E+02  0.47000000000E+01 0.  1.
         13    1    4    4    0    0  0.25704906867E+02 -0.16762306589E+01  0.44462868513E+01  0.26140417997E+02  0.00000000000E+00 0. -1.
        -14    1    4    4    0    0  0.10673981917E+02  0.10353550415E+03 -0.43664730996E+02  0.11287224301E+03  0.00000000000E+00 0.  1.
</event>
<event>
12    1  0.8344842E-002  0.1923489E+03  0.7818608E-02  0.1157725E+00
         21   -1    0    0  503  502  0.00000000000E+00  0.00000000000E+00  0.35835575533E+03  0.35835575533E+03  0.00000000000E+00 0. -1.
         21   -1    0    0  501  503 -0.00000000000E+00 -0.00000000000E+00 -0.10515892542E+03  0.10515892542E+03  0.00000000000E+00 0.  1.
          6    2    1    2  501    0  0.17181216631E+02  0.69115047272E+02  0.17973145091E+03  0.26325180427E+03  0.17867857745E+03 0.  0.
         24    2    3    3    0    0 -0.23884104928E+02  0.77426212903E+02  0.45446294798E+02  0.12250369855E+03  0.79853124773E+02 0.  0.
         -6    2    1    2    0  502 -0.17181216631E+02 -0.69115047272E+02  0.73465378993E+02  0.20026287648E+03  0.17215102039E+03 0.  0.
        -24    2    5    5    0    0  0.17857926661E+02 -0.81590461491E+02 -0.23425195522E+01  0.11569157517E+03  0.80019648946E+02 0.  0.
          5    1    3    3  501    0  0.41065321559E+02 -0.83111656311E+01  0.13428515612E+03  0.14074810571E+03  0.47000000000E+01 0. -1.
        -13    1    4    4    0    0 -0.53371030594E+02  0.46393623085E+02  0.24449577429E+02  0.74823906648E+02  0.00000000000E+00 0.  1.
         14    1    4    4    0    0  0.29486925666E+02  0.31032589818E+02  0.20996717369E+02  0.47679791907E+02  0.00000000000E+00 0. -1.
         -5    1    5    5    0  502 -0.35039143293E+02  0.12475414219E+02  0.75807898545E+02  0.84571301305E+02  0.47000000000E+01 0.  1.
         13    1    6    6    0    0  0.34393073290E+02 -0.28280372495E+01  0.50359770706E+01  0.34874666307E+02  0.00000000000E+00 0. -1.
        -14    1    6    6    0    0 -0.16535146628E+02 -0.78762424241E+02 -0.73784966228E+01  0.80816908867E+02  0.00000000000E+00 0.  1.
</event>
<event>
12    1  0.8344842E-002  0.2565918E+03  0.7818608E-02  0.1109906E+00
         21   -1    0    0  503  502  0.00000000000E+00  0.00000000000E+00  0.15475492652E+04  0.15475492652E+04  0.00000000000E+00 0. -1.
         21   -1    0    0  501  503 -0.00000000000E+00 -0.00000000000E+00 -0.12968205941E+03  0.12968205941E+03  0.00000000000E+00 0. -1.
          6    2    1    2  501    0 -0.18434807149E+03  0.46076517483E+02  0.20608729644E+02  0.25741806852E+03  0.17242994327E+03 0.  0.
         24    2    3    3    0    0 -0.16822908144E+03  0.93054533075E+02  0.33761458070E+02  0.20582504521E+03  0.65298876058E+02 0.  0.
         -6    2    1    2    0  502  0.18434807149E+03 -0.46076517483E+02  0.13972584762E+04  0.14198132561E+04  0.16562359757E+03 0.  0.
        -24    2    5    5    0    0  0.71137215248E+02  0.27941996890E+02  0.84191738666E+03  0.84821789737E+03  0.69335826719E+02 0.  0.
          5    1    3    3  501    0 -0.16118990042E+02 -0.46978015592E+02 -0.13152728426E+02  0.51593023308E+02  0.47000000000E+01 0. -1.
        -13    1    4    4    0    0 -0.10247117735E+03  0.26130646956E+02  0.36748798442E+02  0.11195368277E+03  0.00000000000E+00 0.  1.
         14    1    4    4    0    0 -0.65757904091E+02  0.66923886120E+02 -0.29873403715E+01  0.93871362439E+02  0.00000000000E+00 0. -1.
         -5    1    5    5    0  502  0.11321085624E+03 -0.74018514373E+02  0.55534108949E+03  0.57159535873E+03  0.47000000000E+01 0.  1.
         11    1    6    6    0    0  0.34353423848E+02 -0.18252382784E+02  0.21206682175E+03  0.21560529700E+03  0.00000000000E+00 0. -1.
        -12    1    6    6    0    0  0.36783791400E+02  0.46194379674E+02  0.62985056491E+03  0.63261260036E+03  0.00000000000E+00 0.  1.
</event>
<event>
12    1  0.8344842E-002  0.2009310E+03  0.7818608E-02  0.1149267E+00
         21   -1    0    0  503  502  0.00000000000E+00  0.00000000000E+00  0.33223271264E+03  0.33223271264E+03  0.00000000000E+00 0.  1.
         21   -1    0    0  501  503 -0.00000000000E+00 -0.00000000000E+00 -0.16303864699E+03  0.16303864699E+03  0.00000000000E+00 0.  1.
          6    2    1    2  501    0 -0.62660841662E+02  0.80092845267E+02 -0.41470181637E+02  0.20516593725E+03  0.17329755018E+03 0.  0.
         24    2    3    3    0    0 -0.10575404739E+03  0.60792578843E+02 -0.55801482089E+02  0.15559779388E+03  0.78849298522E+02 0.  0.
         -6    2    1    2    0  502  0.62660841662E+02 -0.80092845267E+02  0.21066424729E+03  0.29010542238E+03  0.17158230115E+03 0.  0.
        -24    2    5    5    0    0  0.32239958512E+02 -0.53920036882E+02  0.33390342393E+02  0.10828525467E+03  0.81633302706E+02 0.  0.
          5    1    3    3  501    0  0.43093205724E+02  0.19300266423E+02  0.14331300452E+02  0.49568143361E+02  0.47000000000E+01 0. -1.
        -11    1    4    4    0    0 -0.13182363687E+02 -0.15852129075E+02 -0.23270722433E+02  0.31090050356E+02  0.00000000000E+00 0.  1.
         12    1    4    4    0    0 -0.92571683699E+02  0.76644707918E+02 -0.32530759657E+02  0.12450774353E+03  0.00000000000E+00 0. -1.
         -5    1    5    5    0  502  0.30420883150E+02 -0.26172808384E+02  0.17727390489E+03  0.18182016771E+03  0.47000000000E+01 0.  1.
         13    1    6    6    0    0 -0.26175241905E+02 -0.29333334929E+02  0.16928088262E+02  0.42803597968E+02  0.00000000000E+00 0. -1.
        -14    1    6    6    0    0  0.58415200418E+02 -0.24586701954E+02  0.16462254130E+02  0.65481656698E+02  0.00000000000E+00 0.  1.
</event>
<event>
12    1  0.8344842E-002  0.1793106E+03  0.7818608E-02  0.1169249E+00
         21   -1    0    0  501  502  0.00000000000E+00  0.00000000000E+00  0.76578815529E+03  0.76578815529E+03  0.00000000000E+00 0.  1.
         21   -1    0    0  502  503 -0.00000000000E+00 -0.00000000000E+00 -0.48532235376E+03  0.48532235376E+03  0.00000000000E+00 0.  1.
         -6    2    1    2    0  503 -0.39595083185E+02 -0.37884930776E+01 -0.45825279383E+03  0.49094115343E+03  0.17159682334E+03 0.  0.
        -24    2    3    3    0    0  0.22864666363E+02 -0.50676727065E+02 -0.24820471742E+03  0.26679385542E+03  0.80513700114E+02 0.  0.
          6    2    1    2  501    0  0.39595083185E+02  0.37884930776E+01  0.73871859536E+03  0.76016935561E+03  0.17484325203E+03 0.  0.
         24    2    5    5    0    0  0.75912643198E+02  0.45709745384E+01  0.30353431670E+03  0.32344630396E+03  0.81858456672E+02 0.  0.
          5    1    5    5  501    0 -0.36317560014E+02 -0.78248146085E+00  0.43518427866E+03  0.43672305165E+03  0.47000000000E+01 0. -1.
        -11    1    6    6    0    0  0.84978344236E+02  0.18319877778E+02  0.28790129111E+03  0.30073923976E+03  0.00000000000E+00 0.  1.
         12    1    6    6    0    0 -0.90657010373E+01 -0.13748903239E+02  0.15633025591E+02  0.22707064203E+02  0.00000000000E+00 0. -1.
         -5    1    3    3    0  503 -0.62459749548E+02  0.46888233988E+02 -0.21004807642E+03  0.22414729801E+03  0.47000000000E+01 0.  1.
         11    1    4    4    0    0  0.99082236949E+01  0.18230759113E+02 -0.23235351972E+02  0.31151485613E+02  0.00000000000E+00 0. -1.
        -12    1    4    4    0    0  0.12956442668E+02 -0.68907486178E+02 -0.22496936545E+03  0.23564236980E+03  0.00000000000E+00 0.  1.
</event>
<event>
12    1  0.8344842E-002  0.2096050E+03  0.7818608E-02  0.1142003E+00
         21   -1    0    0  501  502  0.00000000000E+00  0.00000000000E+00  0.24127688129E+03  0.24127688129E+03  0.00000000000E+00 0.  1.
         21   -1    0    0  502  503 -0.00000000000E+00 -0.00000000000E+00 -0.18260893764E+03  0.18260893764E+03  0.00000000000E+00 0.  1.
         -6    2    1    2    0  503  0.13585611138E+02 -0.11894707622E+03  0.45418465297E+02  0.21386244360E+03  0.17129311726E+03 0.  0.
        -24    2    3    3    0    0  0.33486419183E+02 -0.84260216866E+02 -0.31330568786E+02  0.12719223762E+03  0.83517281764E+02 0.  0.
          6    2    1    2  501    0 -0.13585611138E+02  0.11894707622E+03  0.13249478356E+02  0.21002337533E+03  0.17205026515E+03 0.  0.
         24    2    5    5    0    0 -0.84966236177E+01  0.15500412432E+03  0.77724768466E+01  0.17290065915E+03  0.75734769890E+02 0.  0.
          5    1    5    5  501    0 -0.50889875204E+01 -0.36057048096E+02  0.54770015095E+01  0.37122716185E+02  0.47000000000E+01 0. -1.
        -13    1    6    6    0    0 -0.94105671758E+01  0.11273793316E+03  0.39731401531E+02  0.11990406422E+03  0.00000000000E+00 0.  1.
         14    1    6    6    0    0  0.91394355810E+00  0.42266191152E+02 -0.31958924684E+02  0.52996594931E+02  0.00000000000E+00 0. -1.
         -5    1    3    3    0  503 -0.19900808045E+02 -0.34686859353E+02  0.76749034083E+02  0.86670205984E+02  0.47000000000E+01 0.  1.
         11    1    4    4    0    0  0.42077289128E+01 -0.19432200194E+01 -0.39196839209E+02  0.39469903606E+02  0.00000000000E+00 0. -1.
        -12    1    4    4    0    0  0.29278690270E+02 -0.82316996847E+02  0.78662704233E+01  0.87722334010E+02  0.00000000000E+00 0.  1.
</event>
<event>
12    1  0.8344842E-002  0.2075135E+03  0.7818608E-02  0.1143884E+00
         21   -1    0    0  501  502  0.00000000000E+00  0.00000000000E+00  0.51276188831E+03  0.51276188831E+03  0.00000000000E+00 0.  1.
         21   -1    0    0  502  503 -0.00000000000E+00 -0.00000000000E+00 -0.83462035203E+02  0.83462035203E+02  0.00000000000E+00 0.  1.
         -6    2    1    2    0  503  0.11277026862E+03  0.15752283061E+02  0.22636978815E+03  0.30597841280E+03  0.17150580226E+03 0.  0.
        -24    2    3    3    0    0 -0.28808971779E+01  0.27687578806E+01  0.50513300151E+02  0.95048665142E+02  0.80415730205E+02 0.  0.
          6    2    1    2  501    0 -0.11277026862E+03 -0.15752283061E+02  0.20293006496E+03  0.29024551071E+03  0.17348365145E+03 0.  0.
         24    2    5    5    0    0 -0.50226588020E+02 -0.70764630083E+02  0.13669988567E+03  0.18372510442E+03  0.86819999071E+02 0.  0.
          5    1    5    5  501    0 -0.62543680597E+02  0.55012347022E+02  0.66230179291E+02  0.10652040629E+03  0.47000000000E+01 0. -1.
        -13    1    6    6    0    0 -0.58549257383E+02 -0.67053053602E+02  0.62022731855E+02  0.10849399432E+03  0.00000000000E+00 0.  1.
         14    1    6    6    0    0  0.83226693629E+01 -0.37115764806E+01  0.74677153811E+02  0.75231110098E+02  0.00000000000E+00 0. -1.
         -5    1    3    3    0  503  0.11565116580E+03  0.12983525180E+02  0.17585648800E+03  0.21092974766E+03  0.47000000000E+01 0.  1.
         11    1    4    4    0    0 -0.30323811061E+02 -0.22914188234E+02  0.41740238286E+02  0.56452112732E+02  0.00000000000E+00 0. -1.
        -12    1    4    4    0    0  0.27442913883E+02  0.25682946114E+02  0.87730618655E+01  0.38596552411E+02  0.00000000000E+00 0.  1.
</event>
<event>
12    1  0.8344842E-002  0.2136209E+03  0.7818608E-02  0.1138952E+00
         21   -1    0    0  503  502  0.00000000000E+00  0.00000000000E+00  0.25233317998E+03  0.25233317998E+03  0.00000000000E+00 0.  1.
         21   -1    0    0  501  503 -0.00000000000E+00 -0.00000000000E+00 -0.46362236831E+03  0.46362236831E+03  0.00000000000E+00 0.  1.
          6    2    1    2  501    0 -0.72910043476E+02 -0.10313806988E+03 -0.38558340583E+03  0.44025211356E+03  0.17086259025E+03 0.  0.
         24    2    3    3    0    0 -0.26165248052E+02  0.14007299771E+02 -0.17506183610E+03  0.19479430690E+03  0.80108369662E+02 0.  0.
         -6    2    1    2    0  502  0.72910043476E+02  0.10313806988E+03  0.17429421750E+03  0.27570343472E+03  0.17228050895E+03 0.  0.
        -24    2    5    5    0    0  0.67206168313E+02  0.12455851275E+03  0.83989439258E+02  0.18259912474E+03  0.79099445574E+02 0.  0.
          5    1    3    3  501    0 -0.46744795424E+02 -0.11714536965E+03 -0.21052156973E+03  0.24545780666E+03  0.47000000000E+01 0. -1.
        -13    1    4    4    0    0 -0.31837345575E+02  0.25478839047E+02 -0.17718979266E+03  0.18182136958E+03  0.00000000000E+00 0.  1.
         14    1    4    4    0    0  0.56720975228E+01 -0.11471539276E+02  0.21279565595E+01  0.12972937323E+02  0.00000000000E+00 0. -1.
         -5    1    5    5    0  502  0.57038751636E+01 -0.21420442869E+02  0.90304778243E+02  0.93104309987E+02  0.47000000000E+01 0.  1.
         11    1    6    6    0    0  0.56285280883E+02  0.10623687965E+03  0.99635902187E+02  0.15614615092E+03  0.00000000000E+00 0. -1.
        -12    1    6    6    0    0  0.10920887430E+02  0.18321633099E+02 -0.15646462929E+02  0.26452973818E+02  0.00000000000E+00 0.  1.
</event>
<event>
12    1  0.8344842E-002  0.2136734E+03  0.7818608E-02  0.1138766E+00
         21   -1    0    0  501  502  0.00000000000E+00  0.00000000000E+00  0.18962989565E+02  0.18962989565E+02  0.00000000000E+00 0. -1.
         21   -1    0    0  502  503 -0.00000000000E+00 -0.00000000000E+00 -0.26867060092E+04  0.26867060092E+04  0.00000000000E+00 0. -1.
         -6    2    1    2    0  503 -0.11977331054E+03  0.41439073526E+02 -0.17744079065E+04  0.17872268293E+04  0.17202754976E+03 0.  0.
        -24    2    3    3    0    0 -0.13177642839E+03  0.52904718206E+02 -0.10432956635E+04  0.10559110714E+04  0.79488445294E+02 0.  0.
          6    2    1    2  501    0  0.11977331054E+03 -0.41439073526E+02 -0.89333511316E+03  0.91844216952E+03  0.17153877584E+03 0.  0.
         24    2    5    5    0    0  0.21352329599E+02 -0.22216554076E+02 -0.64328543523E+03  0.64899249671E+03  0.80159917393E+02 0.  0.
          5    1    5    5  501    0  0.98420980943E+02 -0.19222519450E+02 -0.25004967793E+03  0.26944967281E+03  0.47000000000E+01 0. -1.
        -13    1    6    6    0    0 -0.91035505675E+01 -0.45921413288E+02 -0.31853310469E+03  0.32195494966E+03  0.00000000000E+00 0.  1.
         14    1    6    6    0    0  0.30455880167E+02  0.23704859212E+02 -0.32475233054E+03  0.32703754705E+03  0.00000000000E+00 0. -1.
         -5    1    3    3    0  503  0.12003117848E+02 -0.11465644680E+02 -0.73111224301E+03  0.73131575788E+03  0.47000000000E+01 0.  1.
         11    1    4    4    0    0 -0.90258761914E+02 -0.55610499038E+01 -0.62630921199E+03  0.63280391782E+03  0.00000000000E+00 0. -1.
        -12    1    4    4    0    0 -0.41517666476E+02  0.58465768110E+02 -0.41698645149E+03  0.42310715356E+03  0.00000000000E+00 0.  1.
</event>
<event>
12    1  0.8344842E-002  0.1794030E+03  0.7818608E-02  0.1168612E+00
         21   -1    0    0  501  502  0.00000000000E+00  0.00000000000E+00  0.18473599724E+03  0.18473599724E+03  0.00000000000E+00 0. -1.
         21   -1    0    0  502  503 -0.00000000000E+00 -0.00000000000E+00 -0.17894416080E+03  0.17894416080E+03  0.00000000000E+00 0.  1.
         -6    2    1    2    0  503 -0.17517495494E+02  0.46502585169E+02 -0.29379010612E+02  0.18086213834E+03  0.17140196540E+03 0.  0.
        -24    2    3    3    0    0 -0.60407046032E+02  0.53216665395E+02  0.14005821830E+02  0.11930788500E+03  0.86932063652E+02 0.  0.
          6    2    1    2  501    0  0.17517495494E+02 -0.46502585169E+02  0.35170847050E+02  0.18281801970E+03  0.17238354553E+03 0.  0.
         24    2    5    5    0    0 -0.25764750915E+02 -0.52952232216E+02 -0.30135841412E+02  0.10406521430E+03  0.80334541781E+02 0.  0.
          5    1    5    5  501    0  0.43282246409E+02  0.64496470468E+01  0.65306688462E+02  0.78752805405E+02  0.47000000000E+01 0. -1.
        -13    1    6    6    0    0  0.28952061319E+02 -0.24455496953E+02 -0.10591247927E+02  0.39350574564E+02  0.00000000000E+00 0.  1.
         14    1    6    6    0    0 -0.54716812234E+02 -0.28496735262E+02 -0.19544593485E+02  0.64714639736E+02  0.00000000000E+00 0. -1.
         -5    1    3    3    0  503  0.42889550538E+02 -0.67140802266E+01 -0.43384832442E+02  0.61554253343E+02  0.47000000000E+01 0.  1.
         13    1    4    4    0    0  0.16427507079E+02  0.12440361865E+02  0.24135762071E+02  0.31735793718E+02  0.00000000000E+00 0. -1.
        -14    1    4    4    0    0 -0.76834553111E+02  0.40776303530E+02 -0.10129940242E+02  0.87572091277E+02  0.00000000000E+00 0.  1.
</event>
<event>
12    1  0.8344842E-002  0.1808158E+03  0.7818608E-02  0.1167018E+00
         21   -1    0    0  503  502  0.00000000000E+00  0.00000000000E+00  0.11142853063E+04  0.11142853063E+04  0.00000000000E+00 0.  1.
         21   -1    0    0  501  503 -0.00000000000E+00 -0.00000000000E+00 -0.63239987933E+02  0.63239987933E+02  0.00000000000E+00 0.  1.
          6    2    1    2  501    0 -0.21446654793E+02 -0.51928023859E+02  0.94460519806E+02  0.20400283568E+03  0.17186590267E+03 0.  0.
         24    2    3    3    0    0 -0.33834320312E+02  0.23362103084E+02  0.82859456933E+01  0.88806461191E+02  0.78277592974E+02 0.  0.
         -6    2    1    2    0  502  0.21446654793E+02  0.51928023859E+02  0.95658479854E+03  0.97352245853E+03  0.17185756254E+03 0.  0.
        -24    2    5    5    0    0  0.62485958316E+02 -0.70828891939E+01  0.41786118927E+03  0.43000453842E+03  0.79632074324E+02 0.  0.
          5    1    3    3  501    0  0.12387665518E+02 -0.75290126943E+02  0.86174574112E+02  0.11519637449E+03  0.47000000000E+01 0. -1.
        -11    1    4    4    0    0 -0.46451890989E+02 -0.12848416468E+01 -0.18747768050E+02  0.50108959293E+02  0.00000000000E+00 0.  1.
         12    1    4    4    0    0  0.12617570678E+02  0.24646944731E+02  0.27033713744E+02  0.38697501898E+02  0.00000000000E+00 0. -1.
         -5    1    5    5    0  502 -0.41039303523E+02  0.59010913053E+02  0.53872360928E+03  0.54351792011E+03  0.47000000000E+01 0.  1.
         11    1    6    6    0    0  0.11263531034E+02  0.32305984207E+02  0.10147439395E+03  0.10708686369E+03  0.00000000000E+00 0. -1.
        -12    1    6    6    0    0  0.51222427283E+02 -0.39388873401E+02  0.31638679531E+03  0.32291767473E+03  0.00000000000E+00 0.  1.
</event>
<event>
12    1  0.8344842E-002  0.1813704E+03  0.7818608E-02  0.1166688E+00
         21   -1    0    0  503  502  0.00000000000E+00  0.00000000000E+00  0.16825049695E+02  0.16825049695E+02  0.00000000000E+00 0. -1.
         21   -1    0    0  501  503 -0.00000000000E+00 -0.00000000000E+00 -0.20469118689E+04  0.20469118689E+04  0.00000000000E+00 0. -1.
          6    2    1    2  501    0  0.94914852885E+01 -0.59071111648E+02 -0.12464518011E+04  0.12595782249E+04  0.17121836252E+03 0.  0.
         24    2    3    3    0    0 -0.81750258403E+01 -0.40554586974E+02 -0.30799210414E+03  0.32075786929E+03  0.79466778752E+02 0.  0.
         -6    2    1    2    0  502 -0.94914852885E+01  0.59071111648E+02 -0.78363501812E+03  0.80415869371E+03  0.17031699420E+03 0.  0.
        -24    2    5    5    0    0  0.31916914676E+02  0.91635135267E+02 -0.51125187204E+03  0.52668844397E+03  0.81280704266E+02 0.  0.
          5    1    3    3  501    0  0.17666511129E+02 -0.18516524674E+02 -0.93845969697E+03  0.93882035563E+03  0.47000000000E+01 0. -1.
        -11    1    4    4    0    0 -0.10703626126E+02  0.17609458066E+02 -0.27935320284E+02  0.34713725599E+02  0.00000000000E+00 0.  1.
         12    1    4    4    0    0  0.25286002853E+01 -0.58164045040E+02 -0.28005678386E+03  0.28604414369E+03  0.00000000000E+00 0. -1.
         -5    1    5    5    0  502 -0.41408399965E+02 -0.32564023619E+02 -0.27238314608E+03  0.27747024974E+03  0.47000000000E+01 0.  1.
         13    1    6    6    0    0 -0.19856370856E+02 -0.11894719585E+01 -0.66410174798E+02  0.69325331761E+02  0.00000000000E+00 0. -1.
        -14    1    6    6    0    0  0.51773285532E+02  0.92824607226E+02 -0.44484169725E+03  0.45736311221E+03  0.00000000000E+00 0.  1.
</event>
<event>
12    1  0.8344842E-002  0.2278667E+03  0.7818608E-02  0.1128180E+00
         21   -1    0    0  501  502  0.00000000000E+00  0.00000000000E+00  0.95855031290E+03  0.95855031290E+03  0.00000000000E+00 0.  1.
         21   -1    0    0  502  503 -0.00000000000E+00 -0.00000000000E+00 -0.10497274792E+03  0.10497274792E+03  0.00000000000E+00 0.  1.
         -6    2    1    2    0  503  0.10777033397E+03 -0.10276241152E+03  0.56787535348E+02  0.23483620880E+03  0.17247800638E+03 0.  0.
        -24    2    3    3    0    0  0.51148884180E+02  0.13917466752E+02  0.42526026455E+02  0.10427716773E+03  0.79090837328E+02 0.  0.
          6    2    1    2  501    0 -0.10777033397E+03  0.10276241152E+03  0.79679002964E+03  0.82868685203E+03  0.17225849553E+03 0.  0.
         24    2    5    5    0    0 -0.14077102782E+03  0.97759685189E+02  0.72888886656E+03  0.75287965571E+03  0.78583445308E+02 0.  0.
          5    1    5    5  501    0  0.33000693843E+02  0.50027263287E+01  0.67901163081E+02  0.75807196311E+02  0.47000000000E+01 0. -1.
        -11    1    6    6    0    0 -0.88882774411E+02  0.10337875504E+03  0.53159380250E+03  0.54879803702E+03  0.00000000000E+00 0.  1.
         12    1    6    6    0    0 -0.51888253405E+02 -0.56190698513E+01  0.19729506405E+03  0.20408161869E+03  0.00000000000E+00 0. -1.
         -5    1    3    3    0  503  0.56621449793E+02 -0.11667987827E+03  0.14261508893E+02  0.13055904107E+03  0.47000000000E+01 0.  1.
         13    1    4    4    0    0  0.36047607638E+02  0.45199905120E+02  0.14397398422E+02  0.59579749249E+02  0.00000000000E+00 0. -1.
        -14    1    4    4    0    0  0.15101276542E+02 -0.31282438368E+02  0.28128628033E+02  0.44697418477E+02  0.00000000000E+00 0.  1.
</event>
<event>
12    1  0.8344842E-002  0.1933473E+03  0.7818608E-02  0.1155568E+00
         21   -1    0    0  503  502  0.00000000000E+00  0.00000000000E+00  0.19817686761E+03  0.19817686761E+03  0.00000000000E+00 0. -1.
         21   -1    0    0  501  503 -0.00000000000E+00 -0.00000000000E+00 -0.24063814644E+03  0.24063814644E+03  0.00000000000E+00 0.  1.
          6    2    1    2  501    0  0.81982355829E+02  0.26008344144E+02 -0.12363990278E+03  0.22949946965E+03  0.17316362314E+03 0.  0.
         24    2    3    3    0    0  0.78254981674E+02  0.51889368721E+02 -0.22909325850E+02  0.12532432924E+03  0.79780959791E+02 0.  0.
         -6    2    1    2    0  502 -0.81982355829E+02 -0.26008344144E+02  0.81178623944E+02  0.20931554440E+03  0.17270057183E+03 0.  0.
        -24    2    5    5    0    0  0.26871597998E+02 -0.12362624082E+02  0.19597641875E+02  0.83419967464E+02  0.75497722823E+02 0.  0.
          5    1    3    3  501    0  0.37273741551E+01 -0.25881024578E+02 -0.10073057693E+03  0.10417514041E+03  0.47000000000E+01 0. -1.
        -13    1    4    4    0    0  0.48424688774E+02  0.35259257022E+02 -0.52867218019E+02  0.79894357934E+02  0.00000000000E+00 0.  1.
         14    1    4    4    0    0  0.29830292900E+02  0.16630111699E+02  0.29957892169E+02  0.45429971305E+02  0.00000000000E+00 0. -1.
         -5    1    5    5    0  502 -0.10885395383E+03 -0.13645720061E+02  0.61580982069E+02  0.12589557694E+03  0.47000000000E+01 0.  1.
         13    1    6    6    0    0  0.28077968780E+02 -0.41842641925E+02  0.54053545327E+01  0.50679353505E+02  0.00000000000E+00 0. -1.
        -14    1    6    6    0    0 -0.12063707818E+01  0.29480017842E+02  0.14192287342E+02  0.32740613959E+02  0.00000000000E+00 0.  1.
</event>
<event>
12    1  0.8344842E-002  0.3966409E+03  0.7818608E-02  0.1044965E+00
         21   -1    0    0  501  502  0.00000000000E+00  0.00000000000E+00  0.12935576634E+04  0.12935576634E+04  0.00000000000E+00 0.  1.
         21   -1    0    0  502  503 -0.00000000000E+00 -0.00000000000E+00 -0.13593686133E+03  0.13593686133E+03  0.00000000000E+00 0. -1.
         -6    2    1    2    0  503  0.27866994451E+03 -0.22362680372E+03  0.34629489055E+03  0.52640330291E+03  0.17179755754E+03 0.  0.
        -24    2    3    3    0    0  0.22316825347E+03 -0.16441126101E+03  0.17736955273E+03  0.33893389751E+03  0.81123957840E+02 0.  0.
          6    2    1    2  501    0 -0.27866994451E+03  0.22362680372E+03  0.81132591149E+03  0.90309122180E+03  0.17221537362E+03 0.  0.
         24    2    5    5    0    0 -0.50307970271E+02  0.32505806614E+02  0.20654259920E+03  0.22895371977E+03  0.78564885128E+02 0.  0.
          5    1    5    5  501    0 -0.22836197424E+03  0.19112099710E+03  0.60478331229E+03  0.67413750203E+03  0.47000000000E+01 0. -1.
        -13    1    6    6    0    0 -0.24600783140E+02  0.44600478698E+01  0.18193339091E+03  0.18364326638E+03  0.00000000000E+00 0.  1.
         14    1    6    6    0    0 -0.25707187131E+02  0.28045758745E+02  0.24609208289E+02  0.45310453389E+02  0.00000000000E+00 0. -1.
         -5    1    3    3    0  503  0.55501691041E+02 -0.59215542704E+02  0.16892533782E+03  0.18746940540E+03  0.47000000000E+01 0.  1.
         13    1    4    4    0    0  0.17938530569E+03 -0.13160382064E+03  0.17686944526E+03  0.28422078420E+03  0.00000000000E+00 0. -1.
        -14    1    4    4    0    0  0.43782947781E+02 -0.32807440374E+02  0.50010747622E+00  0.54713113307E+02  0.00000000000E+00 0.  1.
</event>
<event>
12    1  0.8344842E-002  0.1777177E+03  0.7818608E-02  0.1170081E+00
         21   -1    0    0  503  502  0.00000000000E+00  0.00000000000E+00  0.14670192135E+04  0.14670192135E+04  0.00000000000E+00 0.  1.
         21   -1    0    0  501  503 -0.00000000000E+00 -0.00000000000E+00 -0.10891815668E+03  0.10891815668E+03  0.00000000000E+00 0.  1.
          6    2    1    2  501    0  0.21032369803E+02 -0.41529833924E+02 -0.26937088841E+02  0.17954407095E+03  0.17129909215E+03 0.  0.
         24    2    3    3    0    0  0.18879562580E+02  0.13344555973E+02  0.41060326443E+02  0.92013666340E+02  0.79031951313E+02 0.  0.
         -6    2    1    2    0  502 -0.21032369803E+02  0.41529833924E+02  0.13850381457E+04  0.13963932993E+04  0.17151237136E+03 0.  0.
        -24    2    5    5    0    0  0.51965220379E+02  0.37751240479E+02  0.87846038774E+03  0.88454757955E+03  0.81278701835E+02 0.  0.
          5    1    3    3  501    0  0.21528072222E+01 -0.54874389898E+02 -0.67997415283E+02  0.87530404608E+02  0.47000000000E+01 0. -1.
        -13    1    4    4    0    0  0.19243133639E+02  0.26090045938E+01 -0.21248635198E+02  0.28785579637E+02  0.00000000000E+00 0.  1.
         14    1    4    4    0    0 -0.36357105873E+00  0.10735551380E+02  0.62308961641E+02  0.63228086703E+02  0.00000000000E+00 0. -1.
         -5    1    5    5    0  502 -0.72997590181E+02  0.37785934449E+01  0.50657775797E+03  0.51184571973E+03  0.47000000000E+01 0.  1.
         13    1    6    6    0    0  0.59752265054E+01 -0.17927592614E+02  0.42083894478E+03  0.42126300497E+03  0.00000000000E+00 0. -1.
        -14    1    6    6    0    0  0.45989993873E+02  0.55678833093E+02  0.45762144296E+03  0.46328457458E+03  0.00000000000E+00 0.  1.
</event>
<event>
12    1  0.8344842E-002  0.1798171E+03  0.7818608E-02  0.1171083E+00
         21   -1    0    0  501  502  0.00000000000E+00  0.00000000000E+00  0.25775722109E+03  0.25775722109E+03  0.00000000000E+00 0. -1.
         21   -1    0    0  502  503 -0.00000000000E+00 -0.00000000000E+00 -0.30378502987E+03  0.30378502987E+03  0.00000000000E+00 0. -1.
         -6    2    1    2    0  503  0.31170183702E+02 -0.43453797287E+02 -0.24281284208E+03  0.29497414871E+03  0.15871943572E+03 0.  0.
        -24    2    3    3    0    0  0.21868115598E+02 -0.84130671901E+01 -0.24703522344E+03  0.25817333702E+03  0.71260621287E+02 0.  0.
          6    2    1    2  501    0 -0.31170183702E+02  0.43453797287E+02  0.19678503330E+03  0.26656810225E+03  0.17168107338E+03 0.  0.
         24    2    5    5    0    0 -0.74996594351E+02 -0.77374807884E+01  0.99930367895E+02  0.14848246624E+03  0.79853657272E+02 0.  0.
          5    1    5    5  501    0  0.43826410649E+02  0.51191278076E+02  0.96854665404E+02  0.11808563601E+03  0.47000000000E+01 0. -1.
        -11    1    6    6    0    0 -0.55506550077E+02 -0.42480611337E+02  0.66504636173E+02  0.96480288523E+02  0.00000000000E+00 0.  1.
         12    1    6    6    0    0 -0.19490044274E+02  0.34743130548E+02  0.33425731722E+02  0.52002177716E+02  0.00000000000E+00 0. -1.
         -5    1    3    3    0  503  0.93020681037E+01 -0.35040730097E+02  0.42223813575E+01  0.36800811690E+02  0.47000000000E+01 0.  1.
         13    1    4    4    0    0  0.30338418863E+02  0.24922097397E+02 -0.10699716927E+03  0.11397335140E+03  0.00000000000E+00 0. -1.
        -14    1    4    4    0    0 -0.84703032652E+01 -0.33335164587E+02 -0.14003805417E+03  0.14419998562E+03  0.00000000000E+00 0.  1.
</event>
<event>
12    1  0.8344842E-002  0.2194379E+03  0.7818608E-02  0.1134346E+00
         21   -1    0    0  501  502  0.00000000000E+00  0.00000000000E+00  0.51790679109E+02  0.51790679109E+02  0.00000000000E+00 0. -1.
         21   -1    0    0  502  503 -0.00000000000E+00 -0.00000000000E+00 -0.11004728533E+04  0.11004728533E+04  0.00000000000E+00 0. -1.
         -6    2    1    2    0  503  0.13001529540E+03  0.39537008573E+02 -0.75212868726E+03  0.78348616393E+03  0.17229583508E+03 0.  0.
        -24    2    3    3    0    0  0.69896373605E+02  0.93404967312E+02 -0.47382599072E+03  0.49367497947E+03  0.74792545830E+02 0.  0.
          6    2    1    2  501    0 -0.13001529540E+03 -0.39537008573E+02 -0.29655348694E+03  0.36877736848E+03  0.17200472321E+03 0.  0.
         24    2    5    5    0    0 -0.15817630052E+03 -0.10353282484E+02 -0.22639358297E+03  0.28760327038E+03  0.79590541035E+02 0.  0.
          5    1    5    5  501    0  0.28161005117E+02 -0.29183726089E+02 -0.70159903970E+02  0.81174098102E+02  0.47000000000E+01 0. -1.
        -13    1    6    6    0    0 -0.12448788851E+03 -0.28829871857E+02 -0.21001662257E+03  0.24583607883E+03  0.00000000000E+00 0.  1.
         14    1    6    6    0    0 -0.33688412010E+02  0.18476589373E+02 -0.16376960394E+02  0.41767191554E+02  0.00000000000E+00 0. -1.
         -5    1    3    3    0  503  0.60118921796E+02 -0.53867958738E+02 -0.27830269654E+03  0.28981118446E+03  0.47000000000E+01 0.  1.
         11    1    4    4    0    0 -0.14912955940E+02  0.18831727790E+02 -0.11559360356E+03  0.11806316703E+03  0.00000000000E+00 0. -1.
        -12    1    4    4    0    0  0.84809329544E+02  0.74573239522E+02 -0.35823238717E+03  0.37561181244E+03  0.00000000000E+00 0.  1.
</event>
<event>
12    1  0.8344842E-002  0.2970619E+03  0.7818608E-02  0.1086768E+00
         21   -1    0    0  501  502  0.00000000000E+00  0.00000000000E+00  0.22058699312E+03  0.22058699312E+03  0.00000000000E+00 0.  1.
         21   -1    0    0  502  503 -0.00000000000E+00 -0.00000000000E+00 -0.41547722419E+03  0.41547722419E+03  0.00000000000E+00 0. -1.
         -6    2    1    2    0  503  0.58798193811E+02 -0.23432104944E+03 -0.15969265463E+03  0.33692439414E+03  0.17219965627E+03 0.  0.
        -24    2    3    3    0    0  0.10457802861E+03 -0.17522782780E+03 -0.12621096047E+03  0.25488223448E+03  0.85990646048E+02 0.  0.
          6    2    1    2  501    0 -0.58798193811E+02  0.23432104944E+03 -0.35197576445E+02  0.29913982317E+03  0.17286463668E+03 0.  0.
         24    2    5    5    0    0 -0.68642681021E+02  0.22499680819E+03 -0.73069217426E+02  0.25864035905E+03  0.78869153936E+02 0.  0.
          5    1    5    5  501    0  0.98444872106E+01  0.93242412480E+01  0.37871640982E+02  0.40499464119E+02  0.47000000000E+01 0. -1.
        -11    1    6    6    0    0 -0.76375873948E+02  0.12509599458E+03 -0.30158466556E+02  0.14963894910E+03  0.00000000000E+00 0.  1.
         12    1    6    6    0    0  0.77331929261E+01  0.99900813608E+02 -0.42910750870E+02  0.10900140996E+03  0.00000000000E+00 0. -1.
         -5    1    3    3    0  503 -0.45779834798E+02 -0.59093221637E+02 -0.33481694151E+02  0.82042159655E+02  0.47000000000E+01 0.  1.
         13    1    4    4    0    0  0.21375634859E+02 -0.11891152378E+03 -0.73615881300E+02  0.14147850096E+03  0.00000000000E+00 0. -1.
        -14    1    4    4    0    0  0.83202393751E+02 -0.56316304020E+02 -0.52595079174E+02  0.11340373353E+03  0.00000000000E+00 0.  1.
</event>
<event>
12    1  0.8344842E-002  0.1795902E+03  0.7818608E-02  0.1171671E+00
         21   -1    0    0  501  502  0.00000000000E+00  0.00000000000E+00  0.24189746953E+03  0.24189746953E+03  0.00000000000E+00 0. -1.
         21   -1    0    0  502  503 -0.00000000000E+00 -0.00000000000E+00 -0.14512130240E+03  0.14512130240E+03  0.00000000000E+00 0. -1.
         -6    2    1    2    0  503 -0.43183175979E+02  0.14749369548E+02 -0.28145962230E+02  0.16825365274E+03  0.15948280748E+03 0.  0.
        -24    2    3    3    0    0 -0.58553849458E+02  0.36526517329E+02 -0.64072292971E+02  0.12327262331E+03  0.79549614554E+02 0.  0.
          6    2    1    2  501    0  0.43183175979E+02 -0.14749369548E+02  0.12492212936E+03  0.21876511918E+03  0.17369602292E+03 0.  0.
         24    2    5    5    0    0  0.51159745973E+02 -0.13832350437E+02  0.29396326461E+01  0.96428345902E+02  0.80505471408E+02 0.  0.
          5    1    5    5  501    0 -0.79765699938E+01 -0.91701911144E+00  0.12198249671E+03  0.12233677328E+03  0.47000000000E+01 0. -1.
        -13    1    6    6    0    0 -0.18751263169E+02  0.96807454033E+01  0.78267825345E+01  0.22507448253E+02  0.00000000000E+00 0.  1.
         14    1    6    6    0    0  0.69911009142E+02 -0.23513095840E+02 -0.48871498884E+01  0.73920897650E+02  0.00000000000E+00 0. -1.
         -5    1    3    3    0  503  0.15370673479E+02 -0.21777147780E+02  0.35926330741E+02  0.44981029436E+02  0.47000000000E+01 0.  1.
         13    1    4    4    0    0 -0.32293445066E+02 -0.12669539531E+02  0.43964448075E+01  0.34967306918E+02  0.00000000000E+00 0. -1.
        -14    1    4    4    0    0 -0.26260404392E+02  0.49196056860E+02 -0.68468737778E+02  0.88305316388E+02  0.00000000000E+00 0.  1.
</event>
<event>
12    1  0.8344842E-002  0.2144950E+03  0.7818608E-02  0.1138447E+00
         21   -1    0    0  501  502  0.00000000000E+00  0.00000000000E+00  0.12253562620E+03  0.12253562620E+03  0.00000000000E+00 0. -1.
         21   -1    0    0  502  503 -0.00000000000E+00 -0.00000000000E+00 -0.48861026869E+03  0.48861026869E+03  0.00000000000E+00 0. -1.
         -6    2    1    2    0  503  0.39690824561E+02  0.11788977803E+03 -0.33169772238E+03  0.39391360391E+03  0.17225326411E+03 0.  0.
        -24    2    3    3    0    0  0.63518046121E+02  0.11412527317E+03 -0.20091827874E+03  0.26084497176E+03  0.10301856338E+03 0.  0.
          6    2    1    2  501    0 -0.39690824561E+02 -0.11788977803E+03 -0.34376920106E+02  0.21723229098E+03  0.17474190765E+03 0.  0.
         24    2    5    5    0    0  0.18631898176E+02  0.36843114208E+00 -0.22720727256E+02  0.84776634795E+02  0.79520833679E+02 0.  0.
          5    1    5    5  501    0 -0.58322722736E+02 -0.11825820917E+03 -0.11656192850E+02  0.13245565619E+03  0.47000000000E+01 0. -1.
        -11    1    6    6    0    0 -0.80636512337E+01 -0.65475573151E+01 -0.46939289562E+02  0.48074836272E+02  0.00000000000E+00 0.  1.
         12    1    6    6    0    0  0.26695549410E+02  0.69159884571E+01  0.24218562306E+02  0.36701798523E+02  0.00000000000E+00 0. -1.
         -5    1    3    3    0  503 -0.23827221560E+02  0.37645048588E+01 -0.13077944363E+03  0.13306863215E+03  0.47000000000E+01 0.  1.
         11    1    4    4    0    0  0.86684086009E+02  0.67285774141E+02 -0.10642409407E+03  0.15286462628E+03  0.00000000000E+00 0. -1.
        -12    1    4    4    0    0 -0.23166039888E+02  0.46839499032E+02 -0.94494184671E+02  0.10798034548E+03  0.00000000000E+00 0.  1.
</event>
<event>
12    1  0.8344842E-002  0.2257568E+03  0.7818608E-02  0.1131058E+00
         21   -1    0    0  503  502  0.00000000000E+00  0.00000000000E+00  0.18434535366E+03  0.18434535366E+03  0.00000000000E+00 0. -1.
         21   -1    0    0  501  503 -0.00000000000E+00 -0.00000000000E+00 -0.32387739881E+03  0.32387739881E+03  0.00000000000E+00 0. -1.
          6    2    1    2  501    0 -0.85228887670E+02  0.12438694526E+03 -0.17503184974E+03  0.27969189672E+03  0.15765574274E+03 0.  0.
         24    2    3    3    0    0 -0.28491940544E+02  0.12838283340E+03 -0.93728310489E+02  0.18035709020E+03  0.80310280845E+02 0.  0.
         -6    2    1    2    0  502  0.85228887670E+02 -0.12438694526E+03  0.35499804595E+02  0.22853085575E+03  0.16801797659E+03 0.  0.
        -24    2    5    5    0    0  0.10709752622E+03 -0.12461085529E+03  0.62631110216E+02  0.19336716379E+03  0.80439161386E+02 0.  0.
          5    1    3    3  501    0 -0.56736947126E+02 -0.39958881360E+01 -0.81303539253E+02  0.99334806519E+02  0.47000000000E+01 0. -1.
        -13    1    4    4    0    0  0.23909528064E+02  0.24197770629E+02 -0.62825526121E+01  0.34592890931E+02  0.00000000000E+00 0.  1.
         14    1    4    4    0    0 -0.52401468608E+02  0.10418506277E+03 -0.87445757877E+02  0.14576419927E+03  0.00000000000E+00 0. -1.
         -5    1    5    5    0  502 -0.21868638552E+02  0.22391002836E+00 -0.27131305622E+02  0.35163691964E+02  0.47000000000E+01 0.  1.
         13    1    6    6    0    0  0.10632059361E+03 -0.73389053147E+02  0.29993241568E+02  0.13262585075E+03  0.00000000000E+00 0. -1.
        -14    1    6    6    0    0  0.77693260947E+00 -0.51221802146E+02  0.32637868648E+02  0.60741313035E+02  0.00000000000E+00 0.  1.
</event>
<event>
12    1  0.8344842E-002  0.2143302E+03  0.7818608E-02  0.1138317E+00
         21   -1    0    0  503  502  0.00000000000E+00  0.00000000000E+00  0.10428602722E+04  0.10428602722E+04  0.00000000000E+00 0.  1.
         21   -1    0    0  501  503 -0.00000000000E+00 -0.00000000000E+00 -0.57635237545E+02  0.57635237545E+02  0.00000000000E+00 0.  1.
          6    2    1    2  501    0  0.11168514165E+03 -0.64632474572E+02  0.22467019004E+03  0.31050622917E+03  0.17113297879E+03 0.  0.
         24    2    3    3    0    0  0.76406617277E+02 -0.87983928395E+01  0.42933285552E+02  0.11708334683E+03  0.77135337008E+02 0.  0.
         -6    2    1    2    0  502 -0.11168514165E+03  0.64632474572E+02  0.76055484466E+03  0.78998928061E+03  0.17025998975E+03 0.  0.
        -24    2    5    5    0    0 -0.16681539300E+02  0.73288158891E+02  0.29649645299E+03  0.31620358410E+03  0.80156920975E+02 0.  0.
          5    1    3    3  501    0  0.35278524373E+02 -0.55834081733E+02  0.18173690448E+03  0.19342288235E+03  0.47000000000E+01 0. -1.
        -11    1    4    4    0    0  0.32218468163E+02 -0.40859656755E+02  0.32934879673E+02  0.61581227171E+02  0.00000000000E+00 0.  1.
         12    1    4    4    0    0  0.44188149114E+02  0.32061263915E+02  0.99984058789E+01  0.55502119654E+02  0.00000000000E+00 0. -1.
         -5    1    5    5    0  502 -0.95003602350E+02 -0.86556843189E+01  0.46405839167E+03  0.47378569650E+03  0.47000000000E+01 0.  1.
         11    1    6    6    0    0  0.89214075734E+01 -0.73760917263E+01  0.11902224279E+03  0.11958383052E+03  0.00000000000E+00 0. -1.
        -12    1    6    6    0    0 -0.25602946873E+02  0.80664250618E+02  0.17747421020E+03  0.19661975359E+03  0.00000000000E+00 0.  1.
</event>
<event>
12    1  0.8344842E-002  0.2646805E+03  0.7818608E-02  0.1104527E+00
         21   -1    0    0  503  502  0.00000000000E+00  0.00000000000E+00  0.50149281160E+03  0.50149281160E+03  0.00000000000E+00 0.  1.
         21   -1    0    0  501  503 -0.00000000000E+00 -0.00000000000E+00 -0.13940088759E+03  0.13940088759E+03  0.00000000000E+00 0. -1.
          6    2    1    2  501    0  0.41236328745E+02  0.19552868420E+03  0.19607879286E+03  0.32939744295E+03  0.17356232674E+03 0.  0.
         24    2    3    3    0    0 -0.29727863901E+02  0.40512653653E+02  0.66917733161E+02  0.11545690050E+03  0.79544276116E+02 0.  0.
         -6    2    1    2    0  502 -0.41236328745E+02 -0.19552868420E+03  0.16601313115E+03  0.31149625623E+03  0.17186522854E+03 0.  0.
        -24    2    5    5    0    0  0.34487783715E+01 -0.19193517623E+03  0.92522969010E+02  0.22528392516E+03  0.73084479848E+02 0.  0.
          5    1    3    3  501    0  0.70964192646E+02  0.15501603055E+03  0.12916105970E+03  0.21394054246E+03  0.47000000000E+01 0. -1.
        -13    1    4    4    0    0 -0.26658851378E+02  0.42095484979E+02  0.13983268379E+01  0.49846559865E+02  0.00000000000E+00 0.  1.
         14    1    4    4    0    0 -0.30690125229E+01 -0.15828313262E+01  0.65519406323E+02  0.65610340632E+02  0.00000000000E+00 0. -1.
         -5    1    5    5    0  502 -0.44685107116E+02 -0.35935079690E+01  0.73490162140E+02  0.86212331072E+02  0.47000000000E+01 0. -1.
         11    1    6    6    0    0 -0.71995226392E+01 -0.45889134388E+02 -0.87158284186E+01  0.47261098655E+02  0.00000000000E+00 0. -1.
        -12    1    6    6    0    0  0.10648301011E+02 -0.14604604184E+03  0.10123879743E+03  0.17802282651E+03  0.00000000000E+00 0.  1.
</event>
<event>
12    1  0.8344842E-002  0.2249582E+03  0.7818608E-02  0.1130318E+00
         21   -1    0    0  501  502  0.00000000000E+00  0.00000000000E+00  0.67023095530E+03  0.67023095530E+03  0.00000000000E+00 0.  1.
         21   -1    0    0  502  503 -0.00000000000E+00 -0.00000000000E+00 -0.12187097504E+03  0.12187097504E+03  0.00000000000E+00 0. -1.
         -6    2    1    2    0  503  0.14034639747E+03 -0.36566289743E+02  0.51901383337E+03  0.56566912986E+03  0.17196511397E+03 0.  0.
        -24    2    3    3    0    0  0.96756660535E+02 -0.51730186964E+02  0.18787876732E+03  0.23130027528E+03  0.78508104896E+02 0.  0.
          6    2    1    2  501    0 -0.14034639747E+03  0.36566289743E+02  0.29346146885E+02  0.22643280048E+03  0.17139548409E+03 0.  0.
         24    2    5    5    0    0 -0.14053528398E+03 -0.54237327029E+00  0.66548709165E+02  0.17367667108E+03  0.77358872622E+02 0.  0.
          5    1    5    5  501    0  0.18888651656E+00  0.37108663013E+02 -0.37202562280E+02  0.52756129397E+02  0.47000000000E+01 0. -1.
        -13    1    6    6    0    0 -0.57983257788E+02 -0.17864128113E+02  0.65551976774E+02  0.89321032887E+02  0.00000000000E+00 0.  1.
         14    1    6    6    0    0 -0.82552026196E+02  0.17321754842E+02  0.99673239133E+00  0.84355638195E+02  0.00000000000E+00 0. -1.
         -5    1    3    3    0  503  0.43589736933E+02  0.15163897221E+02  0.33113506605E+03  0.33436885458E+03  0.47000000000E+01 0.  1.
         11    1    4    4    0    0 -0.43542291152E+00 -0.36537105680E+02  0.51137047018E+02  0.62850196995E+02  0.00000000000E+00 0. -1.
        -12    1    4    4    0    0  0.97192083446E+02 -0.15193081284E+02  0.13674172030E+03  0.16845007828E+03  0.00000000000E+00 0.  1.
</event>
<event>
12    1  0.8344842E-002  0.1868068E+03  0.7818608E-02  0.1161566E+00
         21   -1    0    0  501  502  0.00000000000E+00  0.00000000000E+00  0.38255837176E+02  0.38255837176E+02  0.00000000000E+00 0. -1.
         21   -1    0    0  502  503 -0.00000000000E+00 -0.00000000000E+00 -0.13995757621E+04  0.13995757621E+04  0.00000000000E+00 0. -1.
         -6    2    1    2    0  503  0.58396575112E+02 -0.40921914098E+02 -0.25366658311E+03  0.31453613956E+03  0.17175996234E+03 0.  0.
        -24    2    3    3    0    0  0.35789687075E+02 -0.75872471831E+02 -0.24624336127E+03  0.27199431197E+03  0.79420268768E+02 0.  0.
          6    2    1    2  501    0 -0.58396575112E+02  0.40921914098E+02 -0.11076533418E+04  0.11232954597E+04  0.17266152191E+03 0.  0.
         24    2    5    5    0    0 -0.49973479788E+02  0.19064611052E+02 -0.28343642426E+03  0.29873235879E+03  0.77743215216E+02 0.  0.
          5    1    5    5  501    0 -0.84230953241E+01  0.21857303046E+02 -0.82421691758E+03  0.82456310096E+03  0.47000000000E+01 0. -1.
        -11    1    6    6    0    0 -0.42778055377E+02 -0.24959405031E+02 -0.15949701402E+03  0.16700967458E+03  0.00000000000E+00 0.  1.
         12    1    6    6    0    0 -0.71954244112E+01  0.44024016083E+02 -0.12393941024E+03  0.13172268421E+03  0.00000000000E+00 0. -1.
         -5    1    3    3    0  503  0.22606888037E+02  0.34950557733E+02 -0.74232218439E+01  0.42541827595E+02  0.47000000000E+01 0.  1.
         13    1    4    4    0    0 -0.57846725359E+00 -0.78700978070E+02 -0.15828812628E+03  0.17677474224E+03  0.00000000000E+00 0. -1.
        -14    1    4    4    0    0  0.36368154329E+02  0.28285062390E+01 -0.87955234987E+02  0.95219569724E+02  0.00000000000E+00 0.  1.
</event>
<event>
12    1  0.8344842E-002  0.2395663E+03  0.7818608E-02  0.1120135E+00
         21   -1    0    0  503  502  0.00000000000E+00  0.00000000000E+00  0.21724423623E+03  0.21724423623E+03  0.00000000000E+00 0. -1.
         21   -1    0    0  501  503 -0.00000000000E+00 -0.00000000000E+00 -0.82890360412E+03  0.82890360412E+03  0.00000000000E+00 0. -1.
          6    2    1    2  501    0 -0.13834368364E+03 -0.93976960380E+02 -0.73764495354E+03  0.77547389720E+03  0.17108197999E+03 0.  0.
         24    2    3    3    0    0 -0.80983634854E+02 -0.74960860740E+02 -0.26101000454E+03  0.29500043087E+03  0.81985071731E+02 0.  0.
         -6    2    1    2    0  502  0.13834368364E+03  0.93976960380E+02  0.12598558565E+03  0.27067394314E+03  0.17152659216E+03 0.  0.
        -24    2    5    5    0    0  0.14539380126E+03  0.11544715821E+03  0.13581064750E+03  0.24558818237E+03  0.86032665677E+02 0.  0.
          5    1    3    3  501    0 -0.57360048786E+02 -0.19016099641E+02 -0.47663494900E+03  0.48047346633E+03  0.47000000000E+01 0. -1.
        -11    1    4    4    0    0  0.91955923432E+01 -0.30185007837E+02 -0.32529203319E+02  0.45319341182E+02  0.00000000000E+00 0.  1.
         12    1    4    4    0    0 -0.90179227198E+02 -0.44775852903E+02 -0.22848080122E+03  0.24968108969E+03  0.00000000000E+00 0. -1.
         -5    1    5    5    0  502 -0.70501176157E+01 -0.21470197826E+02 -0.98250618481E+01  0.25085760770E+02  0.47000000000E+01 0.  1.
         11    1    6    6    0    0  0.10869166734E+03  0.82161159129E+02  0.47437663722E+02  0.14427288920E+03  0.00000000000E+00 0. -1.
        -12    1    6    6    0    0  0.36702133920E+02  0.33285999077E+02  0.88372983779E+02  0.10131529317E+03  0.00000000000E+00 0.  1.
</event>
<event>
12    1  0.8344842E-002  0.3254017E+03  0.7818608E-02  0.1074132E+00
         21   -1    0    0  503  502  0.00000000000E+00  0.00000000000E+00  0.22548694905E+03  0.22548694905E+03  0.00000000000E+00 0.  1.
         21   -1    0    0  501  503 -0.00000000000E+00 -0.00000000000E+00 -0.48685515850E+03  0.48685515850E+03  0.00000000000E+00 0.  1.
          6    2    1    2  501    0 -0.72465981951E+02  0.25688739378E+03 -0.21617739943E+03  0.38381745396E+03  0.17129132587E+03 0.  0.
         24    2    3    3    0    0  0.61003395871E+01  0.11738785395E+03 -0.44705636822E+02  0.14917422720E+03  0.80232373135E+02 0.  0.
         -6    2    1    2    0  502  0.72465981951E+02 -0.25688739378E+03 -0.45190810027E+02  0.32852465359E+03  0.18612841557E+03 0.  0.
        -24    2    5    5    0    0 -0.25146859747E+02 -0.11979445545E+03  0.21266881572E+02  0.14752339565E+03  0.79547444331E+02 0.  0.
          5    1    3    3  501    0 -0.78566321538E+02  0.13949953983E+03 -0.17147176261E+03  0.23464322676E+03  0.47000000000E+01 0. -1.
        -11    1    4    4    0    0 -0.29882321841E+02  0.36269189772E+02  0.53366977315E+01  0.47295746405E+02  0.00000000000E+00 0.  1.
         12    1    4    4    0    0  0.35982661428E+02  0.81118664177E+02 -0.50042334553E+02  0.10187848079E+03  0.00000000000E+00 0. -1.
         -5    1    5    5    0  502  0.97612841698E+02 -0.13709293833E+03 -0.66457691599E+02  0.18100125794E+03  0.47000000000E+01 0.  1.
         13    1    6    6    0    0  0.10232805922E+02 -0.47837901074E+02  0.42250116591E+02  0.64639364540E+02  0.00000000000E+00 0. -1.
        -14    1    6    6    0    0 -0.35379665669E+02 -0.71956554376E+02 -0.20983235019E+02  0.82884031106E+02  0.00000000000E+00 0.  1.
</event>
<event>
12    1  0.8344842E-002  0.1908624E+03  0.7818608E-02  0.1157979E+00
         21   -1    0    0  503  502  0.00000000000E+00  0.00000000000E+00  0.89114053957E+03  0.89114053957E+03  0.00000000000E+00 0. -1.
         21   -1    0    0  501  503 -0.00000000000E+00 -0.00000000000E+00 -0.40758559318E+02  0.40758559318E+02  0.00000000000E+00 0.  1.
          6    2    1    2  501    0  0.62439741478E+02  0.54921335089E+02  0.45572715338E+03  0.49408066126E+03  0.17179460742E+03 0.  0.
         24    2    3    3    0    0  0.99021847197E+01  0.97689942892E+01  0.87285336854E+02  0.11915348044E+03  0.79908293436E+02 0.  0.
         -6    2    1    2    0  502 -0.62439741478E+02 -0.54921335089E+02  0.39465482686E+03  0.43781843762E+03  0.17034517191E+03 0.  0.
        -24    2    5    5    0    0 -0.93977908132E+02 -0.80280869642E+02  0.33183920494E+03  0.36294752000E+03  0.79603888655E+02 0.  0.
          5    1    3    3  501    0  0.52537556758E+02  0.45152340800E+02  0.36844181653E+03  0.37492718082E+03  0.47000000000E+01 0. -1.
        -13    1    4    4    0    0 -0.17114014956E+02 -0.18887610817E+02  0.72896000793E+02  0.77223430912E+02  0.00000000000E+00 0.  1.
         14    1    4    4    0    0  0.27016199676E+02  0.28656605107E+02  0.14389336061E+02  0.41930049528E+02  0.00000000000E+00 0. -1.
         -5    1    5    5    0  502  0.31538166654E+02  0.25359534554E+02  0.62815621922E+02  0.74870917626E+02  0.47000000000E+01 0.  1.
         13    1    6    6    0    0 -0.11027632305E+02 -0.30449798258E+02  0.18003224488E+03  0.18292186333E+03  0.00000000000E+00 0. -1.
        -14    1    6    6    0    0 -0.82950275826E+02 -0.49831071384E+02  0.15180696006E+03  0.18002565667E+03  0.00000000000E+00 0.  1.
</event>
<event>
12    1  0.8344842E-002  0.1764751E+03  0.7818608E-02  0.1171965E+00
         21   -1    0    0  503  502  0.00000000000E+00  0.00000000000E+00  0.15747792153E+03  0.15747792153E+03  0.00000000000E+00 0. -1.
         21   -1    0    0  501  503 -0.00000000000E+00 -0.00000000000E+00 -0.25699968492E+03  0.25699968492E+03  0.00000000000E+00 0. -1.
          6    2    1    2  501    0 -0.12569285855E+02  0.30794261356E+02 -0.15155815179E+03  0.23049054099E+03  0.17043985047E+03 0.  0.
         24    2    3    3    0    0 -0.85625167985E+01  0.46076115362E+02 -0.17717935394E+03  0.20002539271E+03  0.80133071593E+02 0.  0.
         -6    2    1    2    0  502  0.12569285855E+02 -0.30794261356E+02  0.52036388400E+02  0.18398706546E+03  0.17331238000E+03 0.  0.
        -24    2    5    5    0    0 -0.32346158933E+02 -0.70183766175E+02  0.53935351865E+02  0.12403186275E+03  0.80640224230E+02 0.  0.
          5    1    3    3  501    0 -0.40067690564E+01 -0.15281854006E+02  0.25621202149E+02  0.30465148280E+02  0.47000000000E+01 0. -1.
        -11    1    4    4    0    0  0.23369622067E+02  0.33829244050E+02 -0.35640496039E+02  0.54413251570E+02  0.00000000000E+00 0.  1.
         12    1    4    4    0    0 -0.31932138866E+02  0.12246871312E+02 -0.14153885790E+03  0.14561214114E+03  0.00000000000E+00 0. -1.
         -5    1    5    5    0  502  0.44915444788E+02  0.39389504819E+02 -0.18989634651E+01  0.59955202715E+02  0.47000000000E+01 0.  1.
         11    1    6    6    0    0 -0.54465781112E+02 -0.51104583755E+02  0.16395483281E+02  0.76465754851E+02  0.00000000000E+00 0. -1.
        -12    1    6    6    0    0  0.22119622180E+02 -0.19079182420E+02  0.37539868584E+02  0.47566107897E+02  0.00000000000E+00 0.  1.
</event>
<event>
12    1  0.8344842E-002  0.2924835E+03  0.7818608E-02  0.1089120E+00
         21   -1    0    0  503  502  0.00000000000E+00  0.00000000000E+00  0.14751043423E+04  0.14751043423E+04  0.00000000000E+00 0.  1.
         21   -1    0    0  501  503 -0.00000000000E+00 -0.00000000000E+00 -0.76283666861E+02  0.76283666861E+02  0.00000000000E+00 0.  1.
          6    2    1    2  501    0  0.23251641839E+03 -0.32414477606E+02  0.31904824043E+03  0.43282601146E+03  0.17444768068E+03 0.  0.
         24    2    3    3    0    0  0.12866285874E+03 -0.56473475052E+02  0.10250000786E+03  0.19141427968E+03  0.79936163600E+02 0.  0.
         -6    2    1    2    0  502 -0.23251641839E+03  0.32414477606E+02  0.10797724350E+04  0.11185619977E+04  0.17366015118E+03 0.  0.
        -24    2    5    5    0    0 -0.21366152829E+03  0.80116615716E+02  0.89012512872E+03  0.92204433527E+03  0.75980857138E+02 0.  0.
          5    1    3    3  501    0  0.10385355965E+03  0.24058997446E+02  0.21654823257E+03  0.24141173178E+03  0.47000000000E+01 0. -1.
        -11    1    4    4    0    0  0.66642070632E+02 -0.14458060304E+02  0.48847842452E+01  0.68367113461E+02  0.00000000000E+00 0.  1.
         12    1    4    4    0    0  0.62020788111E+02 -0.42015414747E+02  0.97615223610E+02  0.12304716622E+03  0.00000000000E+00 0. -1.
         -5    1    5    5    0  502 -0.18854890107E+02 -0.47702138110E+02  0.18964730630E+03  0.19651766244E+03  0.47000000000E+01 0.  1.
         13    1    6    6    0    0 -0.94814161747E+02  0.75869458560E+02  0.43343466102E+03  0.45012387782E+03  0.00000000000E+00 0. -1.
        -14    1    6    6    0    0 -0.11884736654E+03  0.42471571562E+01  0.45669046770E+03  0.47192045745E+03  0.00000000000E+00 0.  1.
</event>
<event>
12    1  0.8344842E-002  0.1954642E+03  0.7818608E-02  0.1153705E+00
         21   -1    0    0  503  502  0.00000000000E+00  0.00000000000E+00  0.11345907179E+03  0.11345907179E+03  0.00000000000E+00 0. -1.
         21   -1    0    0  501  503 -0.00000000000E+00 -0.00000000000E+00 -0.53104620606E+03  0.53104620606E+03  0.00000000000E+00 0. -1.
          6    2    1    2  501    0  0.15046455804E+02  0.91011221949E+02 -0.40391746619E+03  0.44856371871E+03  0.17190303051E+03 0.  0.
         24    2    3    3    0    0  0.11787953099E+02  0.65255080024E+02 -0.40875661497E+03  0.42174014610E+03  0.79909944583E+02 0.  0.
         -6    2    1    2    0  502 -0.15046455804E+02 -0.91011221949E+02 -0.13669668083E+02  0.19594155915E+03  0.17232758463E+03 0.  0.
        -24    2    5    5    0    0  0.49780313131E+02 -0.39176365345E+02 -0.38251925456E+02  0.10924819316E+03  0.80368468506E+02 0.  0.
          5    1    3    3  501    0  0.32585027050E+01  0.25756141926E+02  0.48391487791E+01  0.26823572612E+02  0.47000000000E+01 0. -1.
        -11    1    4    4    0    0  0.29572238472E+02  0.33233853690E+02 -0.85180356319E+02  0.96097343470E+02  0.00000000000E+00 0.  1.
         12    1    4    4    0    0 -0.17784285373E+02  0.32021226334E+02 -0.32357625865E+03  0.32564280263E+03  0.00000000000E+00 0. -1.
         -5    1    5    5    0  502 -0.64826768935E+02 -0.51834856605E+02  0.24582257373E+02  0.86693365994E+02  0.47000000000E+01 0.  1.
         11    1    6    6    0    0  0.30759977400E+02 -0.60259696050E+02 -0.86130605731E+01  0.68202580524E+02  0.00000000000E+00 0. -1.
        -12    1    6    6    0    0  0.19020335731E+02  0.21083330705E+02 -0.29638864883E+02  0.41045612634E+02  0.00000000000E+00 0.  1.
</event>
<event>
12    1  0.8344842E-002  0.2102983E+03  0.7818608E-02  0.1141355E+00
         21   -1    0    0  503  502  0.00000000000E+00  0.00000000000E+00  0.94216242972E+02  0.94216242972E+02  0.00000000000E+00 0. -1.
         21   -1    0    0  501  503 -0.00000000000E+00 -0.00000000000E+00 -0.56757136940E+03  0.56757136940E+03  0.00000000000E+00 0.  1.
          6    2    1    2  501    0  0.93340151153E+02 -0.75429211834E+02 -0.37454396068E+03  0.42954460473E+03  0.17269464136E+03 0.  0.
         24    2    3    3    0    0  0.12765711819E+03 -0.79331999223E+02 -0.27342403240E+03  0.32258565993E+03  0.81920086536E+02 0.  0.
         -6    2    1    2    0  502 -0.93340151153E+02  0.75429211834E+02 -0.98811165746E+02  0.23224300764E+03  0.17254338094E+03 0.  0.
        -24    2    5    5    0    0 -0.11950789809E+03  0.92216135990E+02 -0.55044977766E+02  0.17835311051E+03  0.77420468920E+02 0.  0.
          5    1    3    3  501    0 -0.34316967034E+02  0.39027873893E+01 -0.10111992829E+03  0.10695894480E+03  0.47000000000E+01 0. -1.
        -13    1    4    4    0    0  0.70519904341E+02 -0.19050715480E+02 -0.63360759435E+02  0.96698358335E+02  0.00000000000E+00 0.  1.
         14    1    4    4    0    0  0.57137213846E+02 -0.60281283743E+02 -0.21006327296E+03  0.22588730160E+03  0.00000000000E+00 0. -1.
         -5    1    5    5    0  502  0.26167746940E+02 -0.16786924156E+02 -0.43766187980E+02  0.53889897132E+02  0.47000000000E+01 0.  1.
         11    1    6    6    0    0 -0.25967920894E+01  0.15190835143E+02  0.15260114073E+02  0.21688150751E+02  0.00000000000E+00 0. -1.
        -12    1    6    6    0    0 -0.11691110600E+03  0.77025300847E+02 -0.70305091839E+02  0.15666495976E+03  0.00000000000E+00 0.  1.
</event>
<event>
12    1  0.8344842E-002  0.1750908E+03  0.7818608E-02  0.1172870E+00
         21   -1    0    0  503  502  0.00000000000E+00  0.00000000000E+00  0.18505048403E+03  0.18505048403E+03  0.00000000000E+00 0.  1.
         21   -1    0    0  501  503 -0.00000000000E+00 -0.00000000000E+00 -0.18679627694E+03  0.18679627694E+03  0.00000000000E+00 0.  1.
          6    2    1    2  501    0 -0.23314188951E+02 -0.19366396549E+02 -0.64666612557E+02  0.18665094555E+03  0.17244766154E+03 0.  0.
         24    2    3    3    0    0 -0.52857051175E+02 -0.64174325685E+02 -0.20833457499E+02  0.11719616382E+03  0.79929318320E+02 0.  0.
         -6    2    1    2    0  502  0.23314188951E+02  0.19366396549E+02  0.62920819647E+02  0.18519581543E+03  0.17152216121E+03 0.  0.
        -24    2    5    5    0    0  0.17650323698E+02 -0.55693711951E+02  0.34520459492E+02  0.10460568133E+03  0.79607555961E+02 0.  0.
          5    1    3    3  501    0  0.29542862224E+02  0.44807929136E+02 -0.43833155059E+02  0.69454781723E+02  0.47000000000E+01 0. -1.
        -13    1    4    4    0    0  0.37597119185E+01  0.13843574008E+02 -0.14800075364E+02  0.20611215534E+02  0.00000000000E+00 0.  1.
         14    1    4    4    0    0 -0.56616763094E+02 -0.78017899693E+02 -0.60333821351E+01  0.96584948288E+02  0.00000000000E+00 0. -1.
         -5    1    5    5    0  502  0.56638652533E+01  0.75060108500E+02  0.28400360155E+02  0.80590134102E+02  0.47000000000E+01 0.  1.
         11    1    6    6    0    0 -0.22669748215E+02  0.62580333855E+01  0.12632385683E+01  0.23551565504E+02  0.00000000000E+00 0. -1.
        -12    1    6    6    0    0  0.40320071913E+02 -0.61951745336E+02  0.33257220924E+02  0.81054115829E+02  0.00000000000E+00 0.  1.
</event>
<event>
12    1  0.8344842E-002  0.1964695E+03  0.7818608E-02  0.1153172E+00
         21   -1    0    0  501  502  0.00000000000E+00  0.00000000000E+00  0.63291746972E+02  0.63291746972E+02  0.00000000000E+00 0.  1.
         21   -1    0    0  502  503 -0.00000000000E+00 -0.00000000000E+00 -0.61244770389E+03  0.61244770389E+03  0.00000000000E+00 0.  1.
         -6    2    1    2    0  503 -0.16550168345E+02  0.92417849775E+02 -0.31583688832E+03  0.37195858257E+03  0.17258412470E+03 0.  0.
        -24    2    3    3    0    0 -0.57086997069E+02  0.22159405629E+02 -0.96463105578E+02  0.13802177484E+03  0.77426837084E+02 0.  0.
          6    2    1    2  501    0  0.16550168345E+02 -0.92417849775E+02 -0.23331906860E+03  0.30378086829E+03  0.17038210333E+03 0.  0.
         24    2    5    5    0    0  0.52957731411E+02 -0.90518208129E+02 -0.10028871374E+03  0.16576534525E+03  0.80138980914E+02 0.  0.
          5    1    5    5  501    0 -0.36407563066E+02 -0.18996416458E+01 -0.13303035486E+03  0.13801552304E+03  0.47000000000E+01 0. -1.
        -11    1    6    6    0    0 -0.13797842682E+02 -0.53077322804E+02 -0.49765971326E+02  0.74055618023E+02  0.00000000000E+00 0.  1.
         12    1    6    6    0    0  0.66755574093E+02 -0.37440885325E+02 -0.50522742414E+02  0.91709727223E+02  0.00000000000E+00 0. -1.
         -5    1    3    3    0  503  0.40536828724E+02  0.70258444145E+02 -0.21937378274E+03  0.23393680773E+03  0.47000000000E+01 0.  1.
         11    1    4    4    0    0  0.12463110254E+02  0.93308351305E+01  0.31215595585E+01  0.15878845535E+02  0.00000000000E+00 0. -1.
        -12    1    4    4    0    0 -0.69550107323E+02  0.12828570499E+02 -0.99584665137E+02  0.12214292931E+03  0.00000000000E+00 0.  1.
</event>
<event>
12    1  0.8344842E-002  0.1862369E+03  0.7818608E-02  0.1162831E+00
         21   -1    0    0  503  502  0.00000000000E+00  0.00000000000E+00  0.41429658800E+02  0.41429658800E+02  0.00000000000E+00 0. -1.
         21   -1    0    0  501  503 -0.00000000000E+00 -0.00000000000E+00 -0.95846285972E+03  0.95846285972E+03  0.00000000000E+00 0. -1.
          6    2    1    2  501    0 -0.59601883511E+02  0.15459668203E+02 -0.65316257238E+03  0.67919476891E+03  0.17576348397E+03 0.  0.
         24    2    3    3    0    0  0.12137808679E+02 -0.13770937662E+01 -0.17850315774E+03  0.19882646241E+03  0.86714255129E+02 0.  0.
         -6    2    1    2    0  502  0.59601883511E+02 -0.15459668203E+02 -0.26387062854E+03  0.32069774961E+03  0.17154577273E+03 0.  0.
        -24    2    5    5    0    0 -0.96438195672E+01 -0.40866087713E+01 -0.22757976571E+03  0.24155591112E+03  0.80293242590E+02 0.  0.
          5    1    3    3  501    0 -0.71739692190E+02  0.16836761970E+02 -0.47465941463E+03  0.48036830650E+03  0.47000000000E+01 0. -1.
        -13    1    4    4    0    0 -0.11333563711E+02 -0.12814479481E+02  0.12819787151E+01  0.17155291318E+02  0.00000000000E+00 0.  1.
         14    1    4    4    0    0  0.23471372390E+02  0.11437385715E+02 -0.17978513646E+03  0.18167117109E+03  0.00000000000E+00 0. -1.
         -5    1    5    5    0  502  0.69245703079E+02 -0.11373059432E+02 -0.36290862828E+02  0.79141838496E+02  0.47000000000E+01 0.  1.
         13    1    6    6    0    0 -0.12476076732E+02  0.16521740743E+02 -0.10013825664E+02  0.22997763201E+02  0.00000000000E+00 0. -1.
        -14    1    6    6    0    0  0.28322571645E+01 -0.20608349515E+02 -0.21756594005E+03  0.21855814791E+03  0.00000000000E+00 0.  1.
</event>
<event>
12    1  0.8344842E-002  0.1759641E+03  0.7818608E-02  0.1172645E+00
         21   -1    0    0  503  502  0.00000000000E+00  0.00000000000E+00  0.18104485891E+03  0.18104485891E+03  0.00000000000E+00 0.  1.
         21   -1    0    0  501  503 -0.00000000000E+00 -0.00000000000E+00 -0.20440222262E+03  0.20440222262E+03  0.00000000000E+00 0.  1.
          6    2    1    2  501    0 -0.83623570054E+01 -0.34288007467E+01  0.69937395578E+02  0.18935315505E+03  0.17573187627E+03 0.  0.
         24    2    3    3    0    0  0.37638758343E+02 -0.27364125260E+02 -0.11028542066E+02  0.93090101743E+02  0.79866556339E+02 0.  0.
         -6    2    1    2    0  502  0.83623570054E+01  0.34288007467E+01 -0.93294759285E+02  0.19609392648E+03  0.17224177834E+03 0.  0.
        -24    2    5    5    0    0 -0.56065014250E+02 -0.86062821286E+01 -0.82334261020E+02  0.12947597163E+03  0.82266291863E+02 0.  0.
          5    1    3    3  501    0 -0.46001115348E+02  0.23935324514E+02  0.80965937644E+02  0.96263053304E+02  0.47000000000E+01 0. -1.
        -13    1    4    4    0    0 -0.16222846279E+02  0.10717420307E+02 -0.18332062330E+02  0.26722805779E+02  0.00000000000E+00 0.  1.
         14    1    4    4    0    0  0.53861604622E+02 -0.38081545568E+02  0.73035202639E+01  0.66367295964E+02  0.00000000000E+00 0. -1.
         -5    1    5    5    0  502  0.64427371255E+02  0.12035082875E+02 -0.10960498265E+02  0.66617954854E+02  0.47000000000E+01 0.  1.
         11    1    6    6    0    0 -0.86562046692E+01  0.34144685953E+02 -0.37615504694E+02  0.51533636117E+02  0.00000000000E+00 0. -1.
        -12    1    6    6    0    0 -0.47408809581E+02 -0.42750968081E+02 -0.44718756326E+02  0.77942335512E+02  0.00000000000E+00 0.  1.
</event>
<event>
12    1  0.8344842E-002  0.2006628E+03  0.7818608E-02  0.1149431E+00
         21   -1    0    0  501  502  0.00000000000E+00  0.00000000000E+00  0.33571249533E+03  0.33571249533E+03  0.00000000000E+00 0.  1.
         21   -1    0    0  502  503 -0.00000000000E+00 -0.00000000000E+00 -0.25894045301E+03  0.25894045301E+03  0.00000000000E+00 0.  1.
         -6    2    1    2    0  503  0.98530405556E+02  0.22447323144E+02 -0.18006142592E+03  0.26872506552E+03  0.17198523366E+03 0.  0.
        -24    2    3    3    0    0  0.11422261705E+03  0.63718129407E+02 -0.12268241480E+03  0.19617187215E+03  0.79533780631E+02 0.  0.
          6    2    1    2  501    0 -0.98530405556E+02 -0.22447323144E+02  0.25683346825E+03  0.32592788282E+03  0.17335925487E+03 0.  0.
         24    2    5    5    0    0 -0.12759748823E+03 -0.49651519132E+02  0.19117605597E+03  0.24899967368E+03  0.81891151907E+02 0.  0.
          5    1    5    5  501    0  0.29067082671E+02  0.27204195988E+02  0.65657412274E+02  0.76928209136E+02  0.47000000000E+01 0. -1.
        -13    1    6    6    0    0 -0.98809487082E+00 -0.31434725838E+02  0.42500095643E+02  0.52871319726E+02  0.00000000000E+00 0.  1.
         14    1    6    6    0    0 -0.12660939336E+03 -0.18216793295E+02  0.14867596033E+03  0.19612835395E+03  0.00000000000E+00 0. -1.
         -5    1    3    3    0  503 -0.15692211490E+02 -0.41270806262E+02 -0.57379011123E+02  0.72553193372E+02  0.47000000000E+01 0.  1.
         11    1    4    4    0    0  0.52015559647E+02  0.70698268314E+02 -0.53134568170E+02  0.10260188070E+03  0.00000000000E+00 0. -1.
        -12    1    4    4    0    0  0.62207057399E+02 -0.69801389075E+01 -0.69547846630E+02  0.93569991452E+02  0.00000000000E+00 0.  1.
</event>
<event>
12    1  0.8344842E-002  0.2198513E+03  0.7818608E-02  0.1134138E+00
         21   -1    0    0  501  502  0.00000000000E+00  0.00000000000E+00  0.15524972155E+03  0.15524972155E+03  0.00000000000E+00 0. -1.
         21   -1    0    0  502  503 -0.00000000000E+00 -0.00000000000E+00 -0.32278346222E+03  0.32278346222E+03  0.00000000000E+00 0. -1.
         -6    2    1    2    0  503 -0.12923864716E+03 -0.44714509290E+02 -0.13101537899E+03  0.25592894230E+03  0.17214115927E+03 0.  0.
        -24    2    3    3    0    0  0.11165160274E+00 -0.42709382370E+02 -0.84753115307E+02  0.11845964622E+03  0.70890714621E+02 0.  0.
          6    2    1    2  501    0  0.12923864716E+03  0.44714509290E+02 -0.36518361683E+02  0.22210424147E+03  0.17115691069E+03 0.  0.
         24    2    5    5    0    0  0.11009390186E+03 -0.32803566569E+02 -0.23154200572E+02  0.14101007300E+03  0.78428199500E+02 0.  0.
          5    1    5    5  501    0  0.19144745303E+02  0.77518075859E+02 -0.13364161111E+02  0.81094168470E+02  0.47000000000E+01 0. -1.
        -11    1    6    6    0    0  0.31311542833E+02 -0.27978983894E+02 -0.42498616817E+02  0.59744193741E+02  0.00000000000E+00 0.  1.
         12    1    6    6    0    0  0.78782359024E+02 -0.48245826749E+01  0.19344416246E+02  0.81265879257E+02  0.00000000000E+00 0. -1.
         -5    1    3    3    0  503 -0.12935029876E+03 -0.20051269198E+01 -0.46262263684E+02  0.13746929608E+03  0.47000000000E+01 0.  1.
         13    1    4    4    0    0 -0.16991797084E+02 -0.30430858595E+02 -0.40882664870E+01  0.35092338848E+02  0.00000000000E+00 0. -1.
        -14    1    4    4    0    0  0.17103448687E+02 -0.12278523776E+02 -0.80664848820E+02  0.83367307371E+02  0.00000000000E+00 0.  1.
</event>
<event>
12    1  0.8344842E-002  0.1845363E+03  0.7818608E-02  0.1163515E+00
         21   -1    0    0  503  502  0.00000000000E+00  0.00000000000E+00  0.20102734405E+03  0.20102734405E+03  0.00000000000E+00 0. -1.
         21   -1    0    0  501  503 -0.00000000000E+00 -0.00000000000E+00 -0.16990780108E+03  0.16990780108E+03  0.00000000000E+00 0. -1.
          6    2    1    2  501    0 -0.65156212367E+02 -0.13747541243E+02  0.42588438938E+01  0.18458541559E+03  0.17210261764E+03 0.  0.
         24    2    3    3    0    0 -0.10202572456E+03  0.23395087101E+02 -0.42790034379E+01  0.13135083466E+03  0.79234798679E+02 0.  0.
         -6    2    1    2    0  502  0.65156212367E+02  0.13747541243E+02  0.26860699082E+02  0.18634972954E+03  0.17196045372E+03 0.  0.
        -24    2    5    5    0    0  0.72290986289E+02 -0.22939433511E+02  0.68227507755E+02  0.13040205778E+03  0.81224993382E+02 0.  0.
          5    1    3    3  501    0  0.36869512198E+02 -0.37142628344E+02  0.85378473316E+01  0.53234580933E+02  0.47000000000E+01 0. -1.
        -11    1    4    4    0    0 -0.17326849001E+02  0.17456698609E+02  0.30857835713E+02  0.39460892635E+02  0.00000000000E+00 0.  1.
         12    1    4    4    0    0 -0.84698875563E+02  0.59383884927E+01 -0.35136839151E+02  0.91889942024E+02  0.00000000000E+00 0. -1.
         -5    1    5    5    0  502 -0.71347739222E+01  0.36686974754E+02 -0.41366808673E+02  0.55947671759E+02  0.47000000000E+01 0.  1.
         11    1    6    6    0    0  0.65727038040E+02  0.18603582120E+02  0.34711598576E+02  0.76622659004E+02  0.00000000000E+00 0. -1.
        -12    1    6    6    0    0  0.65639482489E+01 -0.41543015631E+02  0.33515909179E+02  0.53779398774E+02  0.00000000000E+00 0.  1.
</event>
<event>
12    1  0.8344842E-002  0.2608923E+03  0.7818608E-02  0.1107056E+00
         21   -1    0    0  503  502  0.00000000000E+00  0.00000000000E+00  0.36851900892E+03  0.36851900892E+03  0.00000000000E+00 0.  1.
         21   -1    0    0  501  503 -0.00000000000E+00 -0.00000000000E+00 -0.19341254154E+03  0.19341254154E+03  0.00000000000E+00 0.  1.
          6    2    1    2  501    0  0.18851663744E+03  0.48105992205E+02  0.15446133371E+03  0.30318821768E+03  0.17381623241E+03 0.  0.
         24    2    3    3    0    0  0.17640077623E+03  0.24983374097E+02  0.58703367871E+02  0.20382460471E+03  0.79730679474E+02 0.  0.
         -6    2    1    2    0  502 -0.18851663744E+03 -0.48105992205E+02  0.20645133667E+02  0.25874333278E+03  0.16931976150E+03 0.  0.
        -24    2    5    5    0    0 -0.14409869738E+03 -0.31350658244E+02  0.77780808186E+02  0.18431034333E+03  0.78569397197E+02 0.  0.
          5    1    3    3  501    0  0.12115861212E+02  0.23122618107E+02  0.95757965842E+02  0.99363612974E+02  0.47000000000E+01 0. -1.
        -11    1    4    4    0    0  0.55776336011E+02 -0.13099152502E+02  0.51644519011E+02  0.77134582380E+02  0.00000000000E+00 0.  1.
         12    1    4    4    0    0  0.12062444022E+03  0.38082526600E+02  0.70588488606E+01  0.12669002233E+03  0.00000000000E+00 0. -1.
         -5    1    5    5    0  502 -0.44417940059E+02 -0.16755333960E+02 -0.57135674519E+02  0.74432989446E+02  0.47000000000E+01 0.  1.
         11    1    6    6    0    0 -0.59451431538E+02 -0.48674719871E+02  0.17062244942E+02  0.78707186895E+02  0.00000000000E+00 0. -1.
        -12    1    6    6    0    0 -0.84647265846E+02  0.17324061627E+02  0.60718563244E+02  0.10560315643E+03  0.00000000000E+00 0.  1.
</event>
<event>
12    1  0.8344842E-002  0.1964038E+03  0.7818608E-02  0.1154043E+00
         21   -1    0    0  503  502  0.00000000000E+00  0.00000000000E+00  0.14647855074E+03  0.14647855074E+03  0.00000000000E+00 0.  1.
         21   -1    0    0  501  503 -0.00000000000E+00 -0.00000000000E+00 -0.83413466802E+03  0.83413466802E+03  0.00000000000E+00 0.  1.
          6    2    1    2  501    0  0.67817218815E+02  0.42067903779E+02 -0.75358885185E+03  0.77876223586E+03  0.17945912812E+03 0.  0.
         24    2    3    3    0    0  0.32986786038E+02  0.80004324496E+02 -0.67224963921E+03  0.68237505529E+03  0.78913361835E+02 0.  0.
         -6    2    1    2    0  502 -0.67817218815E+02 -0.42067903779E+02  0.65932734573E+02  0.20185098290E+03  0.17328534305E+03 0.  0.
        -24    2    5    5    0    0  0.21342152604E+02  0.11412467380E+02  0.10364946804E+02  0.83870422435E+02  0.79630922057E+02 0.  0.
          5    1    3    3  501    0  0.34830432777E+02 -0.37936420717E+02 -0.81339212644E+02  0.96387180567E+02  0.47000000000E+01 0. -1.
        -11    1    4    4    0    0 -0.91642742731E+01  0.67879481647E+02 -0.49808513698E+03  0.50277272364E+03  0.00000000000E+00 0.  1.
         12    1    4    4    0    0  0.42151060311E+02  0.12124842849E+02 -0.17416450222E+03  0.17960233165E+03  0.00000000000E+00 0. -1.
         -5    1    5    5    0  502 -0.89159371418E+02 -0.53480371159E+02  0.55567787769E+02  0.11798056047E+03  0.47000000000E+01 0.  1.
         11    1    6    6    0    0 -0.22884728444E+02  0.17680924651E+02 -0.14920469933E+02  0.32541455337E+02  0.00000000000E+00 0. -1.
        -12    1    6    6    0    0  0.44226881047E+02 -0.62684572702E+01  0.25285416737E+02  0.51328967097E+02  0.00000000000E+00 0.  1.
</event>
<event>
12    1  0.8344842E-002  0.2033174E+03  0.7818608E-02  0.1146986E+00
         21   -1    0    0  501  502  0.00000000000E+00  0.00000000000E+00  0.24219775679E+03  0.24219775679E+03  0.00000000000E+00 0.  1.
         21   -1    0    0  502  503 -0.00000000000E+00 -0.00000000000E+00 -0.18276305544E+03  0.18276305544E+03  0.00000000000E+00 0.  1.
         -6    2    1    2    0  503 -0.86395077209E+02  0.65246616713E+02  0.84495925133E+02  0.22010466537E+03  0.17200369763E+03 0.  0.
        -24    2    3    3    0    0 -0.50168829123E+02  0.77034838347E+02 -0.62460514735E+01  0.12157802158E+03  0.79315348054E+02 0.  0.
          6    2    1    2  501    0  0.86395077209E+02 -0.65246616713E+02 -0.25061223778E+02  0.20485614686E+03  0.17209516440E+03 0.  0.
         24    2    5    5    0    0  0.11532846606E+03 -0.41264620436E+02  0.18273985931E+02  0.14730349673E+03  0.79755611747E+02 0.  0.
          5    1    5    5  501    0 -0.28933388850E+02 -0.23981996278E+02 -0.43335209709E+02  0.57552650124E+02  0.47000000000E+01 0. -1.
        -11    1    6    6    0    0  0.60063000169E+02 -0.51169325820E+02 -0.17377190351E+02  0.80794991421E+02  0.00000000000E+00 0.  1.
         12    1    6    6    0    0  0.55265465889E+02  0.99047053844E+01  0.35651176282E+02  0.66508505313E+02  0.00000000000E+00 0. -1.
         -5    1    3    3    0  503 -0.36226248085E+02 -0.11788221633E+02  0.90741976606E+02  0.98526643798E+02  0.47000000000E+01 0.  1.
         13    1    4    4    0    0  0.61248863290E+01 -0.13452448837E+02  0.56236837615E+00  0.14791851488E+02  0.00000000000E+00 0. -1.
        -14    1    4    4    0    0 -0.56293715453E+02  0.90487287184E+02 -0.68084198497E+01  0.10678617009E+03  0.00000000000E+00 0.  1.
</event>
<event>
12    1  0.8344842E-002  0.2339988E+03  0.7818608E-02  0.1124191E+00
         21   -1    0    0  503  502  0.00000000000E+00  0.00000000000E+00  0.23332941758E+03  0.23332941758E+03  0.00000000000E+00 0.  1.
         21   -1    0    0  501  503 -0.00000000000E+00 -0.00000000000E+00 -0.24350621261E+03  0.24350621261E+03  0.00000000000E+00 0.  1.
          6    2    1    2  501    0  0.80590242254E+02 -0.13674833065E+03 -0.55214856931E+02  0.23854202244E+03  0.16928887430E+03 0.  0.
         24    2    3    3    0    0  0.93655202683E+02 -0.16113322729E+03 -0.59619657946E+02  0.21013764519E+03  0.76603605566E+02 0.  0.
         -6    2    1    2    0  502 -0.80590242254E+02  0.13674833065E+03  0.45038061909E+02  0.23829360775E+03  0.17193174050E+03 0.  0.
        -24    2    5    5    0    0 -0.58539407200E+02  0.15939143489E+03  0.69493997865E+02  0.19805516470E+03  0.74591828054E+02 0.  0.
          5    1    3    3  501    0 -0.13064960429E+02  0.24384896638E+02  0.44048010152E+01  0.28404377252E+02  0.47000000000E+01 0. -1.
        -11    1    4    4    0    0 -0.69957328663E+01 -0.33991875162E+02 -0.28751048105E+02  0.45066735211E+02  0.00000000000E+00 0.  1.
         12    1    4    4    0    0  0.10065093555E+03 -0.12714135213E+03 -0.30868609841E+02  0.16507090998E+03  0.00000000000E+00 0. -1.
         -5    1    5    5    0  502 -0.22050835054E+02 -0.22643104238E+02 -0.24455935956E+02  0.40238443056E+02  0.47000000000E+01 0.  1.
         11    1    6    6    0    0 -0.24146223910E+01 -0.68753219995E+01  0.10775031220E+02  0.13007757366E+02  0.00000000000E+00 0. -1.
        -12    1    6    6    0    0 -0.56124784809E+02  0.16626675689E+03  0.58718966644E+02  0.18504740733E+03  0.00000000000E+00 0.  1.
</event>
<event>
12    1  0.8344842E-002  0.2167449E+03  0.7818608E-02  0.1137238E+00
         21   -1    0    0  503  502  0.00000000000E+00  0.00000000000E+00  0.61969778584E+03  0.61969778584E+03  0.00000000000E+00 0. -1.
         21   -1    0    0  501  503 -0.00000000000E+00 -0.00000000000E+00 -0.74524019217E+02  0.74524019217E+02  0.00000000000E+00 0. -1.
          6    2    1    2  501    0  0.84502754187E+02 -0.10172384833E+03  0.24575164306E+03  0.32458419853E+03  0.16574852965E+03 0.  0.
         24    2    3    3    0    0 -0.93806994168E+01 -0.69964017880E+02  0.16480268681E+03  0.19653103297E+03  0.80508136370E+02 0.  0.
         -6    2    1    2    0  502 -0.84502754187E+02  0.10172384833E+03  0.29942212356E+03  0.36963760653E+03  0.17172622193E+03 0.  0.
        -24    2    5    5    0    0 -0.93962370029E+02  0.49367782807E+02  0.28446879309E+03  0.31417289684E+03  0.80721805640E+02 0.  0.
          5    1    3    3  501    0  0.93883453603E+02 -0.31759830448E+02  0.80948956251E+02  0.12805316556E+03  0.47000000000E+01 0. -1.
        -11    1    4    4    0    0 -0.26128739000E+01 -0.56442672593E+02  0.17107248434E+03  0.18016214169E+03  0.00000000000E+00 0.  1.
         12    1    4    4    0    0 -0.67678255168E+01 -0.13521345287E+02 -0.62697975344E+01  0.16368891280E+02  0.00000000000E+00 0. -1.
         -5    1    5    5    0  502  0.94596158425E+01  0.52356065522E+02  0.14953330473E+02  0.55464709690E+02  0.47000000000E+01 0.  1.
         13    1    6    6    0    0 -0.40672871849E+02  0.34078753454E+02  0.48866684835E+02  0.72135960714E+02  0.00000000000E+00 0. -1.
        -14    1    6    6    0    0 -0.53289498180E+02  0.15289029353E+02  0.23560210825E+03  0.24203693612E+03  0.00000000000E+00 0.  1.
</event>
<event>
12    1  0.8344842E-002  0.1805932E+03  0.7818608E-02  0.1167608E+00
         21   -1    0    0  501  502  0.00000000000E+00  0.00000000000E+00  0.11612621238E+04  0.11612621238E+04  0.00000000000E+00 0.  1.
         21   -1    0    0  502  503 -0.00000000000E+00 -0.00000000000E+00 -0.63577940976E+02  0.63577940976E+02  0.00000000000E+00 0.  1.
         -6    2    1    2    0  503  0.56581128421E+02 -0.26787410377E+01  0.90748025558E+02  0.20211166582E+03  0.17147979931E+03 0.  0.
        -24    2    3    3    0    0  0.75000751112E+02  0.45027788620E+02  0.92378430737E+02  0.15073128344E+03  0.80830259971E+02 0.  0.
          6    2    1    2  501    0 -0.56581128421E+02  0.26787410377E+01  0.10069361572E+04  0.10227283989E+04  0.16983625491E+03 0.  0.
         24    2    5    5    0    0 -0.85606247213E+02  0.57246183730E+01  0.45656471537E+03  0.47156367862E+03  0.80992362959E+02 0.  0.
          5    1    5    5  501    0  0.29025118791E+02 -0.30458773353E+01  0.55037144186E+03  0.55116472030E+03  0.47000000000E+01 0. -1.
        -13    1    6    6    0    0 -0.25613667207E+02  0.27202997361E+02  0.30311815904E+03  0.30541231369E+03  0.00000000000E+00 0.  1.
         14    1    6    6    0    0 -0.59992580005E+02 -0.21478378988E+02  0.15344655633E+03  0.16615136494E+03  0.00000000000E+00 0. -1.
         -5    1    3    3    0  503 -0.18419622691E+02 -0.47706529657E+02 -0.16304051788E+01  0.51380382376E+02  0.47000000000E+01 0.  1.
         13    1    4    4    0    0  0.39387527745E+02  0.66664659866E+02  0.60633686130E+02  0.98346317220E+02  0.00000000000E+00 0. -1.
        -14    1    4    4    0    0  0.35613223367E+02 -0.21636871246E+02  0.31744744607E+02  0.52384966222E+02  0.00000000000E+00 0.  1.
</event>
<event>
12    1  0.8344842E-002  0.1729706E+03  0.7818608E-02  0.1175031E+00
         21   -1    0    0  501  502  0.00000000000E+00  0.00000000000E+00  0.31387111117E+03  0.31387111117E+03  0.00000000000E+00 0. -1.
         21   -1    0    0  502  503 -0.00000000000E+00 -0.00000000000E+00 -0.13645192920E+03  0.13645192920E+03  0.00000000000E+00 0. -1.
         -6    2    1    2    0  503 -0.15409217775E+02  0.25456272439E+01 -0.35529556533E+02  0.17658194039E+03  0.17226406496E+03 0.  0.
        -24    2    3    3    0    0 -0.58760814240E+01 -0.51510679039E+02  0.21557680395E+02  0.97247158879E+02  0.79400238905E+02 0.  0.
          6    2    1    2  501    0  0.15409217775E+02 -0.25456272439E+01  0.21294873850E+03  0.27374109998E+03  0.17129827897E+03 0.  0.
         24    2    5    5    0    0  0.64243454103E+02  0.19829823715E+02  0.75170233324E+02  0.12578688432E+03  0.75175348248E+02 0.  0.
          5    1    5    5  501    0 -0.48834236329E+02 -0.22375450959E+02  0.13777850518E+03  0.14795421566E+03  0.47000000000E+01 0. -1.
        -11    1    6    6    0    0  0.38214998681E+02  0.36790761280E+02  0.10548516721E+02  0.54085279372E+02  0.00000000000E+00 0.  1.
         12    1    6    6    0    0  0.26028455422E+02 -0.16960937564E+02  0.64621716604E+02  0.71701604944E+02  0.00000000000E+00 0. -1.
         -5    1    3    3    0  503 -0.95331363505E+01  0.54056306283E+02 -0.57087236928E+02  0.79334781513E+02  0.47000000000E+01 0.  1.
         13    1    4    4    0    0 -0.28742001355E+02 -0.97659161637E+01 -0.18057872830E+02  0.35320851229E+02  0.00000000000E+00 0. -1.
        -14    1    4    4    0    0  0.22865919931E+02 -0.41744762876E+02  0.39615553225E+02  0.61926307650E+02  0.00000000000E+00 0.  1.
</event>
<event>
12    1  0.8344842E-002  0.1966264E+03  0.7818608E-02  0.1153196E+00
         21   -1    0    0  503  502  0.00000000000E+00  0.00000000000E+00  0.20480916018E+02  0.20480916018E+02  0.00000000000E+00 0.  1.
         21   -1    0    0  501  503 -0.00000000000E+00 -0.00000000000E+00 -0.26011981103E+04  0.26011981103E+04  0.00000000000E+00 0.  1.
          6    2    1    2  501    0  0.55238941110E+02  0.78187135145E+02 -0.19953553657E+04  0.20050199466E+04  0.17174801907E+03 0.  0.
         24    2    3    3    0    0 -0.72644254138E+01  0.58829762654E+02 -0.60787888904E+03  0.61599350984E+03  0.80109597243E+02 0.  0.
         -6    2    1    2    0  502 -0.55238941110E+02 -0.78187135145E+02 -0.58536182864E+03  0.61665907979E+03  0.16868722994E+03 0.  0.
        -24    2    5    5    0    0 -0.70864757620E+02  0.10470165546E+01 -0.40785705550E+03  0.42158921686E+03  0.79794610939E+02 0.  0.
          5    1    3    3  501    0  0.62503366524E+02  0.19357372491E+02 -0.13874764766E+04  0.13890264367E+04  0.47000000000E+01 0. -1.
        -11    1    4    4    0    0 -0.21238955204E+02  0.57198896114E+02 -0.59045187003E+03  0.59359600551E+03  0.00000000000E+00 0.  1.
         12    1    4    4    0    0  0.13974529790E+02  0.16308665406E+01 -0.17427019009E+02  0.22397504327E+02  0.00000000000E+00 0. -1.
         -5    1    5    5    0  502  0.15625816510E+02 -0.79234151699E+02 -0.17750477313E+03  0.19506986293E+03  0.47000000000E+01 0.  1.
         11    1    6    6    0    0 -0.34209623644E+02 -0.36759244609E+02 -0.25552767489E+03  0.26041492478E+03  0.00000000000E+00 0. -1.
        -12    1    6    6    0    0 -0.36655133976E+02  0.37806261163E+02 -0.15232938061E+03  0.16117429208E+03  0.00000000000E+00 0.  1.
</event>
<event>
12    1  0.8344842E-002  0.2759397E+03  0.7818608E-02  0.1098195E+00
         21   -1    0    0  503  502  0.00000000000E+00  0.00000000000E+00  0.13234223417E+03  0.13234223417E+03  0.00000000000E+00 0.  1.
         21   -1    0    0  501  503 -0.00000000000E+00 -0.00000000000E+00 -0.59251276366E+03  0.59251276366E+03  0.00000000000E+00 0. -1.
          6    2    1    2  501    0 -0.50748707541E+02  0.20613314610E+03 -0.29779660227E+03  0.40468626652E+03  0.17326815271E+03 0.  0.
         24    2    3    3    0    0 -0.63179539886E+02  0.21053541562E+03 -0.30868701829E+03  0.38694939163E+03  0.78264557325E+02 0.  0.
         -6    2    1    2    0  502  0.50748707541E+02 -0.20613314610E+03 -0.16237392721E+03  0.32016873131E+03  0.17628505051E+03 0.  0.
        -24    2    5    5    0    0 -0.29662145128E+02 -0.75608773473E+02 -0.52785579349E+01  0.10061563494E+03  0.59153303727E+02 0.  0.
          5    1    3    3  501    0  0.12430832345E+02 -0.44022695201E+01  0.10890416014E+02  0.17736874885E+02  0.47000000000E+01 0. -1.
        -11    1    4    4    0    0 -0.27067951631E+02  0.73400801228E+02 -0.52762874694E+02  0.94362453192E+02  0.00000000000E+00 0.  1.
         12    1    4    4    0    0 -0.36111588255E+02  0.13713461439E+03 -0.25592414359E+03  0.29258693844E+03  0.00000000000E+00 0. -1.
         -5    1    5    5    0  502  0.80410852669E+02 -0.13052437263E+03 -0.15709536928E+03  0.21955309637E+03  0.47000000000E+01 0.  1.
         13    1    6    6    0    0 -0.14746837852E+02  0.45854441958E+01 -0.10822556089E+02  0.18857975645E+02  0.00000000000E+00 0. -1.
        -14    1    6    6    0    0 -0.14915307275E+02 -0.80194217669E+02  0.55439981544E+01  0.81757659300E+02  0.00000000000E+00 0.  1.
</event>
<event>
12    1  0.8344842E-002  0.2327823E+03  0.7818608E-02  0.1125440E+00
         21   -1    0    0  501  502  0.00000000000E+00  0.00000000000E+00  0.34920059270E+03  0.34920059270E+03  0.00000000000E+00 0. -1.
         21   -1    0    0  502  503 -0.00000000000E+00 -0.00000000000E+00 -0.16207770809E+03  0.16207770809E+03  0.00000000000E+00 0.  1.
         -6    2    1    2    0  503 -0.57808199185E+02  0.13977848849E+03  0.31768691686E+02  0.23494007863E+03  0.17694003797E+03 0.  0.
        -24    2    3    3    0    0 -0.40851632274E+02  0.14924652128E+03  0.73188104982E+02  0.18895283470E+03  0.80020591448E+02 0.  0.
          6    2    1    2  501    0  0.57808199185E+02 -0.13977848849E+03  0.15535419293E+03  0.27633822216E+03  0.17131279587E+03 0.  0.
         24    2    5    5    0    0  0.88114023655E+02 -0.68244958980E+02  0.14210340542E+03  0.19738784401E+03  0.79668861792E+02 0.  0.
          5    1    5    5  501    0 -0.30305824470E+02 -0.71533529509E+02  0.13250787508E+02  0.78950378152E+02  0.47000000000E+01 0. -1.
        -13    1    6    6    0    0  0.79930875341E+02 -0.56721759789E+02  0.61840831444E+02  0.11589042799E+03  0.00000000000E+00 0.  1.
         14    1    6    6    0    0  0.81831483141E+01 -0.11523199191E+02  0.80262573980E+02  0.81497416020E+02  0.00000000000E+00 0. -1.
         -5    1    3    3    0  503 -0.16956566910E+02 -0.94680327947E+01 -0.41419413296E+02  0.45987243929E+02  0.47000000000E+01 0.  1.
         13    1    4    4    0    0 -0.44317192900E+02  0.15809897064E+03  0.65693301903E+02  0.17684713178E+03  0.00000000000E+00 0. -1.
        -14    1    4    4    0    0  0.34655606259E+01 -0.88524493550E+01  0.74948030783E+01  0.12105702921E+02  0.00000000000E+00 0.  1.
</event>
<event>
12    1  0.8344842E-002  0.2746268E+03  0.7818608E-02  0.1098721E+00
         21   -1    0    0  501  502  0.00000000000E+00  0.00000000000E+00  0.48927141372E+03  0.48927141372E+03  0.00000000000E+00 0.  1.
         21   -1    0    0  502  503 -0.00000000000E+00 -0.00000000000E+00 -0.15836862840E+03  0.15836862840E+03  0.00000000000E+00 0. -1.
         -6    2    1    2    0  503 -0.11114424836E+03  0.18373215282E+03  0.11095563652E+03  0.29579262995E+03  0.17050389653E+03 0.  0.
        -24    2    3    3    0    0 -0.12672929452E+03  0.14702530186E+03  0.37639078113E+02  0.21220020022E+03  0.77042009947E+02 0.  0.
          6    2    1    2  501    0  0.11114424836E+03 -0.18373215282E+03  0.21994714881E+03  0.35184741217E+03  0.17119960648E+03 0.  0.
         24    2    5    5    0    0  0.73842119026E+02 -0.32760368609E+02  0.12754203058E+03  0.17089237810E+03  0.80070812628E+02 0.  0.
          5    1    5    5  501    0  0.37302129333E+02 -0.15097178421E+03  0.92405118233E+02  0.18095503407E+03  0.47000000000E+01 0. -1.
        -11    1    6    6    0    0  0.89926609790E+01 -0.46066018785E+02  0.61708883092E+02  0.77530202442E+02  0.00000000000E+00 0.  1.
         12    1    6    6    0    0  0.64849458047E+02  0.13305650177E+02  0.65833147483E+02  0.93362175655E+02  0.00000000000E+00 0. -1.
         -5    1    3    3    0  503  0.15585046159E+02  0.36706850964E+02  0.73316558407E+02  0.83592429729E+02  0.47000000000E+01 0.  1.
         11    1    4    4    0    0 -0.71555401002E+02  0.11701089509E+03 -0.33545567796E+01  0.13719685869E+03  0.00000000000E+00 0. -1.
        -12    1    4    4    0    0 -0.55173893515E+02  0.30014406766E+02  0.40993634892E+02  0.75003341531E+02  0.00000000000E+00 0.  1.
</event>
<event>
12    1  0.8344842E-002  0.2186963E+03  0.7818608E-02  0.1134882E+00
         21   -1    0    0  501  502  0.00000000000E+00  0.00000000000E+00  0.26774993649E+03  0.26774993649E+03  0.00000000000E+00 0. -1.
         21   -1    0    0  502  503 -0.00000000000E+00 -0.00000000000E+00 -0.17980458669E+03  0.17980458669E+03  0.00000000000E+00 0. -1.
         -6    2    1    2    0  503  0.90668333230E+02 -0.10064719724E+03  0.62819596332E+02  0.22753979830E+03  0.17168999146E+03 0.  0.
        -24    2    3    3    0    0  0.91986162046E+02 -0.12515254693E+03  0.84319470116E+02  0.19457643366E+03  0.81397797774E+02 0.  0.
          6    2    1    2  501    0 -0.90668333230E+02  0.10064719724E+03  0.25125753467E+02  0.22001472488E+03  0.17153591669E+03 0.  0.
         24    2    5    5    0    0 -0.46933114753E+02  0.66575690668E+02 -0.51040782628E+02  0.12569045380E+03  0.80980793006E+02 0.  0.
          5    1    5    5  501    0 -0.43735218477E+02  0.34071506572E+02  0.76166536095E+02  0.94324271087E+02  0.47000000000E+01 0. -1.
        -13    1    6    6    0    0  0.27384344585E+01 -0.11131172972E+02 -0.28544873570E+02  0.30760556597E+02  0.00000000000E+00 0.  1.
         14    1    6    6    0    0 -0.49671549212E+02  0.77706863641E+02 -0.22495909058E+02  0.94929897200E+02  0.00000000000E+00 0. -1.
         -5    1    3    3    0  503 -0.13178288154E+01  0.24505349690E+02 -0.21499873784E+02  0.32963364648E+02  0.47000000000E+01 0.  1.
         11    1    4    4    0    0  0.36222704663E+02 -0.95093543171E+02  0.18876892761E+02  0.10349494367E+03  0.00000000000E+00 0. -1.
        -12    1    4    4    0    0  0.55763457382E+02 -0.30059003760E+02  0.65442577355E+02  0.91081489981E+02  0.00000000000E+00 0.  1.
</event>
<event>
12    1  0.8344842E-002  0.3834782E+03  0.7818608E-02  0.1049793E+00
         21   -1    0    0  501  502  0.00000000000E+00  0.00000000000E+00  0.22607072023E+03  0.22607072023E+03  0.00000000000E+00 0.  1.
         21   -1    0    0  502  503 -0.00000000000E+00 -0.00000000000E+00 -0.16791628606E+04  0.16791628606E+04  0.00000000000E+00 0. -1.
         -6    2    1    2    0  503 -0.17620603226E+03 -0.29160475330E+03 -0.14725272575E+04  0.15212631497E+04  0.17269380035E+03 0.  0.
        -24    2    3    3    0    0 -0.13877807062E+03 -0.18195534506E+03 -0.72191824945E+03  0.76175026767E+03  0.82039081705E+02 0.  0.
          6    2    1    2  501    0  0.17620603226E+03  0.29160475330E+03  0.19435117177E+02  0.38397043106E+03  0.17599338112E+03 0.  0.
         24    2    5    5    0    0  0.76594645846E+02  0.22002568297E+03  0.61185815710E+02  0.25431240994E+03  0.81566272859E+02 0.  0.
          5    1    5    5  501    0  0.99611386418E+02  0.71579070329E+02 -0.41750698534E+02  0.12965802112E+03  0.47000000000E+01 0. -1.
        -11    1    6    6    0    0  0.84766207861E+02  0.16525771007E+03  0.23225324205E+02  0.18717595043E+03  0.00000000000E+00 0.  1.
         12    1    6    6    0    0 -0.81715620151E+01  0.54767972893E+02  0.37960491505E+02  0.67136459512E+02  0.00000000000E+00 0. -1.
         -5    1    3    3    0  503 -0.37427961645E+02 -0.10964940824E+03 -0.75060900806E+03  0.75951288206E+03  0.47000000000E+01 0.  1.
         13    1    4    4    0    0  0.33178042172E+01 -0.29398220144E+02 -0.15302939620E+03  0.15586295029E+03  0.00000000000E+00 0. -1.
        -14    1    4    4    0    0 -0.14209587484E+03 -0.15255712492E+03 -0.56888885325E+03  0.60588731738E+03  0.00000000000E+00 0.  1.
</event>
<event>
12    1  0.8344842E-002  0.1770232E+03  0.7818608E-02  0.1170931E+00
         21   -1    0    0  501  502  0.00000000000E+00  0.00000000000E+00  0.49802695731E+02  0.49802695731E+02  0.00000000000E+00 0.  1.
         21   -1    0    0  502  503 -0.00000000000E+00 -0.00000000000E+00 -0.99178041424E+03  0.99178041424E+03  0.00000000000E+00 0.  1.
         -6    2    1    2    0  503 -0.31031351238E+02 -0.22379246455E+02 -0.15550522507E+03  0.23562487336E+03  0.17283931987E+03 0.  0.
        -24    2    3    3    0    0 -0.18161667649E+02  0.50562767149E+02 -0.56823944855E+02  0.11214916252E+03  0.80386779700E+02 0.  0.
          6    2    1    2  501    0  0.31031351238E+02  0.22379246455E+02 -0.78647249343E+03  0.80595823660E+03  0.17194743612E+03 0.  0.
         24    2    5    5    0    0  0.17327445312E+02  0.81449103878E+02 -0.49751382379E+03  0.51066812865E+03  0.79547067025E+02 0.  0.
          5    1    5    5  501    0  0.13703905926E+02 -0.59069857422E+02 -0.28895866965E+03  0.29529010796E+03  0.47000000000E+01 0. -1.
        -11    1    6    6    0    0  0.10458422624E+02  0.30762494981E+02 -0.39267500937E+03  0.39401697005E+03  0.00000000000E+00 0.  1.
         12    1    6    6    0    0  0.68690226884E+01  0.50686608896E+02 -0.10483881441E+03  0.11665115860E+03  0.00000000000E+00 0. -1.
         -5    1    3    3    0  503 -0.12869683589E+02 -0.72942013604E+02 -0.98681280218E+02  0.12347571085E+03  0.47000000000E+01 0.  1.
         13    1    4    4    0    0 -0.14958820834E+02  0.51062707980E+02 -0.75959132106E+02  0.92741340390E+02  0.00000000000E+00 0. -1.
        -14    1    4    4    0    0 -0.32028468146E+01 -0.49994083126E+00  0.19135187251E+02  0.19407822126E+02  0.00000000000E+00 0.  1.
</event>
<event>
12    1  0.8344842E-002  0.1927263E+03  0.7818608E-02  0.1156054E+00
         21   -1    0    0  501  502  0.00000000000E+00  0.00000000000E+00  0.75346563952E+02  0.75346563952E+02  0.00000000000E+00 0.  1.
         21   -1    0    0  502  503 -0.00000000000E+00 -0.00000000000E+00 -0.57817089067E+03  0.57817089067E+03  0.00000000000E+00 0.  1.
         -6    2    1    2    0  503 -0.48174983252E+02  0.71675579917E+02 -0.37716708145E+03  0.42355453297E+03  0.17229398510E+03 0.  0.
        -24    2    3    3    0    0 -0.46150161084E+02  0.77004045212E+01 -0.88303497242E+02  0.12764714331E+03  0.79417579747E+02 0.  0.
          6    2    1    2  501    0  0.48174983252E+02 -0.71675579917E+02 -0.12565724526E+03  0.22996292165E+03  0.17214814631E+03 0.  0.
         24    2    5    5    0    0  0.52612243675E+02 -0.95250488973E+02 -0.39149605959E+02  0.14006783126E+03  0.79029120421E+02 0.  0.
          5    1    5    5  501    0 -0.44372604231E+01  0.23574909056E+02 -0.86507639305E+02  0.89895090384E+02  0.47000000000E+01 0. -1.
        -13    1    6    6    0    0 -0.82717638534E+01 -0.63688431223E+02 -0.79083935650E+01  0.64708430963E+02  0.00000000000E+00 0.  1.
         14    1    6    6    0    0  0.60884007528E+02 -0.31562057750E+02 -0.31241212394E+02  0.75359400302E+02  0.00000000000E+00 0. -1.
         -5    1    3    3    0  503 -0.20248221677E+01  0.63975175396E+02 -0.28886358421E+03  0.29590738966E+03  0.47000000000E+01 0.  1.
         11    1    4    4    0    0  0.17363692806E+02  0.56644685755E+01  0.71018820328E+00  0.18278085222E+02  0.00000000000E+00 0. -1.
        -12    1    4    4    0    0 -0.63513853890E+02  0.20359359456E+01 -0.89013685445E+02  0.10936905809E+03  0.00000000000E+00 0.  1.
</event>
<event>
12    1  0.8344842E-002  0.1948478E+03  0.7818608E-02  0.1154237E+00
         21   -1    0    0  501  502  0.00000000000E+00  0.00000000000E+00  0.12341853634E+03  0.12341853634E+03  0.00000000000E+00 0.  1.
         21   -1    0    0  502  503 -0.00000000000E+00 -0.00000000000E+00 -0.35012785033E+03  0.35012785033E+03  0.00000000000E+00 0.  1.
         -6    2    1    2    0  503 -0.79634289165E+02  0.44895879099E+02 -0.19648762438E+03  0.27671834170E+03  0.17207089855E+03 0.  0.
        -24    2    3    3    0    0 -0.88952245752E+02  0.89448456918E+02 -0.16535755520E+03  0.22137461837E+03  0.75829230022E+02 0.  0.
          6    2    1    2  501    0  0.79634289165E+02 -0.44895879099E+02 -0.30221689605E+02  0.19682804496E+03  0.17167023269E+03 0.  0.
         24    2    5    5    0    0  0.11422137862E+03 -0.33819384927E+02  0.10490377776E+02  0.14206932045E+03  0.76703126779E+02 0.  0.
          5    1    5    5  501    0 -0.34587089451E+02 -0.11076494172E+02 -0.40712067381E+02  0.54758724513E+02  0.47000000000E+01 0. -1.
        -13    1    6    6    0    0  0.24095363182E+02 -0.23130257609E+02 -0.27905697893E+02  0.43523824727E+02  0.00000000000E+00 0.  1.
         14    1    6    6    0    0  0.90126015434E+02 -0.10689127318E+02  0.38396075668E+02  0.98545495724E+02  0.00000000000E+00 0. -1.
         -5    1    3    3    0  503  0.93179565868E+01 -0.44552577819E+02 -0.31130069182E+02  0.55343723334E+02  0.47000000000E+01 0.  1.
         13    1    4    4    0    0 -0.94745977961E+01  0.58540324062E+02 -0.47930168475E+02  0.76249843244E+02  0.00000000000E+00 0. -1.
        -14    1    4    4    0    0 -0.79477647956E+02  0.30908132856E+02 -0.11742738673E+03  0.14512477512E+03  0.00000000000E+00 0.  1.
</event>
<event>
12    1  0.8344842E-002  0.2489865E+03  0.7818608E-02  0.1114100E+00
         21   -1    0    0  503  502  0.00000000000E+00  0.00000000000E+00  0.16856592210E+04  0.16856592210E+04  0.00000000000E+00 0.  1.
         21   -1    0    0  501  503 -0.00000000000E+00 -0.00000000000E+00 -0.36642595758E+02  0.36642595758E+02  0.00000000000E+00 0.  1.
          6    2    1    2  501    0  0.74427228697E+02 -0.16353560975E+03  0.81458727381E+03  0.85179029051E+03  0.17236868717E+03 0.  0.
         24    2    3    3    0    0  0.97099296972E+01 -0.98843571172E+02  0.25810876006E+03  0.28781882411E+03  0.79719565942E+02 0.  0.
         -6    2    1    2    0  502 -0.74427228697E+02  0.16353560975E+03  0.83442935140E+03  0.87051152622E+03  0.17098148080E+03 0.  0.
        -24    2    5    5    0    0 -0.81457281403E+02  0.36054560148E+02  0.36232890607E+03  0.38142895638E+03  0.79187073340E+02 0.  0.
          5    1    3    3  501    0  0.64717299000E+02 -0.64692038578E+02  0.55647851375E+03  0.56397146640E+03  0.47000000000E+01 0. -1.
        -13    1    4    4    0    0  0.33038165574E+02 -0.93285403543E+02  0.17205261780E+03  0.19848372777E+03  0.00000000000E+00 0.  1.
         14    1    4    4    0    0 -0.23328235877E+02 -0.55581676293E+01  0.86056142255E+02  0.89335096330E+02  0.00000000000E+00 0. -1.
         -5    1    5    5    0  502  0.70300527060E+01  0.12748104960E+03  0.47210044533E+03  0.48908256985E+03  0.47000000000E+01 0.  1.
         13    1    6    6    0    0  0.13928132644E+01  0.10518737192E+02  0.19749805808E+01  0.10792789686E+02  0.00000000000E+00 0. -1.
        -14    1    6    6    0    0 -0.82850094667E+02  0.25535822956E+02  0.36035392549E+03  0.37063616669E+03  0.00000000000E+00 0.  1.
</event>
<event>
12    1  0.8344842E-002  0.1853976E+03  0.7818608E-02  0.1162752E+00
         21   -1    0    0  501  502  0.00000000000E+00  0.00000000000E+00  0.15578052786E+04  0.15578052786E+04  0.00000000000E+00 0. -1.
         21   -1    0    0  502  503 -0.00000000000E+00 -0.00000000000E+00 -0.26957373350E+02  0.26957373350E+02  0.00000000000E+00 0. -1.
         -6    2    1    2    0  503  0.14944918750E+02  0.67732471376E+02  0.42709706250E+03  0.46560085912E+03  0.17193376905E+03 0.  0.
        -24    2    3    3    0    0  0.42869213008E+02  0.22932723153E+02  0.11304796347E+03  0.14711112576E+03  0.80611178277E+02 0.  0.
          6    2    1    2  501    0 -0.14944918750E+02 -0.67732471376E+02  0.11037508427E+04  0.11191617928E+04  0.17159882689E+03 0.  0.
         24    2    5    5    0    0  0.41934496687E+02 -0.40537025605E+02  0.38114222055E+03  0.39379280325E+03  0.80010169032E+02 0.  0.
          5    1    5    5  501    0 -0.56879415437E+02 -0.27195445771E+02  0.72260862218E+03  0.72536898956E+03  0.47000000000E+01 0. -1.
        -13    1    6    6    0    0  0.29912245565E+01 -0.17345361764E+02  0.10722379996E+02  0.20610153610E+02  0.00000000000E+00 0.  1.
         14    1    6    6    0    0  0.38943272130E+02 -0.23191663841E+02  0.37041984056E+03  0.37318264964E+03  0.00000000000E+00 0. -1.
         -5    1    3    3    0  503 -0.27924294257E+02  0.44799748223E+02  0.31404909904E+03  0.31848973336E+03  0.47000000000E+01 0.  1.
         13    1    4    4    0    0  0.47707408067E+02  0.21859741492E+02  0.12424153351E+03  0.13486958045E+03  0.00000000000E+00 0. -1.
        -14    1    4    4    0    0 -0.48381950590E+01  0.10729816608E+01 -0.11193570046E+02  0.12241545305E+02  0.00000000000E+00 0.  1.
</event>
<event>
12    1  0.8344842E-002  0.2700931E+03  0.7818608E-02  0.1101319E+00
         21   -1    0    0  501  502  0.00000000000E+00  0.00000000000E+00  0.12772335785E+03  0.12772335785E+03  0.00000000000E+00 0.  1.
         21   -1    0    0  502  503 -0.00000000000E+00 -0.00000000000E+00 -0.56985823313E+03  0.56985823313E+03  0.00000000000E+00 0.  1.
         -6    2    1    2    0  503  0.70834389804E+02 -0.19582794074E+03 -0.21762149785E+03  0.34685647168E+03  0.17200058856E+03 0.  0.
        -24    2    3    3    0    0  0.52728395170E+02 -0.15406247346E+03 -0.23591226685E+03  0.29757337590E+03  0.79873568900E+02 0.  0.
          6    2    1    2  501    0 -0.70834389804E+02  0.19582794074E+03 -0.22451337743E+03  0.35072511931E+03  0.17098467626E+03 0.  0.
         24    2    5    5    0    0  0.22505973135E+02  0.11342683240E+03 -0.15221559111E+03  0.20667156706E+03  0.78558165187E+02 0.  0.
          5    1    5    5  501    0 -0.93340362939E+02  0.82401108341E+02 -0.72297786316E+02  0.14405355225E+03  0.47000000000E+01 0. -1.
        -11    1    6    6    0    0 -0.17924774048E+02  0.14126933456E+02 -0.31286549410E+01  0.23035977411E+02  0.00000000000E+00 0.  1.
         12    1    6    6    0    0  0.40430747183E+02  0.99299898947E+02 -0.14908693617E+03  0.18363558965E+03  0.00000000000E+00 0. -1.
         -5    1    3    3    0  503  0.18105994634E+02 -0.41765467285E+02  0.18290768997E+02  0.49283095781E+02  0.47000000000E+01 0.  1.
         11    1    4    4    0    0 -0.20059433013E+02 -0.48397235397E+02 -0.57143141942E+02  0.77524266639E+02  0.00000000000E+00 0. -1.
        -12    1    4    4    0    0  0.72787828183E+02 -0.10566523806E+03 -0.17876912491E+03  0.22004910926E+03  0.00000000000E+00 0.  1.
</event>
<event>
12    1  0.8344842E-002  0.2497035E+03  0.7818608E-02  0.1114043E+00
         21   -1    0    0  503  502  0.00000000000E+00  0.00000000000E+00  0.95087229787E+02  0.95087229787E+02  0.00000000000E+00 0. -1.
         21   -1    0    0  501  503 -0.00000000000E+00 -0.00000000000E+00 -0.75717930916E+03  0.75717930916E+03  0.00000000000E+00 0. -1.
          6    2    1    2  501    0  0.10813631637E+03  0.14542581117E+03 -0.49185296797E+03  0.55005268380E+03  0.16672277404E+03 0.  0.
         24    2    3    3    0    0  0.11828142798E+02  0.10884642489E+03 -0.33542747383E+03  0.36269115889E+03  0.83939486352E+02 0.  0.
         -6    2    1    2    0  502 -0.10813631637E+03 -0.14542581117E+03 -0.17023911140E+03  0.30221385514E+03  0.17178396234E+03 0.  0.
        -24    2    5    5    0    0 -0.11062740710E+03 -0.81185217162E+02 -0.49100647932E+02  0.16499258572E+03  0.77344793147E+02 0.  0.
          5    1    3    3  501    0  0.96308173575E+02  0.36579386285E+02 -0.15642549415E+03  0.18736152491E+03  0.47000000000E+01 0. -1.
        -13    1    4    4    0    0 -0.32919141791E+02  0.20096385245E+02 -0.93825068778E+02  0.10144297968E+03  0.00000000000E+00 0.  1.
         14    1    4    4    0    0  0.44747284589E+02  0.88750039643E+02 -0.24160240505E+03  0.26124817921E+03  0.00000000000E+00 0. -1.
         -5    1    5    5    0  502  0.24910907247E+01 -0.64240594011E+02 -0.12113846347E+03  0.13722126943E+03  0.47000000000E+01 0.  1.
         13    1    6    6    0    0 -0.10431811907E+03 -0.33811069283E+02 -0.36354019001E+02  0.11552953332E+03  0.00000000000E+00 0. -1.
        -14    1    6    6    0    0 -0.63092880254E+01 -0.47374147879E+02 -0.12746628931E+02  0.49463052390E+02  0.00000000000E+00 0.  1.
</event>
<event>
12    1  0.8344842E-002  0.1947232E+03  0.7818608E-02  0.1154766E+00
         21   -1    0    0  501  502  0.00000000000E+00  0.00000000000E+00  0.67482507374E+03  0.67482507374E+03  0.00000000000E+00 0. -1.
         21   -1    0    0  502  503 -0.00000000000E+00 -0.00000000000E+00 -0.62266465638E+02  0.62266465638E+02  0.00000000000E+00 0. -1.
         -6    2    1    2    0  503  0.25456541403E+02 -0.81236856491E+02  0.18353574695E+03  0.26594642127E+03  0.17261131545E+03 0.  0.
        -24    2    3    3    0    0  0.44925051285E+02 -0.37213738595E+02  0.27751238258E+02  0.10282695298E+03  0.80000802873E+02 0.  0.
          6    2    1    2  501    0 -0.25456541403E+02  0.81236856491E+02  0.42902286115E+03  0.47114511811E+03  0.17512750949E+03 0.  0.
         24    2    5    5    0    0  0.68282374168E+01  0.69709523305E+02  0.12046786988E+03  0.16065605391E+03  0.79948843129E+02 0.  0.
          5    1    5    5  501    0 -0.32284778820E+02  0.11527333186E+02  0.30855499127E+03  0.31048906421E+03  0.47000000000E+01 0. -1.
        -13    1    6    6    0    0 -0.83612940017E+01 -0.26761692349E+01 -0.83493861743E+01  0.12115501172E+02  0.00000000000E+00 0.  1.
         14    1    6    6    0    0  0.15189531418E+02  0.72385692540E+02  0.12881725606E+03  0.14854055274E+03  0.00000000000E+00 0. -1.
         -5    1    3    3    0  503 -0.19468509882E+02 -0.44023117897E+02  0.15578450869E+03  0.16311946829E+03  0.47000000000E+01 0.  1.
         11    1    4    4    0    0  0.67169355385E+00  0.23667684232E+02  0.82839294816E+01  0.25084535810E+02  0.00000000000E+00 0. -1.
        -12    1    4    4    0    0  0.44253357731E+02 -0.60881422827E+02  0.19467308776E+02  0.77742417166E+02  0.00000000000E+00 0.  1.
</event>
<event>
12    1  0.8344842E-002  0.1840483E+03  0.7818608E-02  0.1165211E+00
         21   -1    0    0  501  502  0.00000000000E+00  0.00000000000E+00  0.42685428816E+02  0.42685428816E+02  0.00000000000E+00 0. -1.
         21   -1    0    0  502  503 -0.00000000000E+00 -0.00000000000E+00 -0.84914144299E+03  0.84914144299E+03  0.00000000000E+00 0. -1.
         -6    2    1    2    0  503  0.50066945113E+02  0.10429171149E+02 -0.54401165358E+03  0.57430171803E+03  0.17680021918E+03 0.  0.
        -24    2    3    3    0    0 -0.22911618297E+02  0.49343768825E+02 -0.29073546121E+03  0.30782257016E+03  0.85251841744E+02 0.  0.
          6    2    1    2  501    0 -0.50066945113E+02 -0.10429171149E+02 -0.26244436059E+03  0.31752515377E+03  0.17125920199E+03 0.  0.
         24    2    5    5    0    0  0.18126293755E+02 -0.81151262711E+01 -0.22524346675E+03  0.23966843194E+03  0.79447593785E+02 0.  0.
          5    1    5    5  501    0 -0.68193238868E+02 -0.23140448777E+01 -0.37200893849E+02  0.77856721830E+02  0.47000000000E+01 0. -1.
        -13    1    6    6    0    0 -0.68883025248E+01 -0.26979054750E+02 -0.19192123907E+03  0.19393060644E+03  0.00000000000E+00 0.  1.
         14    1    6    6    0    0  0.25014596280E+02  0.18863928479E+02 -0.33322227677E+02  0.45737825506E+02  0.00000000000E+00 0. -1.
         -5    1    3    3    0  503  0.72978563410E+02 -0.38914597676E+02 -0.25327619237E+03  0.26647914788E+03  0.47000000000E+01 0.  1.
         11    1    4    4    0    0 -0.42179264724E+02  0.11372480334E+02 -0.22704583003E+03  0.23121036442E+03  0.00000000000E+00 0. -1.
        -12    1    4    4    0    0  0.19267646428E+02  0.37971288492E+02 -0.63689631180E+02  0.76612205740E+02  0.00000000000E+00 0.  1.
</event>
<event>
12    1  0.8344842E-002  0.1971244E+03  0.7818608E-02  0.1152522E+00
         21   -1    0    0  503  502  0.00000000000E+00  0.00000000000E+00  0.62792070454E+03  0.62792070454E+03  0.00000000000E+00 0. -1.
         21   -1    0    0  501  503 -0.00000000000E+00 -0.00000000000E+00 -0.62097745209E+02  0.62097745209E+02  0.00000000000E+00 0.  1.
          6    2    1    2  501    0  0.76546763107E+02  0.54091160082E+02  0.24520170724E+03  0.31364628907E+03  0.17165330429E+03 0.  0.
         24    2    3    3    0    0  0.58717198643E+02 -0.26551491562E+01  0.51211739177E+02  0.11068758714E+03  0.78576971715E+02 0.  0.
         -6    2    1    2    0  502 -0.76546763107E+02 -0.54091160082E+02  0.32062125209E+03  0.37637216068E+03  0.17341498061E+03 0.  0.
        -24    2    5    5    0    0  0.19891958595E+02  0.49458889830E+01  0.16967862071E+03  0.18771488365E+03  0.77626615178E+02 0.  0.
          5    1    3    3  501    0  0.17829564464E+02  0.56746309238E+02  0.19398996806E+03  0.20295870193E+03  0.47000000000E+01 0. -1.
        -11    1    4    4    0    0  0.34923438040E+02  0.36490466948E+02  0.37375121451E+02  0.62833911275E+02  0.00000000000E+00 0.  1.
         12    1    4    4    0    0  0.23793760603E+02 -0.39145616104E+02  0.13836617725E+02  0.47853675866E+02  0.00000000000E+00 0. -1.
         -5    1    5    5    0  502 -0.96438721702E+02 -0.59037049065E+02  0.15094263138E+03  0.18865727702E+03  0.47000000000E+01 0.  1.
         13    1    6    6    0    0 -0.17077014305E+02 -0.26600095887E+02  0.70957154819E+02  0.77679516855E+02  0.00000000000E+00 0. -1.
        -14    1    6    6    0    0  0.36968972899E+02  0.31545984870E+02  0.98721465892E+02  0.11003536680E+03  0.00000000000E+00 0.  1.
</event>
<event>
12    1  0.8344842E-002  0.2157703E+03  0.7818608E-02  0.1137316E+00
         21   -1    0    0  501  502  0.00000000000E+00  0.00000000000E+00  0.63318578310E+02  0.63318578310E+02  0.00000000000E+00 0.  1.
         21   -1    0    0  502  503 -0.00000000000E+00 -0.00000000000E+00 -0.87356069933E+03  0.87356069933E+03  0.00000000000E+00 0.  1.
         -6    2    1    2    0  503  0.74765769499E+02 -0.10445089212E+03 -0.21688619054E+03  0.30593537933E+03  0.17336933849E+03 0.  0.
        -24    2    3    3    0    0  0.49210734805E+01 -0.56950872437E+02 -0.19660918743E+03  0.21894238946E+03  0.77543397424E+02 0.  0.
          6    2    1    2  501    0 -0.74765769499E+02  0.10445089212E+03 -0.59335593049E+03  0.63094389831E+03  0.17181103986E+03 0.  0.
         24    2    5    5    0    0 -0.76559345549E+02  0.20746103082E+02 -0.45484373080E+03  0.46902593117E+03  0.82527392247E+02 0.  0.
          5    1    5    5  501    0  0.17935760495E+01  0.83704789039E+02 -0.13851219968E+03  0.16191796714E+03  0.47000000000E+01 0. -1.
        -13    1    6    6    0    0 -0.93538033956E+02  0.19730054167E+02 -0.35040035524E+03  0.36320661859E+03  0.00000000000E+00 0.  1.
         14    1    6    6    0    0  0.16978688407E+02  0.10160489152E+01 -0.10444337557E+03  0.10581931258E+03  0.00000000000E+00 0. -1.
         -5    1    3    3    0  503  0.69844696019E+02 -0.47500019684E+02 -0.20277003102E+02  0.86992989871E+02  0.47000000000E+01 0.  1.
         11    1    4    4    0    0  0.38610321013E+02 -0.13574245269E+02 -0.73226617560E+02  0.83887749657E+02  0.00000000000E+00 0. -1.
        -12    1    4    4    0    0 -0.33689247532E+02 -0.43376627168E+02 -0.12338256987E+03  0.13505463980E+03  0.00000000000E+00 0.  1.
</event>
<event>
12    1  0.8344842E-002  0.1830666E+03  0.7818608E-02  0.1166974E+00
         21   -1    0    0  503  502  0.00000000000E+00  0.00000000000E+00  0.19144888687E+03  0.19144888687E+03  0.00000000000E+00 0. -1.
         21   -1    0    0  501  503 -0.00000000000E+00 -0.00000000000E+00 -0.16852425892E+03  0.16852425892E+03  0.00000000000E+00 0. -1.
          6    2    1    2  501    0 -0.56753612771E+02 -0.37455295357E+02  0.29621481327E+02  0.18544761800E+03  0.16996915942E+03 0.  0.
         24    2    3    3    0    0 -0.27513281346E+02  0.36105757477E+02 -0.22421480946E+00  0.10071816000E+03  0.89908237150E+02 0.  0.
         -6    2    1    2    0  502  0.56753612771E+02  0.37455295357E+02 -0.66968533818E+01  0.17452552779E+03  0.16059402321E+03 0.  0.
        -24    2    5    5    0    0  0.98329758334E+02  0.30453756332E+02  0.50630709021E+01  0.13050299665E+03  0.80057634235E+02 0.  0.
          5    1    3    3  501    0 -0.29240331425E+02 -0.73561052834E+02  0.29845696137E+02  0.84729458005E+02  0.47000000000E+01 0. -1.
        -13    1    4    4    0    0 -0.91910684214E+01  0.54076359661E+02  0.28817959107E+02  0.61961303892E+02  0.00000000000E+00 0.  1.
         14    1    4    4    0    0 -0.18322212925E+02 -0.17970602184E+02 -0.29042173917E+02  0.38756856105E+02  0.00000000000E+00 0. -1.
         -5    1    5    5    0  502 -0.41576145563E+02  0.70015390250E+01 -0.11759924284E+02  0.44022531138E+02  0.47000000000E+01 0.  1.
         11    1    6    6    0    0  0.53814503180E+02  0.36870826057E+02  0.37321078628E+02  0.75155315691E+02  0.00000000000E+00 0. -1.
        -12    1    6    6    0    0  0.44515255154E+02 -0.64170697248E+01 -0.32258007726E+02  0.55347680961E+02  0.00000000000E+00 0.  1.
</event>
<event>
12    1  0.8344842E-002  0.1827472E+03  0.7818608E-02  0.1165374E+00
         21   -1    0    0  503  502  0.00000000000E+00  0.00000000000E+00  0.15803032799E+03  0.15803032799E+03  0.00000000000E+00 0. -1.
         21   -1    0    0  501  503 -0.00000000000E+00 -0.00000000000E+00 -0.26902045246E+03  0.26902045246E+03  0.00000000000E+00 0. -1.
          6    2    1    2  501    0  0.27320109262E+02 -0.52099384288E+02 -0.15532166764E+03  0.23983611688E+03  0.17301967607E+03 0.  0.
         24    2    3    3    0    0 -0.43768415361E+02 -0.62884184452E+01 -0.11218973257E+03  0.14478520028E+03  0.80131140858E+02 0.  0.
         -6    2    1    2    0  502 -0.27320109262E+02  0.52099384288E+02  0.44331543180E+02  0.18721466357E+03  0.17211423625E+03 0.  0.
        -24    2    5    5    0    0 -0.10017380157E+02  0.76078275346E+02  0.82592159958E+02  0.13863136966E+03  0.80678001226E+02 0.  0.
          5    1    3    3  501    0  0.71088524623E+02 -0.45810965843E+02 -0.43131935073E+02  0.95050916606E+02  0.47000000000E+01 0. -1.
        -11    1    4    4    0    0  0.15489808116E+01  0.26088366336E+02 -0.92105477339E+01  0.27709860866E+02  0.00000000000E+00 0.  1.
         12    1    4    4    0    0 -0.45317396173E+02 -0.32376784781E+02 -0.10297918484E+03  0.11707533941E+03  0.00000000000E+00 0. -1.
         -5    1    5    5    0  502 -0.17302729105E+02 -0.23978891058E+02 -0.38260616777E+02  0.48583293909E+02  0.47000000000E+01 0.  1.
         11    1    6    6    0    0  0.20479922608E+02  0.46636874638E+01  0.50339752793E+02  0.54546016556E+02  0.00000000000E+00 0. -1.
        -12    1    6    6    0    0 -0.30497302766E+02  0.71414587882E+02  0.32252407164E+02  0.84085353102E+02  0.00000000000E+00 0.  1.
</event>
<event>
12    1  0.8344842E-002  0.2620499E+03  0.7818608E-02  0.1106026E+00
         21   -1    0    0  503  502  0.00000000000E+00  0.00000000000E+00  0.14762224941E+03  0.14762224941E+03  0.00000000000E+00 0.  1.
         21   -1    0    0  501  503 -0.00000000000E+00 -0.00000000000E+00 -0.47594180666E+03  0.47594180666E+03  0.00000000000E+00 0.  1.
          6    2    1    2  501    0 -0.14850317193E+03  0.13002843430E+03 -0.21354906895E+03  0.33748296732E+03  0.17126284648E+03 0.  0.
         24    2    3    3    0    0 -0.11793685916E+03  0.43903959911E+02 -0.63355956832E+02  0.16160862157E+03  0.79162547049E+02 0.  0.
         -6    2    1    2    0  502  0.14850317193E+03 -0.13002843430E+03 -0.11477048830E+03  0.28608108875E+03  0.17236455134E+03 0.  0.
        -24    2    5    5    0    0  0.44765444975E+02 -0.46176181284E+01 -0.76635442695E+02  0.11885142479E+03  0.78913893808E+02 0.  0.
          5    1    3    3  501    0 -0.30566312767E+02  0.86124474387E+02 -0.15019311212E+03  0.17587434575E+03  0.47000000000E+01 0. -1.
        -11    1    4    4    0    0 -0.91613655240E+01  0.72329192627E+01 -0.43593728841E+02  0.45129357779E+02  0.00000000000E+00 0.  1.
         12    1    4    4    0    0 -0.10877549364E+03  0.36671040648E+02 -0.19762227991E+02  0.11647926379E+03  0.00000000000E+00 0. -1.
         -5    1    5    5    0  502  0.10373772695E+03 -0.12541081617E+03 -0.38135045601E+02  0.16722966396E+03  0.47000000000E+01 0.  1.
         11    1    6    6    0    0  0.14698746268E+02 -0.57573270804E+01  0.15381192878E+02  0.22040441269E+02  0.00000000000E+00 0. -1.
        -12    1    6    6    0    0  0.30066698707E+02  0.11397089519E+01 -0.92016635573E+02  0.96810983519E+02  0.00000000000E+00 0.  1.
</event>
<event>
12    1  0.8344842E-002  0.1736167E+03  0.7818608E-02  0.1174166E+00
         21   -1    0    0  501  502  0.00000000000E+00  0.00000000000E+00  0.10609016287E+04  0.10609016287E+04  0.00000000000E+00 0.  1.
         21   -1    0    0  502  503 -0.00000000000E+00 -0.00000000000E+00 -0.84871215107E+02  0.84871215107E+02  0.00000000000E+00 0.  1.
         -6    2    1    2    0  503  0.17514756988E+02 -0.21891529248E+02  0.95544380172E+03  0.97108991910E+03  0.17133816552E+03 0.  0.
        -24    2    3    3    0    0  0.53463321684E+02  0.19973986440E+02  0.36293787155E+03  0.37600136434E+03  0.79973998813E+02 0.  0.
          6    2    1    2  501    0 -0.17514756988E+02  0.21891529248E+02  0.20586611841E+02  0.17468292468E+03  0.17118501635E+03 0.  0.
         24    2    5    5    0    0 -0.12249422961E+02 -0.40413210727E+02 -0.27849421229E+02  0.95450711119E+02  0.80944252583E+02 0.  0.
          5    1    5    5  501    0 -0.52653340267E+01  0.62304739975E+02  0.48436033070E+02  0.79232213558E+02  0.47000000000E+01 0. -1.
        -11    1    6    6    0    0 -0.44227184332E+02 -0.70122517157E+01 -0.17418677523E+02  0.48048161616E+02  0.00000000000E+00 0.  1.
         12    1    6    6    0    0  0.31977761371E+02 -0.33400959011E+02 -0.10430743707E+02  0.47402549503E+02  0.00000000000E+00 0. -1.
         -5    1    3    3    0  503 -0.35948564696E+02 -0.41865515688E+02  0.59250593017E+03  0.59508855475E+03  0.47000000000E+01 0.  1.
         11    1    4    4    0    0 -0.18871016447E+02 -0.62120506085E+01  0.10387709561E+03  0.10575989707E+03  0.00000000000E+00 0. -1.
        -12    1    4    4    0    0  0.72334338131E+02  0.26186037049E+02  0.25906077593E+03  0.27024146728E+03  0.00000000000E+00 0.  1.
</event>
<event>
12    1  0.8344842E-002  0.1766080E+03  0.7818608E-02  0.1172967E+00
         21   -1    0    0  501  502  0.00000000000E+00  0.00000000000E+00  0.68765190651E+02  0.68765190651E+02  0.00000000000E+00 0.  1.
         21   -1    0    0  502  503 -0.00000000000E+00 -0.00000000000E+00 -0.62602138243E+03  0.62602138243E+03  0.00000000000E+00 0.  1.
         -6    2    1    2    0  503  0.49118785596E+01  0.10432191812E+02 -0.47448504091E+03  0.50628693121E+03  0.17623122735E+03 0.  0.
        -24    2    3    3    0    0 -0.54475823997E+02  0.21722974315E+02 -0.17717633159E+03  0.20285829113E+03  0.79501765969E+02 0.  0.
          6    2    1    2  501    0 -0.49118785596E+01 -0.10432191812E+02 -0.82771150871E+02  0.18849964187E+03  0.16896181341E+03 0.  0.
         24    2    5    5    0    0  0.57345551885E+02 -0.27677808795E+02 -0.39592849803E+02  0.11065457373E+03  0.81377315700E+02 0.  0.
          5    1    5    5  501    0 -0.62257430445E+02  0.17245616984E+02 -0.43178301068E+02  0.77845068141E+02  0.47000000000E+01 0. -1.
        -13    1    6    6    0    0 -0.17320197338E+02 -0.22525918902E+02 -0.12734656755E+02  0.31138043305E+02  0.00000000000E+00 0.  1.
         14    1    6    6    0    0  0.74665749223E+02 -0.51518898930E+01 -0.26858193049E+02  0.79516530422E+02  0.00000000000E+00 0. -1.
         -5    1    3    3    0  503  0.59387702557E+02 -0.11290782503E+02 -0.29730870932E+03  0.30342864008E+03  0.47000000000E+01 0.  1.
         11    1    4    4    0    0 -0.18849063715E+02 -0.38710472412E+00 -0.15360378940E+03  0.15475645760E+03  0.00000000000E+00 0. -1.
        -12    1    4    4    0    0 -0.35626760282E+02  0.22110079039E+02 -0.23572542193E+02  0.48101833528E+02  0.00000000000E+00 0.  1.
</event>
<event>
12    1  0.8344842E-002  0.2009811E+03  0.7818608E-02  0.1149147E+00
         21   -1    0    0  501  502  0.00000000000E+00  0.00000000000E+00  0.38911825309E+03  0.38911825309E+03  0.00000000000E+00 0.  1.
         21   -1    0    0  502  503 -0.00000000000E+00 -0.00000000000E+00 -0.22900504769E+03  0.22900504769E+03  0.00000000000E+00 0.  1.
         -6    2    1    2    0  503 -0.58751226224E+02 -0.86851176969E+02 -0.14908227022E+03  0.24934795341E+03  0.17015888179E+03 0.  0.
        -24    2    3    3    0    0 -0.93230870087E+00  0.13838861342E+02 -0.40867044073E+02  0.90558356116E+02  0.79613549654E+02 0.  0.
          6    2    1    2  501    0  0.58751226224E+02  0.86851176969E+02  0.30919547562E+03  0.36877534738E+03  0.17146014454E+03 0.  0.
         24    2    5    5    0    0 -0.24623300710E+02  0.46704266841E+02  0.21807267800E+03  0.23881943031E+03  0.81801173135E+02 0.  0.
          5    1    5    5  501    0  0.83374526934E+02  0.40146910128E+02  0.91122797619E+02  0.12995591706E+03  0.47000000000E+01 0. -1.
        -13    1    6    6    0    0 -0.38058857467E+01  0.57903476881E+02  0.20216083777E+03  0.21032427755E+03  0.00000000000E+00 0.  1.
         14    1    6    6    0    0 -0.20817414963E+02 -0.11199210040E+02  0.15911840231E+02  0.28495152759E+02  0.00000000000E+00 0. -1.
         -5    1    3    3    0  503 -0.57818917523E+02 -0.10069003831E+03 -0.10821522615E+03  0.15878959729E+03  0.47000000000E+01 0.  1.
         11    1    4    4    0    0 -0.32061810924E+02  0.30899918916E+02 -0.28955900125E+02  0.53115053052E+02  0.00000000000E+00 0. -1.
        -12    1    4    4    0    0  0.31129502223E+02 -0.17061057574E+02 -0.11911143948E+02  0.37443303064E+02  0.00000000000E+00 0.  1.
</event>
<event>
12    1  0.8344842E-002  0.5131938E+03  0.7818608E-02  0.1010412E+00
         21   -1    0    0  501  502  0.00000000000E+00  0.00000000000E+00  0.27234795853E+03  0.27234795853E+03  0.00000000000E+00 0.  1.
         21   -1    0    0  502  503 -0.00000000000E+00 -0.00000000000E+00 -0.97080402595E+03  0.97080402595E+03  0.00000000000E+00 0. -1.
         -6    2    1    2    0  503  0.58781836508E+02 -0.48006109183E+03 -0.30737577018E+03  0.59792977907E+03  0.17066399859E+03 0.  0.
        -24    2    3    3    0    0 -0.10550118929E+01 -0.29310751613E+03 -0.24701653077E+03  0.39250968348E+03  0.84460381758E+02 0.  0.
          6    2    1    2  501    0 -0.58781836508E+02  0.48006109183E+03 -0.39108029724E+03  0.64522220541E+03  0.17162150002E+03 0.  0.
         24    2    5    5    0    0 -0.88626578762E+02  0.19211566898E+03 -0.14685748075E+03  0.26644766921E+03  0.68294509613E+02 0.  0.
          5    1    5    5  501    0  0.29844742253E+02  0.28794542285E+03 -0.24422281648E+03  0.37877453620E+03  0.47000000000E+01 0. -1.
        -13    1    6    6    0    0 -0.96425129692E+02  0.15564703182E+03 -0.13440288958E+03  0.22712978862E+03  0.00000000000E+00 0.  1.
         14    1    6    6    0    0  0.77985509301E+01  0.36468637158E+02 -0.12454591174E+02  0.39317880590E+02  0.00000000000E+00 0. -1.
         -5    1    3    3    0  503  0.59836848401E+02 -0.18695357569E+03 -0.60359239415E+02  0.20542009559E+03  0.47000000000E+01 0.  1.
         13    1    4    4    0    0 -0.40793963316E+02 -0.14426525737E+03 -0.10551270804E+03  0.18332905794E+03  0.00000000000E+00 0. -1.
        -14    1    4    4    0    0  0.39738951423E+02 -0.14884225877E+03 -0.14150382272E+03  0.20918062554E+03  0.00000000000E+00 0.  1.
</event>
<event>
12    1  0.8344842E-002  0.2017851E+03  0.7818608E-02  0.1148261E+00
         21   -1    0    0  501  502  0.00000000000E+00  0.00000000000E+00  0.81813174302E+02  0.81813174302E+02  0.00000000000E+00 0.  1.
         21   -1    0    0  502  503 -0.00000000000E+00 -0.00000000000E+00 -0.66257448937E+03  0.66257448937E+03  0.00000000000E+00 0.  1.
         -6    2    1    2    0  503 -0.10583248489E+03  0.61671006388E+01 -0.47623378502E+03  0.51721933956E+03  0.17169356200E+03 0.  0.
        -24    2    3    3    0    0 -0.83027990455E+02  0.31738393566E+02 -0.16170901601E+03  0.20079896047E+03  0.79179819642E+02 0.  0.
          6    2    1    2  501    0  0.10583248489E+03 -0.61671006388E+01 -0.10452753005E+03  0.22716832411E+03  0.17158349266E+03 0.  0.
         24    2    5    5    0    0  0.78857882006E+02  0.36686673268E+02 -0.12518852821E+03  0.17227714100E+03  0.80266855959E+02 0.  0.
          5    1    5    5  501    0  0.26974602886E+02 -0.42853773907E+02  0.20660998159E+02  0.54891183115E+02  0.47000000000E+01 0. -1.
        -13    1    6    6    0    0  0.19836564044E+02  0.51872104265E+02 -0.44531047623E+02  0.71184399108E+02  0.00000000000E+00 0.  1.
         14    1    6    6    0    0  0.59021317961E+02 -0.15185430997E+02 -0.80657480585E+02  0.10109274189E+03  0.00000000000E+00 0. -1.
         -5    1    3    3    0  503 -0.22804494436E+02 -0.25571292927E+02 -0.31452476900E+03  0.31642037909E+03  0.47000000000E+01 0.  1.
         11    1    4    4    0    0  0.95454124895E+00 -0.46192843222E+01  0.72490505223E+01  0.86485646277E+01  0.00000000000E+00 0. -1.
        -12    1    4    4    0    0 -0.83982531704E+02  0.36357677888E+02 -0.16895806654E+03  0.19215039584E+03  0.00000000000E+00 0.  1.
</event>
<event>
12    1  0.8344842E-002  0.2376278E+03  0.7818608E-02  0.1122273E+00
         21   -1    0    0  503  502  0.00000000000E+00  0.00000000000E+00  0.39087449072E+03  0.39087449072E+03  0.00000000000E+00 0. -1.
         21   -1    0    0  501  503 -0.00000000000E+00 -0.00000000000E+00 -0.14189018462E+03  0.14189018462E+03  0.00000000000E+00 0. -1.
          6    2    1    2  501    0 -0.16381374603E+03 -0.57550317532E+01  0.14289025692E+03  0.27728073571E+03  0.17204335819E+03 0.  0.
         24    2    3    3    0    0 -0.42419435122E+02 -0.47039833465E+02  0.31961481695E+02  0.10766854056E+03  0.80986566202E+02 0.  0.
         -6    2    1    2    0  502  0.16381374603E+03  0.57550317532E+01  0.10609404918E+03  0.25548393963E+03  0.16476659965E+03 0.  0.
        -24    2    5    5    0    0  0.16862511623E+03  0.12832500051E+02  0.13135407458E+03  0.22840260429E+03  0.79465425561E+02 0.  0.
          5    1    3    3  501    0 -0.12139431091E+03  0.41284801712E+02  0.11092877522E+03  0.16961219516E+03  0.47000000000E+01 0. -1.
        -11    1    4    4    0    0 -0.44356843038E+02 -0.61280791576E+02  0.45203389725E+02  0.88126110677E+02  0.00000000000E+00 0.  1.
         12    1    4    4    0    0  0.19374079154E+01  0.14240958111E+02 -0.13241908030E+02  0.19542429880E+02  0.00000000000E+00 0. -1.
         -5    1    5    5    0  502 -0.48113701954E+01 -0.70774682978E+01 -0.25260025398E+02  0.27081335340E+02  0.47000000000E+01 0.  1.
         13    1    6    6    0    0  0.11758800222E+03  0.41476143294E+02  0.67505912415E+02  0.14178948106E+03  0.00000000000E+00 0. -1.
        -14    1    6    6    0    0  0.51037114003E+02 -0.28643643242E+02  0.63848162161E+02  0.86613123227E+02  0.00000000000E+00 0.  1.
</event>
<event>
12    1  0.8344842E-002  0.1811480E+03  0.7818608E-02  0.1167024E+00
         21   -1    0    0  501  502  0.00000000000E+00  0.00000000000E+00  0.26452901752E+03  0.26452901752E+03  0.00000000000E+00 0.  1.
         21   -1    0    0  502  503 -0.00000000000E+00 -0.00000000000E+00 -0.41918236463E+03  0.41918236463E+03  0.00000000000E+00 0. -1.
         -6    2    1    2    0  503 -0.51893822373E+02 -0.24855531803E+02 -0.36453871178E+03  0.40646338122E+03  0.17033273797E+03 0.  0.
        -24    2    3    3    0    0 -0.15801318881E+02 -0.25731315389E+02 -0.35914668562E+03  0.36965849362E+03  0.82153988573E+02 0.  0.
          6    2    1    2  501    0  0.51893822373E+02  0.24855531803E+02  0.20988536466E+03  0.27724800094E+03  0.17176676472E+03 0.  0.
         24    2    5    5    0    0 -0.14176518075E+02 -0.21903070761E+02  0.12801311447E+03  0.16202295092E+03  0.95829854295E+02 0.  0.
          5    1    5    5  501    0  0.66070340448E+02  0.46758602565E+02  0.81872250184E+02  0.11522505001E+03  0.47000000000E+01 0. -1.
        -11    1    6    6    0    0  0.51306396441E+01 -0.28430477367E+02  0.13680838434E+03  0.13982542520E+03  0.00000000000E+00 0.  1.
         12    1    6    6    0    0 -0.19307157719E+02  0.65274066060E+01 -0.87952698649E+01  0.22197525722E+02  0.00000000000E+00 0. -1.
         -5    1    3    3    0  503 -0.36092503491E+02  0.87578358582E+00 -0.53920261517E+01  0.36804887599E+02  0.47000000000E+01 0.  1.
         11    1    4    4    0    0 -0.38195018355E+01 -0.55237973959E+02 -0.21266835523E+03  0.21975816635E+03  0.00000000000E+00 0. -1.
        -12    1    4    4    0    0 -0.11981817046E+02  0.29506658570E+02 -0.14647833040E+03  0.14990032727E+03  0.00000000000E+00 0.  1.
</event>
<event>
12    1  0.8344842E-002  0.1830499E+03  0.7818608E-02  0.1165097E+00
         21   -1    0    0  501  502  0.00000000000E+00  0.00000000000E+00  0.87746740827E+02  0.87746740827E+02  0.00000000000E+00 0. -1.
         21   -1    0    0  502  503 -0.00000000000E+00 -0.00000000000E+00 -0.38247006983E+03  0.38247006983E+03  0.00000000000E+00 0. -1.
         -6    2    1    2    0  503 -0.58636889058E+02 -0.18784550702E+02 -0.16592102750E+03  0.24639257384E+03  0.17143036188E+03 0.  0.
        -24    2    3    3    0    0 -0.84001637959E+02 -0.54432235525E+02 -0.86563342021E+02  0.15565195358E+03  0.81946171528E+02 0.  0.
          6    2    1    2  501    0  0.58636889058E+02  0.18784550702E+02 -0.12880230150E+03  0.22382423681E+03  0.17238361874E+03 0.  0.
         24    2    5    5    0    0  0.62724133694E+02 -0.47506235221E+02 -0.58866359734E+02  0.12726182271E+03  0.80865096788E+02 0.  0.
          5    1    5    5  501    0 -0.40872446355E+01  0.66290785923E+02 -0.69935941762E+02  0.96562414101E+02  0.47000000000E+01 0. -1.
        -11    1    6    6    0    0  0.52013289789E+02 -0.19903515317E+01 -0.61326414850E+02  0.80438007013E+02  0.00000000000E+00 0.  1.
         12    1    6    6    0    0  0.10710843905E+02 -0.45515883689E+02  0.24600551167E+01  0.46823815696E+02  0.00000000000E+00 0. -1.
         -5    1    3    3    0  503  0.25364748901E+02  0.35647684823E+02 -0.79357685482E+02  0.90740620260E+02  0.47000000000E+01 0.  1.
         13    1    4    4    0    0 -0.33041975746E+02 -0.19032736771E+02  0.11304676958E+02  0.39772012161E+02  0.00000000000E+00 0. -1.
        -14    1    4    4    0    0 -0.50959662213E+02 -0.35399498754E+02 -0.97868018979E+02  0.11587994142E+03  0.00000000000E+00 0.  1.
</event>
<event>
12    1  0.8344842E-002  0.1936262E+03  0.7818608E-02  0.1156299E+00
         21   -1    0    0  503  502  0.00000000000E+00  0.00000000000E+00  0.14222807610E+03  0.14222807610E+03  0.00000000000E+00 0. -1.
         21   -1    0    0  501  503 -0.00000000000E+00 -0.00000000000E+00 -0.29721705830E+03  0.29721705830E+03  0.00000000000E+00 0. -1.
          6    2    1    2  501    0 -0.54337894922E+02 -0.39062168534E+02 -0.15903589851E+03  0.25056638253E+03  0.18169379517E+03 0.  0.
         24    2    3    3    0    0 -0.61083939372E+02 -0.94362966256E+02 -0.11942973921E+03  0.18205050701E+03  0.79014602719E+02 0.  0.
         -6    2    1    2    0  502  0.54337894922E+02  0.39062168534E+02  0.40469163083E+01  0.18887875187E+03  0.17657957283E+03 0.  0.
        -24    2    5    5    0    0  0.11264610733E+02  0.17154636999E+02  0.67546175653E+02  0.10894444331E+03  0.82977303260E+02 0.  0.
          5    1    3    3  501    0  0.67460444509E+01  0.55300797722E+02 -0.39606159296E+02  0.68515875523E+02  0.47000000000E+01 0. -1.
        -13    1    4    4    0    0 -0.28403375001E+02 -0.51284066797E+02 -0.92932033147E+01  0.59356304185E+02  0.00000000000E+00 0.  1.
         14    1    4    4    0    0 -0.32680564372E+02 -0.43078899459E+02 -0.11013653590E+03  0.12269420282E+03  0.00000000000E+00 0. -1.
         -5    1    5    5    0  502  0.43073284188E+02  0.21907531535E+02 -0.63499259345E+02  0.79934308567E+02  0.47000000000E+01 0.  1.
         13    1    6    6    0    0 -0.95284958363E+00 -0.33411574773E+02  0.27863045473E+02  0.43515405941E+02  0.00000000000E+00 0. -1.
        -14    1    6    6    0    0  0.12217460317E+02  0.50566211772E+02  0.39683130180E+02  0.65429037365E+02  0.00000000000E+00 0.  1.
</event>
<event>
12    1  0.8344842E-002  0.2316121E+03  0.7818608E-02  0.1125787E+00
         21   -1    0    0  501  502  0.00000000000E+00  0.00000000000E+00  0.66179137035E+02  0.66179137035E+02  0.00000000000E+00 0. -1.
         21   -1    0    0  502  503 -0.00000000000E+00 -0.00000000000E+00 -0.81126346553E+03  0.81126346553E+03  0.00000000000E+00 0.  1.
         -6    2    1    2    0  503  0.35827407589E+02  0.15101426677E+03 -0.33544921062E+03  0.40763995419E+03  0.17191639666E+03 0.  0.
        -24    2    3    3    0    0 -0.21112887389E+02  0.90600430208E+02 -0.10178893968E+03  0.15962535571E+03  0.80405683736E+02 0.  0.
          6    2    1    2  501    0 -0.35827407589E+02 -0.15101426677E+03 -0.40963511788E+03  0.46980264838E+03  0.16977834586E+03 0.  0.
         24    2    5    5    0    0 -0.25773054005E+02 -0.41614385734E+02 -0.30031686650E+03  0.31474783845E+03  0.80498286284E+02 0.  0.
          5    1    5    5  501    0 -0.10054353584E+02 -0.10939988104E+03 -0.10931825138E+03  0.15505480993E+03  0.47000000000E+01 0. -1.
        -13    1    6    6    0    0  0.21911978790E+02 -0.32621197111E+02 -0.19314209057E+03  0.19709932639E+03  0.00000000000E+00 0.  1.
         14    1    6    6    0    0 -0.47685032795E+02 -0.89931886231E+01 -0.10717477593E+03  0.11764851206E+03  0.00000000000E+00 0. -1.
         -5    1    3    3    0  503  0.56940294977E+02  0.60413836565E+02 -0.23366027094E+03  0.24801459848E+03  0.47000000000E+01 0.  1.
         13    1    4    4    0    0  0.14264478560E+02  0.38291533845E+02 -0.84954984515E+02  0.94271237961E+02  0.00000000000E+00 0. -1.
        -14    1    4    4    0    0 -0.35377365949E+02  0.52308896362E+02 -0.16833955160E+02  0.65354117747E+02  0.00000000000E+00 0.  1.
</event>
<event>
12    1  0.8344842E-002  0.2336831E+03  0.7818608E-02  0.1124304E+00
         21   -1    0    0  503  502  0.00000000000E+00  0.00000000000E+00  0.34729517615E+03  0.34729517615E+03  0.00000000000E+00 0.  1.
         21   -1    0    0  501  503 -0.00000000000E+00 -0.00000000000E+00 -0.25070740756E+03  0.25070740756E+03  0.00000000000E+00 0.  1.
          6    2    1    2  501    0  0.14265900965E+03  0.67775500467E+02 -0.13505898123E+03  0.26990499783E+03  0.17222853407E+03 0.  0.
         24    2    3    3    0    0  0.53116502147E+02  0.42903781926E+02  0.25771181062E+01  0.10376575240E+03  0.78093485837E+02 0.  0.
         -6    2    1    2    0  502 -0.14265900965E+03 -0.67775500467E+02  0.23164674981E+03  0.32809758588E+03  0.17041918221E+03 0.  0.
        -24    2    5    5    0    0 -0.12204907167E+03 -0.51649975471E+02  0.81772429642E+02  0.17588325033E+03  0.81758740431E+02 0.  0.
          5    1    3    3  501    0  0.89542507500E+02  0.24871718541E+02 -0.13763609933E+03  0.16613924543E+03  0.47000000000E+01 0. -1.
        -13    1    4    4    0    0 -0.15734490962E+01  0.16660051981E+02 -0.30414219124E+02  0.34713942429E+02  0.00000000000E+00 0.  1.
         14    1    4    4    0    0  0.54689951243E+02  0.26243729944E+02  0.32991337230E+02  0.69051809973E+02  0.00000000000E+00 0. -1.
         -5    1    5    5    0  502 -0.20609937978E+02 -0.16125524995E+02  0.14987432017E+03  0.15221433555E+03  0.47000000000E+01 0.  1.
         11    1    6    6    0    0 -0.13204033898E+03 -0.41650642785E+02  0.62308868580E+02  0.15182826570E+03  0.00000000000E+00 0. -1.
        -12    1    6    6    0    0  0.99912673071E+01 -0.99993326859E+01  0.19463561063E+02  0.24054984635E+02  0.00000000000E+00 0.  1.
</event>
<event>
12    1  0.8344842E-002  0.1795785E+03  0.7818608E-02  0.1168483E+00
         21   -1    0    0  503  502  0.00000000000E+00  0.00000000000E+00  0.45871731599E+03  0.45871731599E+03  0.00000000000E+00 0. -1.
         21   -1    0    0  501  503 -0.00000000000E+00 -0.00000000000E+00 -0.69889381696E+02  0.69889381696E+02  0.00000000000E+00 0. -1.
          6    2    1    2  501    0  0.56813364110E+01  0.52039271053E+02  0.19013899463E+03  0.26153638065E+03  0.17177915418E+03 0.  0.
         24    2    3    3    0    0  0.37453224547E+02 -0.28333930884E+02  0.65979130471E+02  0.11018557512E+03  0.74713182500E+02 0.  0.
         -6    2    1    2    0  502 -0.56813364110E+01 -0.52039271053E+02  0.19868893966E+03  0.26707031703E+03  0.17061329427E+03 0.  0.
        -24    2    5    5    0    0 -0.31733308674E+02  0.34482186504E+01  0.36438722192E+02  0.93562997761E+02  0.80045992928E+02 0.  0.
          5    1    3    3  501    0 -0.31771888136E+02  0.80373201937E+02  0.12415986416E+03  0.15135080553E+03  0.47000000000E+01 0. -1.
        -13    1    4    4    0    0 -0.15532189817E+02 -0.28101696555E+02  0.39644704994E+02  0.51016241569E+02  0.00000000000E+00 0.  1.
         14    1    4    4    0    0  0.52985414364E+02 -0.23223432929E+00  0.26334425477E+02  0.59169333555E+02  0.00000000000E+00 0. -1.
         -5    1    5    5    0  502  0.26051972263E+02 -0.55487489704E+02  0.16225021747E+03  0.17350731927E+03  0.47000000000E+01 0.  1.
         13    1    6    6    0    0 -0.43071742164E+02  0.24380709097E+02  0.46320195537E+02  0.67787568652E+02  0.00000000000E+00 0. -1.
        -14    1    6    6    0    0  0.11338433490E+02 -0.20932490447E+02 -0.98814733456E+01  0.25775429110E+02  0.00000000000E+00 0.  1.
</event>
<event>
12    1  0.8344842E-002  0.1784841E+03  0.7818608E-02  0.1170861E+00
         21   -1    0    0  503  502  0.00000000000E+00  0.00000000000E+00  0.30118545527E+02  0.30118545527E+02  0.00000000000E+00 0.  1.
         21   -1    0    0  501  503 -0.00000000000E+00 -0.00000000000E+00 -0.10732263831E+04  0.10732263831E+04  0.00000000000E+00 0.  1.
          6    2    1    2  501    0 -0.28974273483E+02 -0.39484457553E+02 -0.63490579533E+03  0.65782781467E+03  0.16502585828E+03 0.  0.
         24    2    3    3    0    0 -0.16293219380E+02 -0.78496501011E+01 -0.60845246844E+03  0.61442921240E+03  0.83556954774E+02 0.  0.
         -6    2    1    2    0  502  0.28974273483E+02  0.39484457553E+02 -0.40820204224E+03  0.44551711395E+03  0.17163350670E+03 0.  0.
        -24    2    5    5    0    0  0.51035689872E+02 -0.35307367894E+02 -0.24264466668E+03  0.26245467146E+03  0.78452332261E+02 0.  0.
          5    1    3    3  501    0 -0.12681054102E+02 -0.31634807452E+02 -0.26453326883E+02  0.43398602268E+02  0.47000000000E+01 0. -1.
        -13    1    4    4    0    0 -0.87819314433E+01 -0.44895742329E+02 -0.39674311517E+03  0.39937181852E+03  0.00000000000E+00 0.  1.
         14    1    4    4    0    0 -0.75112879370E+01  0.37046092228E+02 -0.21170935328E+03  0.21505739388E+03  0.00000000000E+00 0. -1.
         -5    1    5    5    0  502 -0.22061416389E+02  0.74791825448E+02 -0.16555737556E+03  0.18306244249E+03  0.47000000000E+01 0.  1.
         11    1    6    6    0    0  0.35610281622E+02 -0.58973330355E+02 -0.19780525147E+03  0.20945850032E+03  0.00000000000E+00 0. -1.
        -12    1    6    6    0    0  0.15425408250E+02  0.23665962460E+02 -0.44839415211E+02  0.52996171138E+02  0.00000000000E+00 0.  1.
</event>
<event>
12    1  0.8344842E-002  0.2478319E+03  0.7818608E-02  0.1114824E+00
         21   -1    0    0  503  502  0.00000000000E+00  0.00000000000E+00  0.13520092231E+04  0.13520092231E+04  0.00000000000E+00 0.  1.
         21   -1    0    0  501  503 -0.00000000000E+00 -0.00000000000E+00 -0.46930086800E+02  0.46930086800E+02  0.00000000000E+00 0.  1.
          6    2    1    2  501    0  0.17547539803E+03 -0.33285719092E+02  0.78306660214E+03  0.82108314267E+03  0.17054228032E+03 0.  0.
         24    2    3    3    0    0  0.32524909983E+02 -0.37447741419E+02  0.42948037048E+03  0.43964182649E+03  0.79820698262E+02 0.  0.
         -6    2    1    2    0  502 -0.17547539803E+03  0.33285719092E+02  0.52201253417E+03  0.57785616724E+03  0.17181708233E+03 0.  0.
        -24    2    5    5    0    0 -0.46707528419E+02 -0.23203060258E+02  0.30645915384E+03  0.32045085221E+03  0.77791776500E+02 0.  0.
          5    1    3    3  501    0  0.14295048805E+03  0.41620223279E+01  0.35358623166E+03  0.38144131618E+03  0.47000000000E+01 0. -1.
        -11    1    4    4    0    0  0.23601302052E+02 -0.24318922670E+02  0.53522397689E+02  0.63348863548E+02  0.00000000000E+00 0.  1.
         12    1    4    4    0    0  0.89236079313E+01 -0.13128818750E+02  0.37595797279E+03  0.37629296295E+03  0.00000000000E+00 0. -1.
         -5    1    5    5    0  502 -0.12876786961E+03  0.56488779350E+02  0.21555338033E+03  0.25740531503E+03  0.47000000000E+01 0.  1.
         11    1    6    6    0    0  0.53427484322E+01 -0.33240517030E+02  0.64555164201E+02  0.72806910100E+02  0.00000000000E+00 0. -1.
        -12    1    6    6    0    0 -0.52050276852E+02  0.10037456772E+02  0.24190398964E+03  0.24764394211E+03  0.00000000000E+00 0.  1.
</event>
<event>
12    1  0.8344842E-002  0.1826462E+03  0.7818608E-02  0.1166179E+00
         21   -1    0    0  501  502  0.00000000000E+00  0.00000000000E+00  0.34792249219E+03  0.34792249219E+03  0.00000000000E+00 0.  1.
         21   -1    0    0  502  503 -0.00000000000E+00 -0.00000000000E+00 -0.11665827250E+03  0.11665827250E+03  0.00000000000E+00 0.  1.
         -6    2    1    2    0  503 -0.22295497296E+02 -0.43275948369E+02  0.12054358667E+02  0.17925182259E+03  0.17209303133E+03 0.  0.
        -24    2    3    3    0    0  0.27567266848E+01  0.40678952940E+02  0.98363984247E+01  0.91484808697E+02  0.81303989657E+02 0.  0.
          6    2    1    2  501    0  0.22295497296E+02  0.43275948369E+02  0.21920986102E+03  0.28532894210E+03  0.17603904432E+03 0.  0.
         24    2    5    5    0    0 -0.44033541148E+02  0.15220528589E+01  0.17213935443E+03  0.19378304256E+03  0.77321671292E+02 0.  0.
          5    1    5    5  501    0  0.66329038444E+02  0.41753895510E+02  0.47070506596E+02  0.91545899538E+02  0.47000000000E+01 0. -1.
        -11    1    6    6    0    0 -0.34033595872E+02 -0.36110551919E+02  0.10584090848E+03  0.11689548971E+03  0.00000000000E+00 0.  1.
         12    1    6    6    0    0 -0.99999452763E+01  0.37632604778E+02  0.66298445948E+02  0.76887552849E+02  0.00000000000E+00 0. -1.
         -5    1    3    3    0  503 -0.25052223980E+02 -0.83954901309E+02  0.22179602421E+01  0.87767013893E+02  0.47000000000E+01 0.  1.
         11    1    4    4    0    0 -0.31160095352E+02 -0.37707265349E+01  0.16007274978E+02  0.35233546134E+02  0.00000000000E+00 0. -1.
        -12    1    4    4    0    0  0.33916822037E+02  0.44449679475E+02 -0.61708765537E+01  0.56251262563E+02  0.00000000000E+00 0.  1.
</event>
<event>
12    1  0.8344842E-002  0.2180344E+03  0.7818608E-02  0.1135477E+00
         21   -1    0    0  503  502  0.00000000000E+00  0.00000000000E+00  0.16470743103E+03  0.16470743103E+03  0.00000000000E+00 0. -1.
         21   -1    0    0  501  503 -0.00000000000E+00 -0.00000000000E+00 -0.54466108565E+03  0.54466108565E+03  0.00000000000E+00 0. -1.
          6    2    1    2  501    0  0.13111898297E+03  0.30852736030E+02 -0.43340983495E+03  0.48487669363E+03  0.17063775660E+03 0.  0.
         24    2    3    3    0    0  0.24497124369E+02  0.13216247483E-01 -0.84856972459E+02  0.11904820286E+03  0.79822675670E+02 0.  0.
         -6    2    1    2    0  502 -0.13111898297E+03 -0.30852736030E+02  0.53456180326E+02  0.22449182305E+03  0.17144951556E+03 0.  0.
        -24    2    5    5    0    0 -0.15154627322E+03 -0.28977379000E+02  0.60133234471E+01  0.17259089993E+03  0.77107050647E+02 0.  0.
          5    1    3    3  501    0  0.10662185860E+03  0.30839519782E+02 -0.34855286249E+03  0.36582849078E+03  0.47000000000E+01 0. -1.
        -13    1    4    4    0    0 -0.19488541513E+02 -0.14412960517E+02 -0.63691586464E+02  0.68148036417E+02  0.00000000000E+00 0.  1.
         14    1    4    4    0    0  0.43985665883E+02  0.14426176764E+02 -0.21165385996E+02  0.50900166439E+02  0.00000000000E+00 0. -1.
         -5    1    5    5    0  502  0.20427290257E+02 -0.18753570299E+01  0.47442856879E+02  0.51900923114E+02  0.47000000000E+01 0.  1.
         11    1    6    6    0    0 -0.14878445597E+03 -0.43078341811E+02  0.15037076301E+02  0.15562349287E+03  0.00000000000E+00 0. -1.
        -12    1    6    6    0    0 -0.27618172559E+01  0.14100962811E+02 -0.90237528541E+01  0.16967407060E+02  0.00000000000E+00 0.  1.
</event>
<event>
12    1  0.8344842E-002  0.2639513E+03  0.7818608E-02  0.1104808E+00
         21   -1    0    0  501  502  0.00000000000E+00  0.00000000000E+00  0.59172649073E+03  0.59172649073E+03  0.00000000000E+00 0.  1.
         21   -1    0    0  502  503 -0.00000000000E+00 -0.00000000000E+00 -0.13337666920E+03  0.13337666920E+03  0.00000000000E+00 0. -1.
         -6    2    1    2    0  503  0.19956243711E+03 -0.55902797346E+01  0.35345702406E+03  0.44107363874E+03  0.17250411416E+03 0.  0.
        -24    2    3    3    0    0  0.98689512795E+02 -0.69773514320E+02  0.18478636061E+03  0.23427248505E+03  0.78291985188E+02 0.  0.
          6    2    1    2  501    0 -0.19956243711E+03  0.55902797346E+01  0.10489279747E+03  0.28402952119E+03  0.17266688279E+03 0.  0.
         24    2    5    5    0    0 -0.98391621923E+02  0.11814087947E+02  0.12751624930E+03  0.18006712315E+03  0.79644780524E+02 0.  0.
          5    1    5    5  501    0 -0.10117081518E+03 -0.62238082120E+01 -0.22623451831E+02  0.10396239804E+03  0.47000000000E+01 0. -1.
        -11    1    6    6    0    0 -0.77442686471E+01 -0.24160893678E+02  0.97957244056E+01  0.27197034706E+02  0.00000000000E+00 0.  1.
         12    1    6    6    0    0 -0.90647353276E+02  0.35974981624E+02  0.11772052489E+03  0.15287008844E+03  0.00000000000E+00 0. -1.
         -5    1    3    3    0  503  0.10087292431E+03  0.64183234585E+02  0.16867066345E+03  0.20680115370E+03  0.47000000000E+01 0.  1.
         11    1    4    4    0    0  0.12608537480E+02 -0.33571597857E+02  0.11911341089E+02  0.37787662624E+02  0.00000000000E+00 0. -1.
        -12    1    4    4    0    0  0.86080975315E+02 -0.36201916463E+02  0.17287501952E+03  0.19648482242E+03  0.00000000000E+00 0.  1.
</event>
<event>
12    1  0.8344842E-002  0.1840057E+03  0.7818608E-02  0.1164519E+00
         21   -1    0    0  503  502  0.00000000000E+00  0.00000000000E+00  0.56923319428E+02  0.56923319428E+02  0.00000000000E+00 0.  1.
         21   -1    0    0  501  503 -0.00000000000E+00 -0.00000000000E+00 -0.58779526978E+03  0.58779526978E+03  0.00000000000E+00 0.  1.
          6    2    1    2  501    0  0.49827752600E+02 -0.43730580729E+02 -0.25963517978E+03  0.31822713250E+03  0.17164764099E+03 0.  0.
         24    2    3    3    0    0  0.69880414699E+02 -0.86496600147E+02 -0.18713703318E+03  0.23157199453E+03  0.78996109213E+02 0.  0.
         -6    2    1    2    0  502 -0.49827752600E+02  0.43730580729E+02 -0.27123677057E+03  0.32649145671E+03  0.16921027444E+03 0.  0.
        -24    2    5    5    0    0 -0.25079919965E+02  0.91349434715E+02 -0.21899566298E+03  0.25144990957E+03  0.79336214999E+02 0.  0.
          5    1    3    3  501    0 -0.20052662100E+02  0.42766019419E+02 -0.72498146607E+02  0.86655137964E+02  0.47000000000E+01 0. -1.
        -11    1    4    4    0    0  0.47097820859E+02 -0.47684507414E+02 -0.40785068676E+02  0.78456604591E+02  0.00000000000E+00 0.  1.
         12    1    4    4    0    0  0.22782593840E+02 -0.38812092733E+02 -0.14635196450E+03  0.15311538994E+03  0.00000000000E+00 0. -1.
         -5    1    5    5    0  502 -0.24747832635E+02 -0.47618853986E+02 -0.52241107590E+02  0.75041547141E+02  0.47000000000E+01 0.  1.
         13    1    6    6    0    0  0.15143456783E+02  0.46190130418E+02 -0.41433501078E+02  0.63871648194E+02  0.00000000000E+00 0. -1.
        -14    1    6    6    0    0 -0.40223376748E+02  0.45159304297E+02 -0.17756216190E+03  0.18757826138E+03  0.00000000000E+00 0.  1.
</event>
<event>
12    1  0.8344842E-002  0.2832306E+03  0.7818608E-02  0.1094079E+00
         21   -1    0    0  503  502  0.00000000000E+00  0.00000000000E+00  0.52120027694E+03  0.52120027694E+03  0.00000000000E+00 0.  1.
         21   -1    0    0  501  503 -0.00000000000E+00 -0.00000000000E+00 -0.18681552260E+03  0.18681552260E+03  0.00000000000E+00 0. -1.
          6    2    1    2  501    0 -0.57608293181E+02  0.21723772824E+03  0.17089093829E+02  0.28269699324E+03  0.17063002913E+03 0.  0.
         24    2    3    3    0    0 -0.85095430385E+02  0.13048151056E+03  0.56665942220E+02  0.18334609517E+03  0.78346057564E+02 0.  0.
         -6    2    1    2    0  502  0.57608293181E+02 -0.21723772824E+03  0.31729566051E+03  0.42531880630E+03  0.17236184264E+03 0.  0.
        -24    2    5    5    0    0  0.90788411912E+02 -0.99017372912E+02  0.18263316841E+03  0.24301946601E+03  0.87502061567E+02 0.  0.
          5    1    3    3  501    0  0.27487137204E+02  0.86756217681E+02 -0.39576848392E+02  0.99350898066E+02  0.47000000000E+01 0. -1.
        -11    1    4    4    0    0 -0.68460669770E+02  0.13478816753E+03  0.34088218115E+02  0.15497328810E+03  0.00000000000E+00 0.  1.
         12    1    4    4    0    0 -0.16634760615E+02 -0.43066569706E+01  0.22577724105E+02  0.28372807065E+02  0.00000000000E+00 0. -1.
         -5    1    5    5    0  502 -0.33180118731E+02 -0.11822035533E+03  0.13466249210E+03  0.18229934029E+03  0.47000000000E+01 0.  1.
         13    1    6    6    0    0  0.16268693187E+02 -0.73190345928E+02  0.55007347204E+02  0.92990888594E+02  0.00000000000E+00 0. -1.
        -14    1    6    6    0    0  0.74519718725E+02 -0.25827026984E+02  0.12762582121E+03  0.15002857741E+03  0.00000000000E+00 0.  1.
</event>
<event>
12    1  0.8344842E-002  0.2525990E+03  0.7818608E-02  0.1111769E+00
         21   -1    0    0  503  502  0.00000000000E+00  0.00000000000E+00  0.61300677416E+03  0.61300677416E+03  0.00000000000E+00 0. -1.
         21   -1    0    0  501  503 -0.00000000000E+00 -0.00000000000E+00 -0.16760293055E+03  0.16760293055E+03  0.00000000000E+00 0. -1.
          6    2    1    2  501    0 -0.12149387851E+03 -0.13882315208E+03 -0.18214311709E+02  0.25264374744E+03  0.17165218291E+03 0.  0.
         24    2    3    3    0    0 -0.53758178439E+01 -0.88754449866E+02 -0.36442442381E+02  0.12479761451E+03  0.79625003569E+02 0.  0.
         -6    2    1    2    0  502  0.12149387851E+03  0.13882315208E+03  0.46361815531E+03  0.52796595728E+03  0.17255036376E+03 0.  0.
        -24    2    5    5    0    0  0.15003361419E+03  0.14397222631E+03  0.39700116394E+03  0.45515838200E+03  0.79505604850E+02 0.  0.
          5    1    3    3  501    0 -0.11611806067E+03 -0.50068702217E+02  0.18228130672E+02  0.12784613292E+03  0.47000000000E+01 0. -1.
        -13    1    4    4    0    0  0.22093280688E+02 -0.88543116213E+02 -0.33321373909E+02  0.97150967260E+02  0.00000000000E+00 0.  1.
         14    1    4    4    0    0 -0.27469098532E+02 -0.21133365244E+00 -0.31210684722E+01  0.27646647255E+02  0.00000000000E+00 0. -1.
         -5    1    5    5    0  502 -0.28539735673E+02 -0.51490742260E+01  0.66616991372E+02  0.72807575273E+02  0.47000000000E+01 0.  1.
         13    1    6    6    0    0  0.73448954009E+02  0.19744313351E+02  0.12018607390E+03  0.14222967031E+03  0.00000000000E+00 0. -1.
        -14    1    6    6    0    0  0.76584660177E+02  0.12422791296E+03  0.27681509004E+03  0.31292871170E+03  0.00000000000E+00 0.  1.
</event>
<event>
12    1  0.8344842E-002  0.1846304E+03  0.7818608E-02  0.1163546E+00
         21   -1    0    0  501  502  0.00000000000E+00  0.00000000000E+00  0.70895697300E+02  0.70895697300E+02  0.00000000000E+00 0. -1.
         21   -1    0    0  502  503 -0.00000000000E+00 -0.00000000000E+00 -0.49816306483E+03  0.49816306483E+03  0.00000000000E+00 0. -1.
         -6    2    1    2    0  503  0.27244042844E+02  0.63126689667E+02 -0.26885579442E+03  0.32578400648E+03  0.17065920387E+03 0.  0.
        -24    2    3    3    0    0  0.39578722430E+02  0.78163627129E+02 -0.27927687856E+03  0.30322424577E+03  0.79204421879E+02 0.  0.
          6    2    1    2  501    0 -0.27244042844E+02 -0.63126689667E+02 -0.15841157311E+03  0.24327475565E+03  0.17135099481E+03 0.  0.
         24    2    5    5    0    0  0.17189729092E+02 -0.84954490765E+02 -0.57676528003E+02  0.13093396919E+03  0.79400063717E+02 0.  0.
          5    1    5    5  501    0 -0.44433771936E+02  0.21827801098E+02 -0.10073504510E+03  0.11234078646E+03  0.47000000000E+01 0. -1.
        -13    1    6    6    0    0 -0.17683180790E+02 -0.14761550458E+02  0.12079489498E+02  0.26009850467E+02  0.00000000000E+00 0.  1.
         14    1    6    6    0    0  0.34872909882E+02 -0.70192940306E+02 -0.69756017501E+02  0.10492411872E+03  0.00000000000E+00 0. -1.
         -5    1    3    3    0  503 -0.12334679587E+02 -0.15036937462E+02  0.10421084144E+02  0.22559760714E+02  0.47000000000E+01 0.  1.
         13    1    4    4    0    0 -0.21224204535E+02  0.67982241656E+01 -0.34141263670E+02  0.40771418849E+02  0.00000000000E+00 0. -1.
        -14    1    4    4    0    0  0.60802926965E+02  0.71365402963E+02 -0.24513561489E+03  0.26245282692E+03  0.00000000000E+00 0.  1.
</event>
<event>
12    1  0.8344842E-002  0.2204299E+03  0.7818608E-02  0.1133636E+00
         21   -1    0    0  503  502  0.00000000000E+00  0.00000000000E+00  0.83816645506E+02  0.83816645506E+02  0.00000000000E+00 0.  1.
         21   -1    0    0  501  503 -0.00000000000E+00 -0.00000000000E+00 -0.70981009614E+03  0.70981009614E+03  0.00000000000E+00 0. -1.
          6    2    1    2  501    0 -0.89510998239E+02  0.10379017419E+03 -0.48332509016E+03  0.53105558098E+03  0.17214025749E+03 0.  0.
         24    2    3    3    0    0 -0.41337073416E+01  0.34771506611E+02 -0.98565191289E+02  0.13091169679E+03  0.78718677671E+02 0.  0.
         -6    2    1    2    0  502  0.89510998239E+02 -0.10379017419E+03 -0.14266836048E+03  0.26257116067E+03  0.17264047691E+03 0.  0.
        -24    2    5    5    0    0  0.27582048413E+02 -0.11284419150E+03 -0.14092688016E+03  0.19978348027E+03  0.80984396578E+02 0.  0.
          5    1    3    3  501    0 -0.85377290897E+02  0.69018667584E+02 -0.38475989887E+03  0.40014388419E+03  0.47000000000E+01 0. -1.
        -11    1    4    4    0    0 -0.16331183744E+02  0.57539118352E+02 -0.75169386219E+02  0.96061929648E+02  0.00000000000E+00 0.  1.
         12    1    4    4    0    0  0.12197476402E+02 -0.22767611741E+02 -0.23395805070E+02  0.34849767142E+02  0.00000000000E+00 0. -1.
         -5    1    5    5    0  502  0.61928949826E+02  0.90540173035E+01 -0.17414803199E+01  0.62787680397E+02  0.47000000000E+01 0.  1.
         13    1    6    6    0    0  0.22444224968E+01 -0.67873647302E+02 -0.13051592112E+03  0.14712673141E+03  0.00000000000E+00 0. -1.
        -14    1    6    6    0    0  0.25337625916E+02 -0.44970544196E+02 -0.10410959037E+02  0.52656748859E+02  0.00000000000E+00 0.  1.
</event>
<event>
12    1  0.8344842E-002  0.1762119E+03  0.7818608E-02  0.1172546E+00
         21   -1    0    0  501  502  0.00000000000E+00  0.00000000000E+00  0.63793463839E+02  0.63793463839E+02  0.00000000000E+00 0.  1.
         21   -1    0    0  502  503 -0.00000000000E+00 -0.00000000000E+00 -0.78740011395E+03  0.78740011395E+03  0.00000000000E+00 0.  1.
         -6    2    1    2    0  503  0.11827291241E+02 -0.63673754341E+01 -0.63217969584E+03  0.65627874144E+03  0.17569914723E+03 0.  0.
        -24    2    3    3    0    0  0.13766578418E+02  0.65753095925E+02 -0.38573276770E+03  0.39944552393E+03  0.79082047299E+02 0.  0.
          6    2    1    2  501    0 -0.11827291241E+02  0.63673754341E+01 -0.91426954267E+02  0.19491483635E+03  0.17161724032E+03 0.  0.
         24    2    5    5    0    0  0.17013398249E+02 -0.49958868099E+02 -0.14919189022E+02  0.95516852349E+02  0.78201935142E+02 0.  0.
          5    1    5    5  501    0 -0.28840689490E+02  0.56326243533E+02 -0.76507765246E+02  0.99397984002E+02  0.47000000000E+01 0. -1.
        -11    1    6    6    0    0 -0.25620189021E+02  0.18918644700E+01 -0.11924196409E+02  0.28322423919E+02  0.00000000000E+00 0.  1.
         12    1    6    6    0    0  0.42633587269E+02 -0.51850732569E+02 -0.29949926125E+01  0.67194428431E+02  0.00000000000E+00 0. -1.
         -5    1    3    3    0  503 -0.19392871774E+01 -0.72120471360E+02 -0.24644692814E+03  0.25683321750E+03  0.47000000000E+01 0.  1.
         11    1    4    4    0    0  0.13166447389E+02 -0.16528594393E+02 -0.66373932911E+02  0.69656648926E+02  0.00000000000E+00 0. -1.
        -12    1    4    4    0    0  0.60013102931E+00  0.82281690318E+02 -0.31935883479E+03  0.32978887500E+03  0.00000000000E+00 0.  1.
</event>
<event>
12    1  0.8344842E-002  0.1766241E+03  0.7818608E-02  0.1171963E+00
         21   -1    0    0  503  502  0.00000000000E+00  0.00000000000E+00  0.21618939389E+03  0.21618939389E+03  0.00000000000E+00 0. -1.
         21   -1    0    0  501  503 -0.00000000000E+00 -0.00000000000E+00 -0.32620555454E+03  0.32620555454E+03  0.00000000000E+00 0. -1.
          6    2    1    2  501    0  0.24452367875E+02 -0.88107126642E+01 -0.25928775418E+03  0.31372949775E+03  0.17470120588E+03 0.  0.
         24    2    3    3    0    0  0.45309987669E+02 -0.42643891435E+02 -0.25378366946E+03  0.27333012600E+03  0.80197945332E+02 0.  0.
         -6    2    1    2    0  502 -0.24452367875E+02  0.88107126642E+01  0.14927159353E+03  0.22866545068E+03  0.17126100767E+03 0.  0.
        -24    2    5    5    0    0 -0.31586160575E+02  0.65304761527E+02  0.63397417828E+02  0.12552024911E+03  0.80459324703E+02 0.  0.
          5    1    3    3  501    0 -0.20857619793E+02  0.33833178771E+02 -0.55040847236E+01  0.40399371751E+02  0.47000000000E+01 0. -1.
        -11    1    4    4    0    0 -0.21548420217E+02 -0.33614716688E+01 -0.35302883218E+02  0.41496113904E+02  0.00000000000E+00 0.  1.
         12    1    4    4    0    0  0.66858407886E+02 -0.39282419766E+02 -0.21848078624E+03  0.23183401209E+03  0.00000000000E+00 0. -1.
         -5    1    5    5    0  502  0.71337927000E+01 -0.56494048863E+02  0.85874175701E+02  0.10314520157E+03  0.47000000000E+01 0.  1.
         13    1    6    6    0    0 -0.93071877857E+01  0.80574628723E+02  0.50907572081E+02  0.95762599346E+02  0.00000000000E+00 0. -1.
        -14    1    6    6    0    0 -0.22278972790E+02 -0.15269867196E+02  0.12489845747E+02  0.29757649765E+02  0.00000000000E+00 0.  1.
</event>
<event>
12    1  0.8344842E-002  0.2042838E+03  0.7818608E-02  0.1146308E+00
         21   -1    0    0  503  502  0.00000000000E+00  0.00000000000E+00  0.47052081446E+02  0.47052081446E+02  0.00000000000E+00 0. -1.
         21   -1    0    0  501  503 -0.00000000000E+00 -0.00000000000E+00 -0.18575448012E+04  0.18575448012E+04  0.00000000000E+00 0.  1.
          6    2    1    2  501    0  0.59045825869E+02  0.91473680679E+02 -0.15939357632E+04  0.16068909862E+04  0.17208596842E+03 0.  0.
         24    2    3    3    0    0  0.21734380226E+02 -0.14589151141E+01 -0.38045708461E+03  0.38927807369E+03  0.79468948062E+02 0.  0.
         -6    2    1    2    0  502 -0.59045825869E+02 -0.91473680679E+02 -0.21655695653E+03  0.29770589642E+03  0.17285265844E+03 0.  0.
        -24    2    5    5    0    0 -0.31850851342E+02  0.17772408063E+02 -0.12771695341E+03  0.15421753208E+03  0.78365118481E+02 0.  0.
          5    1    3    3  501    0  0.37311445643E+02  0.92932595793E+02 -0.12134786786E+04  0.12176129125E+04  0.47000000000E+01 0. -1.
        -11    1    4    4    0    0  0.43141028271E+02 -0.13956479843E+02 -0.32957352313E+03  0.33267798064E+03  0.00000000000E+00 0.  1.
         12    1    4    4    0    0 -0.21406648046E+02  0.12497564729E+02 -0.50883561477E+02  0.56600093050E+02  0.00000000000E+00 0. -1.
         -5    1    5    5    0  502 -0.27194974527E+02 -0.10924608874E+03 -0.88840003126E+02  0.14348836434E+03  0.47000000000E+01 0.  1.
         11    1    6    6    0    0 -0.44616294689E+02  0.13637889373E+02 -0.29742125323E+02  0.55328110370E+02  0.00000000000E+00 0. -1.
        -12    1    6    6    0    0  0.12765443347E+02  0.41345186900E+01 -0.97974828085E+02  0.98889421714E+02  0.00000000000E+00 0.  1.
</event>
<event>
12    1  0.8344842E-002  0.1768373E+03  0.7818608E-02  0.1171025E+00
         21   -1    0    0  501  502  0.00000000000E+00  0.00000000000E+00  0.27814424968E+03  0.27814424968E+03  0.00000000000E+00 0.  1.
         21   -1    0    0  502  503 -0.00000000000E+00 -0.00000000000E+00 -0.13194411885E+03  0.13194411885E+03  0.00000000000E+00 0.  1.
         -6    2    1    2    0  503 -0.32493273408E+02 -0.25132599011E+02 -0.63145046798E+01  0.17695001026E+03  0.17199992096E+03 0.  0.
        -24    2    3    3    0    0 -0.27583544414E+02 -0.44905053408E+02 -0.64755624161E+02  0.11488142047E+03  0.78912192757E+02 0.  0.
          6    2    1    2  501    0  0.32493273408E+02  0.25132599011E+02  0.15251463550E+03  0.23313835827E+03  0.17147979387E+03 0.  0.
         24    2    5    5    0    0  0.41107845489E+01  0.37886187577E+02  0.83040516281E+01  0.85534150348E+02  0.76124055617E+02 0.  0.
          5    1    5    5  501    0  0.28382488859E+02 -0.12753588566E+02  0.14421058388E+03  0.14760420792E+03  0.47000000000E+01 0. -1.
        -11    1    6    6    0    0  0.39184026382E+02  0.10407146976E+02  0.51211390570E+01  0.40864687653E+02  0.00000000000E+00 0.  1.
         12    1    6    6    0    0 -0.35073241833E+02  0.27479040601E+02  0.31829125711E+01  0.44669462695E+02  0.00000000000E+00 0. -1.
         -5    1    3    3    0  503 -0.49097289939E+01  0.19772454397E+02  0.58441119481E+02  0.62068589784E+02  0.47000000000E+01 0.  1.
         13    1    4    4    0    0 -0.50817410083E+02 -0.49040201989E+02 -0.54234114574E+02  0.89043190432E+02  0.00000000000E+00 0. -1.
        -14    1    4    4    0    0  0.23233865669E+02  0.41351485810E+01 -0.10521509587E+02  0.25838230042E+02  0.00000000000E+00 0.  1.
</event>
<event>
12    1  0.8344842E-002  0.1948948E+03  0.7818608E-02  0.1155844E+00
         21   -1    0    0  501  502  0.00000000000E+00  0.00000000000E+00  0.11993489312E+03  0.11993489312E+03  0.00000000000E+00 0.  1.
         21   -1    0    0  502  503 -0.00000000000E+00 -0.00000000000E+00 -0.31288769764E+03  0.31288769764E+03  0.00000000000E+00 0.  1.
         -6    2    1    2    0  503  0.39081501948E+02  0.81752460553E+02 -0.58642059554E+02  0.19613007973E+03  0.16375984986E+03 0.  0.
        -24    2    3    3    0    0 -0.37878743324E+02  0.61362725066E+02 -0.35595269021E+02  0.11311282117E+03  0.79544351860E+02 0.  0.
          6    2    1    2  501    0 -0.39081501948E+02 -0.81752460553E+02 -0.13431074497E+03  0.23669251102E+03  0.17254894946E+03 0.  0.
         24    2    5    5    0    0 -0.63729899118E+02 -0.31702319724E+02 -0.19369801821E+02  0.10884075902E+03  0.80028647891E+02 0.  0.
          5    1    5    5  501    0  0.24648397170E+02 -0.50050140829E+02 -0.11494094315E+03  0.12785175201E+03  0.47000000000E+01 0. -1.
        -13    1    6    6    0    0 -0.91074423178E+01 -0.47544658336E+02  0.10281104669E+01  0.48420006743E+02  0.00000000000E+00 0.  1.
         14    1    6    6    0    0 -0.54622456800E+02  0.15842338612E+02 -0.20397912288E+02  0.60420752273E+02  0.00000000000E+00 0. -1.
         -5    1    3    3    0  503  0.76960245272E+02  0.20389735486E+02 -0.23046790533E+02  0.83017258563E+02  0.47000000000E+01 0.  1.
         11    1    4    4    0    0  0.15127236216E+02 -0.16259499712E+01  0.10760418504E+02  0.18635009934E+02  0.00000000000E+00 0. -1.
        -12    1    4    4    0    0 -0.53005979540E+02  0.62988675038E+02 -0.46355687525E+02  0.94477811236E+02  0.00000000000E+00 0.  1.
</event>
<event>
12    1  0.8344842E-002  0.1829876E+03  0.7818608E-02  0.1166362E+00
         21   -1    0    0  501  502  0.00000000000E+00  0.00000000000E+00  0.27988036572E+03  0.27988036572E+03  0.00000000000E+00 0.  1.
         21   -1    0    0  502  503 -0.00000000000E+00 -0.00000000000E+00 -0.18236161776E+03  0.18236161776E+03  0.00000000000E+00 0.  1.
         -6    2    1    2    0  503 -0.32607873325E+02  0.19662215974E+02 -0.91348084877E+02  0.19926831403E+03  0.17295523185E+03 0.  0.
        -24    2    3    3    0    0 -0.90757905208E+01  0.73778411435E+02 -0.33079422492E+02  0.11620419091E+03  0.82967112918E+02 0.  0.
          6    2    1    2  501    0  0.32607873325E+02 -0.19662215974E+02  0.18886683284E+03  0.26297366945E+03  0.17898210564E+03 0.  0.
         24    2    5    5    0    0  0.90943880644E+02 -0.18986246094E+02  0.10477509426E+03  0.16051852228E+03  0.78467245711E+02 0.  0.
          5    1    5    5  501    0 -0.58336007319E+02 -0.67596987987E+00  0.84091738579E+02  0.10245514717E+03  0.47000000000E+01 0. -1.
        -11    1    6    6    0    0  0.17924534897E+02  0.27017256009E+02  0.14154202437E+02  0.35377429530E+02  0.00000000000E+00 0.  1.
         12    1    6    6    0    0  0.73019345747E+02 -0.46003502103E+02  0.90620891826E+02  0.12514109275E+03  0.00000000000E+00 0. -1.
         -5    1    3    3    0  503 -0.23532082804E+02 -0.54116195461E+02 -0.58268662385E+02  0.83064123112E+02  0.47000000000E+01 0.  1.
         11    1    4    4    0    0  0.36571080844E+02  0.42450854166E+02 -0.16996271979E+02  0.58552474198E+02  0.00000000000E+00 0. -1.
        -12    1    4    4    0    0 -0.45646871365E+02  0.31327557269E+02 -0.16083150512E+02  0.57651716715E+02  0.00000000000E+00 0.  1.
</event>
<event>
12    1  0.8344842E-002  0.3013995E+03  0.7818608E-02  0.1084593E+00
         21   -1    0    0  501  502  0.00000000000E+00  0.00000000000E+00  0.15968302565E+04  0.15968302565E+04  0.00000000000E+00 0.  1.
         21   -1    0    0  502  503 -0.00000000000E+00 -0.00000000000E+00 -0.56819219726E+02  0.56819219726E+02  0.00000000000E+00 0.  1.
         -6    2    1    2    0  503 -0.28063595136E+02 -0.24605588045E+03  0.77925593009E+03  0.83551269260E+03  0.17178647571E+03 0.  0.
        -24    2    3    3    0    0 -0.23945878650E+02 -0.23948849948E+03  0.78498388277E+03  0.82478956228E+03  0.78421804023E+02 0.  0.
          6    2    1    2  501    0  0.28063595136E+02  0.24605588045E+03  0.76075510673E+03  0.81813678367E+03  0.17108010610E+03 0.  0.
         24    2    5    5    0    0  0.42505794257E+01  0.24390294224E+03  0.74701036004E+03  0.79015995537E+03  0.82592762381E+02 0.  0.
          5    1    5    5  501    0  0.23813015711E+02  0.21529382082E+01  0.13744746683E+02  0.27976828297E+02  0.47000000000E+01 0. -1.
        -13    1    6    6    0    0  0.36226296793E+02  0.19984275781E+03  0.59060404732E+03  0.62454992846E+03  0.00000000000E+00 0.  1.
         14    1    6    6    0    0 -0.31975717368E+02  0.44060184436E+02  0.15640631272E+03  0.16561002691E+03  0.00000000000E+00 0. -1.
         -5    1    3    3    0  503 -0.41177164869E+01 -0.65673809694E+01 -0.57279526837E+01  0.10723130318E+02  0.47000000000E+01 0.  1.
         13    1    4    4    0    0  0.10069817348E+02 -0.38333529225E+01  0.12800587910E+02  0.16731732333E+02  0.00000000000E+00 0. -1.
        -14    1    4    4    0    0 -0.34015695997E+02 -0.23565514656E+03  0.77218329486E+03  0.80805782995E+03  0.00000000000E+00 0.  1.
</event>
<event>
12    1  0.8344842E-002  0.2616211E+03  0.7818608E-02  0.1106396E+00
         21   -1    0    0  503  502  0.00000000000E+00  0.00000000000E+00  0.30609741123E+02  0.30609741123E+02  0.00000000000E+00 0.  1.
         21   -1    0    0  501  503 -0.00000000000E+00 -0.00000000000E+00 -0.22265923584E+04  0.22265923584E+04  0.00000000000E+00 0.  1.
          6    2    1    2  501    0  0.14619930482E+03  0.13058130419E+03 -0.10580618846E+04  0.10899268649E+04  0.17326253328E+03 0.  0.
         24    2    3    3    0    0  0.13784822942E+03  0.10072679702E+03 -0.56767171949E+03  0.59853533455E+03  0.82736591678E+02 0.  0.
         -6    2    1    2    0  502 -0.14619930482E+03 -0.13058130419E+03 -0.11379207327E+04  0.11672752347E+04  0.17100340870E+03 0.  0.
        -24    2    5    5    0    0 -0.14142998106E+03 -0.15510878528E+03 -0.88132927039E+03  0.90942719353E+03  0.79090850784E+02 0.  0.
          5    1    3    3  501    0  0.83510754013E+01  0.29854507166E+02 -0.49039016508E+03  0.49139153031E+03  0.47000000000E+01 0. -1.
        -11    1    4    4    0    0  0.83825141614E+02  0.11102975003E+02 -0.23194479113E+03  0.24687712845E+03  0.00000000000E+00 0.  1.
         12    1    4    4    0    0  0.54023087809E+02  0.89623822017E+02 -0.33572692836E+03  0.35165820610E+03  0.00000000000E+00 0. -1.
         -5    1    5    5    0  502 -0.47693237617E+01  0.24527481091E+02 -0.25659146234E+03  0.25784804115E+03  0.47000000000E+01 0.  1.
         11    1    6    6    0    0 -0.44080955351E+01 -0.45139168377E+02 -0.12542031509E+03  0.13336877920E+03  0.00000000000E+00 0. -1.
        -12    1    6    6    0    0 -0.13702188553E+03 -0.10996961690E+03 -0.75590895530E+03  0.77605841433E+03  0.00000000000E+00 0.  1.
</event>
<event>
12    1  0.8344842E-002  0.1747781E+03  0.7818608E-02  0.1173038E+00
         21   -1    0    0  503  502  0.00000000000E+00  0.00000000000E+00  0.52778804974E+02  0.52778804974E+02  0.00000000000E+00 0.  1.
         21   -1    0    0  501  503 -0.00000000000E+00 -0.00000000000E+00 -0.88764497117E+03  0.88764497117E+03  0.00000000000E+00 0.  1.
          6    2    1    2  501    0  0.65049105857E+01  0.28735517030E+02 -0.69503469036E+03  0.71659295092E+03  0.17194241103E+03 0.  0.
         24    2    3    3    0    0 -0.37297758062E+02  0.50386410183E+02 -0.26290941634E+03  0.28168861960E+03  0.79354925026E+02 0.  0.
         -6    2    1    2    0  502 -0.65049105857E+01 -0.28735517030E+02 -0.13983147584E+03  0.22383082522E+03  0.17227696562E+03 0.  0.
        -24    2    5    5    0    0  0.63893133919E+01 -0.83322076540E+02 -0.72719632082E+02  0.13624062564E+03  0.79309340049E+02 0.  0.
          5    1    3    3  501    0  0.43802668648E+02 -0.21650893154E+02 -0.43212527401E+03  0.43490433131E+03  0.47000000000E+01 0. -1.
        -13    1    4    4    0    0 -0.35851676290E+02  0.30850461050E+02 -0.25687166540E+03  0.26118986605E+03  0.00000000000E+00 0.  1.
         14    1    4    4    0    0 -0.14460817722E+01  0.19535949134E+02 -0.60377509427E+01  0.20498753559E+02  0.00000000000E+00 0. -1.
         -5    1    5    5    0  502 -0.12894223978E+02  0.54586559510E+02 -0.67111843760E+02  0.87590199589E+02  0.47000000000E+01 0.  1.
         11    1    6    6    0    0 -0.25112853425E+02 -0.26952741686E+02 -0.60027957040E+02  0.70430542507E+02  0.00000000000E+00 0. -1.
        -12    1    6    6    0    0  0.31502166817E+02 -0.56369334854E+02 -0.12691675042E+02  0.65810083128E+02  0.00000000000E+00 0.  1.
</event>
<event>
12    1  0.8344842E-002  0.1852397E+03  0.7818608E-02  0.1163109E+00
         21   -1    0    0  503  502  0.00000000000E+00  0.00000000000E+00  0.29760977001E+02  0.29760977001E+02  0.00000000000E+00 0. -1.
         21   -1    0    0  501  503 -0.00000000000E+00 -0.00000000000E+00 -0.11474793327E+04  0.11474793327E+04  0.00000000000E+00 0. -1.
          6    2    1    2  501    0 -0.57302892475E+02  0.29967610630E+02 -0.53242988759E+03  0.56333774950E+03  0.17229670817E+03 0.  0.
         24    2    3    3    0    0 -0.92565183314E+02  0.36686231653E+02 -0.25561371201E+03  0.28416422984E+03  0.74140049872E+02 0.  0.
         -6    2    1    2    0  502  0.57302892475E+02 -0.29967610630E+02 -0.58528846813E+03  0.61390256021E+03  0.17358595375E+03 0.  0.
        -24    2    5    5    0    0  0.19660284127E+02 -0.17680562731E+01 -0.54695281242E+03  0.55304294037E+03  0.79432122487E+02 0.  0.
          5    1    3    3  501    0  0.35262290839E+02 -0.67186210233E+01 -0.27681617557E+03  0.27917351966E+03  0.47000000000E+01 0. -1.
        -13    1    4    4    0    0 -0.39189657357E+02 -0.17817557104E+02 -0.57196971339E+02  0.71587625434E+02  0.00000000000E+00 0.  1.
         14    1    4    4    0    0 -0.53375525957E+02  0.54503788756E+02 -0.19841674067E+03  0.21257660440E+03  0.00000000000E+00 0. -1.
         -5    1    5    5    0  502  0.37642608348E+02 -0.28199554357E+02 -0.38335655710E+02  0.60859619847E+02  0.47000000000E+01 0.  1.
         11    1    6    6    0    0 -0.14487482946E+02 -0.20432922353E+02 -0.67233057604E+02  0.71747303174E+02  0.00000000000E+00 0. -1.
        -12    1    6    6    0    0  0.34147767073E+02  0.18664866080E+02 -0.47971975481E+03  0.48129563719E+03  0.00000000000E+00 0.  1.
</event>
<event>
12    1  0.8344842E-002  0.1799635E+03  0.7818608E-02  0.1168744E+00
         21   -1    0    0  501  502  0.00000000000E+00  0.00000000000E+00  0.40557603185E+03  0.40557603185E+03  0.00000000000E+00 0. -1.
         21   -1    0    0  502  503 -0.00000000000E+00 -0.00000000000E+00 -0.10038575215E+03  0.10038575215E+03  0.00000000000E+00 0. -1.
         -6    2    1    2    0  503  0.35560056556E+02 -0.18425312365E+02  0.27022983876E+03  0.32263396243E+03  0.17165225953E+03 0.  0.
        -24    2    3    3    0    0 -0.42508735162E+02 -0.67801631313E+01  0.18974502669E+03  0.20980559404E+03  0.78499993368E+02 0.  0.
          6    2    1    2  501    0 -0.35560056556E+02  0.18425312365E+02  0.34960440940E+02  0.18332782157E+03  0.17545041457E+03 0.  0.
         24    2    5    5    0    0 -0.62379816043E+02  0.66051277611E+02  0.40089596797E+01  0.12033880462E+03  0.78812076582E+02 0.  0.
          5    1    5    5  501    0  0.26819759487E+02 -0.47625965246E+02  0.30951481260E+02  0.62989016953E+02  0.47000000000E+01 0. -1.
        -13    1    6    6    0    0  0.61848201838E+01  0.25984210914E+02  0.26680230151E+02  0.37752693923E+02  0.00000000000E+00 0.  1.
         14    1    6    6    0    0 -0.68564636227E+02  0.40067066697E+02 -0.22671270472E+02  0.82586110693E+02  0.00000000000E+00 0. -1.
         -5    1    3    3    0  503  0.78068791718E+02 -0.11645149234E+02  0.80484812066E+02  0.11282836839E+03  0.47000000000E+01 0.  1.
         11    1    4    4    0    0  0.14405510120E+02 -0.25770058399E+02  0.61450288153E+02  0.68174427359E+02  0.00000000000E+00 0. -1.
        -12    1    4    4    0    0 -0.56914245282E+02  0.18989895268E+02  0.12829473854E+03  0.14163116668E+03  0.00000000000E+00 0.  1.
</event>
<event>
12    1  0.8344842E-002  0.1719539E+03  0.7818608E-02  0.1176125E+00
         21   -1    0    0  503  502  0.00000000000E+00  0.00000000000E+00  0.27846567714E+03  0.27846567714E+03  0.00000000000E+00 0. -1.
         21   -1    0    0  501  503 -0.00000000000E+00 -0.00000000000E+00 -0.14911760571E+03  0.14911760571E+03  0.00000000000E+00 0. -1.
          6    2    1    2  501    0  0.68699734505E+01  0.33554742217E+01 -0.51153839921E+02  0.17828607895E+03  0.17061874126E+03 0.  0.
         24    2    3    3    0    0 -0.87720718895E+01 -0.34982859797E+02  0.25808764219E+02  0.90765602072E+02  0.79193134072E+02 0.  0.
         -6    2    1    2    0  502 -0.68699734505E+01 -0.33554742217E+01  0.18050191135E+03  0.24929720389E+03  0.17178387620E+03 0.  0.
        -24    2    5    5    0    0 -0.50661082624E+02 -0.51032387768E+02  0.11906276649E+03  0.15992378587E+03  0.78922905593E+02 0.  0.
          5    1    3    3  501    0  0.15642045340E+02  0.38338334019E+02 -0.76962604139E+02  0.87520476882E+02  0.47000000000E+01 0. -1.
        -11    1    4    4    0    0 -0.43975081680E+02 -0.21095680965E+02  0.18843139089E+02  0.52286704379E+02  0.00000000000E+00 0.  1.
         12    1    4    4    0    0  0.35203009790E+02 -0.13887178832E+02  0.69656251294E+01  0.38478897693E+02  0.00000000000E+00 0. -1.
         -5    1    5    5    0  502  0.43791109174E+02  0.47676913547E+02  0.61439144858E+02  0.89373418022E+02  0.47000000000E+01 0.  1.
         13    1    6    6    0    0  0.16394998608E+02 -0.10973019659E+02  0.56505387094E+02  0.59850329242E+02  0.00000000000E+00 0. -1.
        -14    1    6    6    0    0 -0.67056081233E+02 -0.40059368110E+02  0.62557379398E+02  0.10007345662E+03  0.00000000000E+00 0.  1.
</event>
<event>
12    1  0.8344842E-002  0.1855952E+03  0.7818608E-02  0.1163217E+00
         21   -1    0    0  501  502  0.00000000000E+00  0.00000000000E+00  0.42073811843E+02  0.42073811843E+02  0.00000000000E+00 0. -1.
         21   -1    0    0  502  503 -0.00000000000E+00 -0.00000000000E+00 -0.10619289211E+04  0.10619289211E+04  0.00000000000E+00 0. -1.
         -6    2    1    2    0  503 -0.42486237545E+02  0.48080898982E+02 -0.23527815921E+03  0.29777287918E+03  0.17086843520E+03 0.  0.
        -24    2    3    3    0    0  0.19721523480E+02  0.76745464318E+02 -0.15862456855E+03  0.19486842933E+03  0.80827880218E+02 0.  0.
          6    2    1    2  501    0  0.42486237545E+02 -0.48080898982E+02 -0.78457695005E+03  0.80622985377E+03  0.17415146662E+03 0.  0.
         24    2    5    5    0    0  0.28940986828E+02  0.74368821462E+01 -0.69280682785E+03  0.69801921119E+03  0.79728480091E+02 0.  0.
          5    1    5    5  501    0  0.13545250717E+02 -0.55517781128E+02 -0.91770122197E+02  0.10821064257E+03  0.47000000000E+01 0. -1.
        -13    1    6    6    0    0  0.41206370372E+02 -0.26533695050E+02 -0.40571180716E+03  0.40866131747E+03  0.00000000000E+00 0.  1.
         14    1    6    6    0    0 -0.12265383544E+02  0.33970577197E+02 -0.28709502070E+03  0.28935789372E+03  0.00000000000E+00 0. -1.
         -5    1    3    3    0  503 -0.62207761024E+02 -0.28664565336E+02 -0.76653590658E+02  0.10290444985E+03  0.47000000000E+01 0.  1.
         13    1    4    4    0    0 -0.11714079466E+02  0.39102697883E+02 -0.15650578908E+02  0.43717059137E+02  0.00000000000E+00 0. -1.
        -14    1    4    4    0    0  0.31435602945E+02  0.37642766435E+02 -0.14297398964E+03  0.15115137019E+03  0.00000000000E+00 0.  1.
</event>
<event>
12    1  0.8344842E-002  0.2934550E+03  0.7818608E-02  0.1088567E+00
         21   -1    0    0  501  502  0.00000000000E+00  0.00000000000E+00  0.11238945102E+04  0.11238945102E+04  0.00000000000E+00 0.  1.
         21   -1    0    0  502  503 -0.00000000000E+00 -0.00000000000E+00 -0.11121612184E+03  0.11121612184E+03  0.00000000000E+00 0. -1.
         -6    2    1    2    0  503 -0.23406614375E+03 -0.41377406553E+02  0.16179982544E+03  0.33504942825E+03  0.17198804155E+03 0.  0.
        -24    2    3    3    0    0 -0.17714997695E+03  0.29976185490E+02  0.13725682267E+03  0.24041732944E+03  0.81733535934E+02 0.  0.
          6    2    1    2  501    0  0.23406614375E+03  0.41377406553E+02  0.85087856288E+03  0.90006120373E+03  0.17209529997E+03 0.  0.
         24    2    5    5    0    0  0.11470927592E+03 -0.37150806858E+02  0.34147644556E+03  0.37098148447E+03  0.80515206756E+02 0.  0.
          5    1    5    5  501    0  0.11935686784E+03  0.78528213411E+02  0.50940211732E+03  0.52907971926E+03  0.47000000000E+01 0. -1.
        -11    1    6    6    0    0  0.19821460323E+01  0.16947705979E+02  0.70701242447E+02  0.72731144115E+02  0.00000000000E+00 0.  1.
         12    1    6    6    0    0  0.11272712988E+03 -0.54098512837E+02  0.27077520311E+03  0.29825034036E+03  0.00000000000E+00 0. -1.
         -5    1    3    3    0  503 -0.56916166799E+02 -0.71353592043E+02  0.24543002770E+02  0.94632098812E+02  0.47000000000E+01 0.  1.
         11    1    4    4    0    0 -0.55363986091E+02  0.68708704188E+01  0.43053983697E+00  0.55790368172E+02  0.00000000000E+00 0. -1.
        -12    1    4    4    0    0 -0.12178599086E+03  0.23105315071E+02  0.13682628283E+03  0.18462696127E+03  0.00000000000E+00 0.  1.
</event>
<event>
12    1  0.8344842E-002  0.2717843E+03  0.7818608E-02  0.1100288E+00
         21   -1    0    0  501  502  0.00000000000E+00  0.00000000000E+00  0.13514126656E+04  0.13514126656E+04  0.00000000000E+00 0. -1.
         21   -1    0    0  502  503 -0.00000000000E+00 -0.00000000000E+00 -0.98423154404E+02  0.98423154404E+02  0.00000000000E+00 0.  1.
         -6    2    1    2    0  503 -0.43272589764E+02 -0.20588405339E+03  0.14279577932E+03  0.30685863266E+03  0.17178715138E+03 0.  0.
        -24    2    3    3    0    0 -0.29344196520E+02 -0.12029838106E+03  0.13952479564E+02  0.15148298032E+03  0.86137328062E+02 0.  0.
          6    2    1    2  501    0  0.43272589764E+02  0.20588405339E+03  0.11101937319E+04  0.11429771874E+04  0.17206384873E+03 0.  0.
         24    2    5    5    0    0  0.12418811485E+02  0.56386218878E+02  0.65610794397E+03  0.66389728698E+03  0.83356709177E+02 0.  0.
          5    1    5    5  501    0  0.30853778279E+02  0.14949783451E+03  0.45408578793E+03  0.47907990039E+03  0.47000000000E+01 0. -1.
        -11    1    6    6    0    0  0.20558123483E+02  0.83772959173E+01  0.39034248134E+02  0.44905323241E+02  0.00000000000E+00 0.  1.
         12    1    6    6    0    0 -0.81393119986E+01  0.48008922961E+02  0.61707369584E+03  0.61899196374E+03  0.00000000000E+00 0. -1.
         -5    1    3    3    0  503 -0.13928393244E+02 -0.85585672328E+02  0.12884329976E+03  0.15537565234E+03  0.47000000000E+01 0.  1.
         13    1    4    4    0    0 -0.11982316809E+02 -0.40329881778E+02  0.47134200210E+02  0.63179966048E+02  0.00000000000E+00 0. -1.
        -14    1    4    4    0    0 -0.17361879711E+02 -0.79968499282E+02 -0.33181720646E+02  0.88303014273E+02  0.00000000000E+00 0.  1.
</event>
<event>
12    1  0.8344842E-002  0.1995030E+03  0.7818608E-02  0.1150846E+00
         21   -1    0    0  501  502  0.00000000000E+00  0.00000000000E+00  0.80199541884E+02  0.80199541884E+02  0.00000000000E+00 0.  1.
         21   -1    0    0  502  503 -0.00000000000E+00 -0.00000000000E+00 -0.58437800762E+03  0.58437800762E+03  0.00000000000E+00 0. -1.
         -6    2    1    2    0  503 -0.60661454163E+01 -0.10076084879E+03 -0.11564942883E+03  0.22782104363E+03  0.16833921338E+03 0.  0.
        -24    2    3    3    0    0  0.57538349977E+02 -0.59960413699E+02 -0.44792400703E+02  0.12412429453E+03  0.80588885112E+02 0.  0.
          6    2    1    2  501    0  0.60661454163E+01  0.10076084879E+03 -0.38852903691E+03  0.43675650588E+03  0.17208104525E+03 0.  0.
         24    2    5    5    0    0  0.53311590577E+02  0.88453432281E+02 -0.17790541332E+03  0.22049738952E+03  0.79389088217E+02 0.  0.
          5    1    5    5  501    0 -0.47245445161E+02  0.12307416511E+02 -0.21062362359E+03  0.21625911635E+03  0.47000000000E+01 0. -1.
        -11    1    6    6    0    0 -0.46653329924E+01  0.68904050652E+02 -0.96172304113E+02  0.11840036151E+03  0.00000000000E+00 0.  1.
         12    1    6    6    0    0  0.57976923570E+02  0.19549381629E+02 -0.81733109202E+02  0.10209702801E+03  0.00000000000E+00 0. -1.
         -5    1    3    3    0  503 -0.63604495394E+02 -0.40800435093E+02 -0.70857028123E+02  0.10369674909E+03  0.47000000000E+01 0.  1.
         13    1    4    4    0    0  0.56949383714E+02 -0.18762558130E+01 -0.28963875873E+02  0.63919157901E+02  0.00000000000E+00 0. -1.
        -14    1    4    4    0    0  0.58896626384E+00 -0.58084157886E+02 -0.15828524830E+02  0.60205136632E+02  0.00000000000E+00 0.  1.
</event>
<event>
12    1  0.8344842E-002  0.2434846E+03  0.7818608E-02  0.1117560E+00
         21   -1    0    0  503  502  0.00000000000E+00  0.00000000000E+00  0.74214482692E+03  0.74214482692E+03  0.00000000000E+00 0. -1.
         21   -1    0    0  501  503 -0.00000000000E+00 -0.00000000000E+00 -0.39917936871E+03  0.39917936871E+03  0.00000000000E+00 0.  1.
          6    2    1    2  501    0  0.74958584032E+02 -0.15512296339E+03 -0.33897354390E+03  0.41735813841E+03  0.17205472719E+03 0.  0.
         24    2    3    3    0    0 -0.23189355991E+02 -0.98121358534E+02 -0.15716416178E+03  0.20297776965E+03  0.79585513701E+02 0.  0.
         -6    2    1    2    0  502 -0.74958584032E+02  0.15512296339E+03  0.68193900211E+03  0.72396605722E+03  0.17147631419E+03 0.  0.
        -24    2    5    5    0    0 -0.12886736333E+02  0.33347079216E+02  0.41730116209E+03  0.42607756028E+03  0.78254276735E+02 0.  0.
          5    1    3    3  501    0  0.98147940022E+02 -0.57001604853E+02 -0.18180938212E+03  0.21438036877E+03  0.47000000000E+01 0. -1.
        -13    1    4    4    0    0 -0.37754764612E+02 -0.17342701732E+02 -0.80852232239E+02  0.90902557788E+02  0.00000000000E+00 0.  1.
         14    1    4    4    0    0  0.14565408622E+02 -0.80778656803E+02 -0.76311929541E+02  0.11207521186E+03  0.00000000000E+00 0. -1.
         -5    1    5    5    0  502 -0.62071847698E+02  0.12177588417E+03  0.26463784002E+03  0.29788849695E+03  0.47000000000E+01 0.  1.
         11    1    6    6    0    0 -0.21454890202E+02  0.47878969377E+02  0.39304802129E+03  0.39653430503E+03  0.00000000000E+00 0. -1.
        -12    1    6    6    0    0  0.85681538683E+01 -0.14531890161E+02  0.24253140796E+02  0.29543255251E+02  0.00000000000E+00 0.  1.
</event>
<event>
12    1  0.8344842E-002  0.2227878E+03  0.7818608E-02  0.1132039E+00
         21   -1    0    0  501  502  0.00000000000E+00  0.00000000000E+00  0.27833727854E+03  0.27833727854E+03  0.00000000000E+00 0.  1.
         21   -1    0    0  502  503 -0.00000000000E+00 -0.00000000000E+00 -0.19687386599E+03  0.19687386599E+03  0.00000000000E+00 0.  1.
         -6    2    1    2    0  503  0.82073396890E+02 -0.11435613547E+03 -0.33941872713E+02  0.22535847295E+03  0.17268764406E+03 0.  0.
        -24    2    3    3    0    0  0.79523724134E+01  0.20887275145E+01  0.63973734610E+01  0.81474223753E+02  0.80805443749E+02 0.  0.
          6    2    1    2  501    0 -0.82073396890E+02  0.11435613547E+03  0.11540528526E+03  0.24985267158E+03  0.17115668095E+03 0.  0.
         24    2    5    5    0    0 -0.11318637561E+03  0.12610135793E+03  0.90986650168E+02  0.20832764978E+03  0.80057048768E+02 0.  0.
          5    1    5    5  501    0  0.31112978721E+02 -0.11745222464E+02  0.24418635094E+02  0.41525021800E+02  0.47000000000E+01 0. -1.
        -13    1    6    6    0    0  0.13553647317E-01  0.46559213211E+02  0.87315239199E+01  0.47370877430E+02  0.00000000000E+00 0.  1.
         14    1    6    6    0    0 -0.11319992926E+03  0.79542144721E+02  0.82255126248E+02  0.16095677235E+03  0.00000000000E+00 0. -1.
         -5    1    3    3    0  503  0.74121024476E+02 -0.11644486298E+03 -0.40339246174E+02  0.14388424919E+03  0.47000000000E+01 0.  1.
         13    1    4    4    0    0  0.22068274675E+02  0.26866154400E+02 -0.22069640516E+02  0.41180918298E+02  0.00000000000E+00 0. -1.
        -14    1    4    4    0    0 -0.14115902262E+02 -0.24777426886E+02  0.28467013977E+02  0.40293305455E+02  0.00000000000E+00 0.  1.
</event>
<event>
12    1  0.8344842E-002  0.2017016E+03  0.7818608E-02  0.1148721E+00
         21   -1    0    0  501  502  0.00000000000E+00  0.00000000000E+00  0.24153851958E+03  0.24153851958E+03  0.00000000000E+00 0.  1.
         21   -1    0    0  502  503 -0.00000000000E+00 -0.00000000000E+00 -0.17484930131E+03  0.17484930131E+03  0.00000000000E+00 0.  1.
         -6    2    1    2    0  503  0.64866020193E+02 -0.81295001631E+02  0.78145904070E+02  0.21631073508E+03  0.17282093022E+03 0.  0.
        -24    2    3    3    0    0  0.25112707259E+01 -0.70047412817E+02 -0.27098543060E+02  0.93375359019E+02  0.55422740035E+02 0.  0.
          6    2    1    2  501    0 -0.64866020193E+02  0.81295001631E+02 -0.11456685800E+02  0.20007708580E+03  0.17053769891E+03 0.  0.
         24    2    5    5    0    0 -0.58555116219E+02  0.11290647273E+03 -0.40804802092E+02  0.15623059742E+03  0.81033292400E+02 0.  0.
          5    1    5    5  501    0 -0.63109039748E+01 -0.31611471096E+02  0.29348116291E+02  0.43846488385E+02  0.47000000000E+01 0. -1.
        -11    1    6    6    0    0 -0.20046116290E+02  0.52162827533E+02  0.22669334244E+02  0.60305108155E+02  0.00000000000E+00 0.  1.
         12    1    6    6    0    0 -0.38508999929E+02  0.60743645194E+02 -0.63474136336E+02  0.95925489264E+02  0.00000000000E+00 0. -1.
         -5    1    3    3    0  503  0.62354749467E+02 -0.11247588814E+02  0.10524444713E+03  0.12293537606E+03  0.47000000000E+01 0.  1.
         13    1    4    4    0    0 -0.16389391799E+02 -0.38888331207E+01  0.48292311058E+01  0.17523032262E+02  0.00000000000E+00 0. -1.
        -14    1    4    4    0    0  0.18900662525E+02 -0.66158579697E+02 -0.31927774166E+02  0.75852326758E+02  0.00000000000E+00 0.  1.
</event>
<event>
12    1  0.8344842E-002  0.2120960E+03  0.7818608E-02  0.1139988E+00
         21   -1    0    0  501  502  0.00000000000E+00  0.00000000000E+00  0.13380720770E+04  0.13380720770E+04  0.00000000000E+00 0.  1.
         21   -1    0    0  502  503 -0.00000000000E+00 -0.00000000000E+00 -0.35802669294E+02  0.35802669294E+02  0.00000000000E+00 0.  1.
         -6    2    1    2    0  503 -0.84423206293E+02 -0.90170143653E+02  0.82354791790E+03  0.85042101108E+03  0.17241458884E+03 0.  0.
        -24    2    3    3    0    0 -0.50968698032E+02 -0.56106210120E+02  0.77315580489E+03  0.78084363873E+03  0.78747536496E+02 0.  0.
          6    2    1    2  501    0  0.84423206293E+02  0.90170143653E+02  0.47872148979E+03  0.52345373520E+03  0.17196399489E+03 0.  0.
         24    2    5    5    0    0  0.62756559209E+02  0.12912008503E+03  0.33824437756E+03  0.37600052028E+03  0.79729230644E+02 0.  0.
          5    1    5    5  501    0  0.21666647084E+02 -0.38949941374E+02  0.14047711223E+03  0.14745321492E+03  0.47000000000E+01 0. -1.
        -13    1    6    6    0    0  0.50579495868E+02  0.67294093576E+02  0.27131558232E+03  0.28407556327E+03  0.00000000000E+00 0.  1.
         14    1    6    6    0    0  0.12177063341E+02  0.61825991451E+02  0.66928795234E+02  0.91924957014E+02  0.00000000000E+00 0. -1.
         -5    1    3    3    0  503 -0.33454508261E+02 -0.34063933532E+02  0.50392113007E+02  0.69577372356E+02  0.47000000000E+01 0.  1.
         13    1    4    4    0    0  0.69831101341E+01  0.14199888469E+02  0.67493598243E+02  0.69323779928E+02  0.00000000000E+00 0. -1.
        -14    1    4    4    0    0 -0.57951808166E+02 -0.70306098590E+02  0.70566220665E+03  0.71151985880E+03  0.00000000000E+00 0.  1.
</event>
<event>
12    1  0.8344842E-002  0.1996789E+03  0.7818608E-02  0.1150217E+00
         21   -1    0    0  501  502  0.00000000000E+00  0.00000000000E+00  0.10404735450E+03  0.10404735450E+03  0.00000000000E+00 0. -1.
         21   -1    0    0  502  503 -0.00000000000E+00 -0.00000000000E+00 -0.52517062354E+03  0.52517062354E+03  0.00000000000E+00 0. -1.
         -6    2    1    2    0  503  0.75254259739E+02 -0.68066286087E+02 -0.37558238217E+03  0.42536314764E+03  0.17197516875E+03 0.  0.
        -24    2    3    3    0    0  0.86671583873E+02 -0.10711350525E+03 -0.30744581628E+03  0.34586646705E+03  0.78201129301E+02 0.  0.
          6    2    1    2  501    0 -0.75254259739E+02  0.68066286087E+02 -0.45540886878E+02  0.20385483040E+03  0.17084085164E+03 0.  0.
         24    2    5    5    0    0  0.60679803578E+01 -0.54034279334E+01 -0.79197524024E-01  0.85111574540E+02  0.84722821184E+02 0.  0.
          5    1    5    5  501    0 -0.81322240097E+02  0.73469714021E+02 -0.45461689354E+02  0.11874325586E+03  0.47000000000E+01 0. -1.
        -13    1    6    6    0    0 -0.35251732411E+02 -0.18249772331E+02 -0.95241098620E+01  0.40822144686E+02  0.00000000000E+00 0.  1.
         14    1    6    6    0    0  0.41319712769E+02  0.12846344398E+02  0.94449123380E+01  0.44289429853E+02  0.00000000000E+00 0. -1.
         -5    1    3    3    0  503 -0.11417324134E+02  0.39047219160E+02 -0.68136565891E+02  0.79496680597E+02  0.47000000000E+01 0.  1.
         11    1    4    4    0    0 -0.10106749022E+02 -0.35087843087E+02 -0.91337696997E+02  0.98366040893E+02  0.00000000000E+00 0. -1.
        -12    1    4    4    0    0  0.96778332895E+02 -0.72025662161E+02 -0.21610811928E+03  0.24750042615E+03  0.00000000000E+00 0.  1.
</event>
<event>
12    1  0.8344842E-002  0.3918188E+03  0.7818608E-02  0.1046664E+00
         21   -1    0    0  501  502  0.00000000000E+00  0.00000000000E+00  0.75713853189E+03  0.75713853189E+03  0.00000000000E+00 0.  1.
         21   -1    0    0  502  503 -0.00000000000E+00 -0.00000000000E+00 -0.39758966964E+03  0.39758966964E+03  0.00000000000E+00 0.  1.
         -6    2    1    2    0  503  0.33002296252E+03  0.12151102844E+03 -0.22445397014E+03  0.45155463934E+03  0.17274814551E+03 0.  0.
        -24    2    3    3    0    0  0.30949618376E+03  0.62395276005E+02 -0.20792279236E+03  0.38665941093E+03  0.81194545658E+02 0.  0.
          6    2    1    2  501    0 -0.33002296252E+03 -0.12151102844E+03  0.58400283239E+03  0.70317356219E+03  0.17237651958E+03 0.  0.
         24    2    5    5    0    0 -0.19331311441E+03 -0.73961919929E+02  0.22330504523E+03  0.31448926363E+03  0.78727554945E+02 0.  0.
          5    1    5    5  501    0 -0.13670984811E+03 -0.47549108510E+02  0.36069778716E+03  0.38868429856E+03  0.47000000000E+01 0. -1.
        -13    1    6    6    0    0 -0.10699772762E+03 -0.69993505184E+02  0.17089335716E+03  0.21342948252E+03  0.00000000000E+00 0.  1.
         14    1    6    6    0    0 -0.86315386788E+02 -0.39684147448E+01  0.52411688069E+02  0.10105978111E+03  0.00000000000E+00 0. -1.
         -5    1    3    3    0  503  0.20526778751E+02  0.59115752434E+02 -0.16531177783E+02  0.64895228412E+02  0.47000000000E+01 0.  1.
         11    1    4    4    0    0  0.72559912503E+02  0.46869974449E+02 -0.75844807213E+02  0.11495290422E+03  0.00000000000E+00 0. -1.
        -12    1    4    4    0    0  0.23693627126E+03  0.15525301556E+02 -0.13207798514E+03  0.27170650671E+03  0.00000000000E+00 0.  1.
</event>
<event>
12    1  0.8344842E-002  0.1988544E+03  0.7818608E-02  0.1150791E+00
         21   -1    0    0  503  502  0.00000000000E+00  0.00000000000E+00  0.40647676175E+02  0.40647676175E+02  0.00000000000E+00 0. -1.
         21   -1    0    0  501  503 -0.00000000000E+00 -0.00000000000E+00 -0.10053688939E+04  0.10053688939E+04  0.00000000000E+00 0. -1.
          6    2    1    2  501    0  0.55621312771E+02 -0.81070071543E+02 -0.38511230047E+03  0.43324453914E+03  0.17240434969E+03 0.  0.
         24    2    3    3    0    0  0.66234496629E+02 -0.11837639184E+03 -0.33293711028E+03  0.36806216671E+03  0.78883841603E+02 0.  0.
         -6    2    1    2    0  502 -0.55621312771E+02  0.81070071543E+02 -0.57960891725E+03  0.61277203092E+03  0.17284958199E+03 0.  0.
        -24    2    5    5    0    0 -0.35776887441E+02  0.80220370185E+02 -0.58028609618E+03  0.59234969559E+03  0.80192985838E+02 0.  0.
          5    1    3    3  501    0 -0.10613183858E+02  0.37306320300E+02 -0.52175190184E+02  0.65182372439E+02  0.47000000000E+01 0. -1.
        -11    1    4    4    0    0  0.54079009950E+02 -0.24950368007E+02 -0.94682510528E+02  0.11185632741E+03  0.00000000000E+00 0.  1.
         12    1    4    4    0    0  0.12155486679E+02 -0.93426023836E+02 -0.23825459976E+03  0.25620583930E+03  0.00000000000E+00 0. -1.
         -5    1    5    5    0  502 -0.19844425330E+02  0.84970135768E+00  0.67717893393E+00  0.20422335332E+02  0.47000000000E+01 0.  1.
         11    1    6    6    0    0  0.94511590202E+01  0.20397120244E+02 -0.33741887995E+03  0.33816692249E+03  0.00000000000E+00 0. -1.
        -12    1    6    6    0    0 -0.45228046461E+02  0.59823249941E+02 -0.24286721623E+03  0.25418277310E+03  0.00000000000E+00 0.  1.
</event>
<event>
12    1  0.8344842E-002  0.2033325E+03  0.7818608E-02  0.1147208E+00
         21   -1    0    0  503  502  0.00000000000E+00  0.00000000000E+00  0.43433133690E+03  0.43433133690E+03  0.00000000000E+00 0.  1.
         21   -1    0    0  501  503 -0.00000000000E+00 -0.00000000000E+00 -0.10044958601E+03  0.10044958601E+03  0.00000000000E+00 0.  1.
          6    2    1    2  501    0  0.10562013258E+03 -0.13594334252E+02  0.23085687155E+03  0.30683743879E+03  0.17179610115E+03 0.  0.
         24    2    3    3    0    0  0.41332575505E+02  0.20862021314E+02  0.21027407043E+03  0.23090409871E+03  0.83414101769E+02 0.  0.
         -6    2    1    2    0  502 -0.10562013258E+03  0.13594334252E+02  0.10302487935E+03  0.22794348412E+03  0.17321572636E+03 0.  0.
        -24    2    5    5    0    0 -0.91739800307E+02  0.72957504111E+02  0.73404574494E+02  0.16000158233E+03  0.80456736354E+02 0.  0.
          5    1    3    3  501    0  0.64287557076E+02 -0.34456355565E+02  0.20582801119E+02  0.75933340079E+02  0.47000000000E+01 0. -1.
        -13    1    4    4    0    0  0.60424486018E+02  0.95113712053E+01  0.19387306016E+03  0.20329374843E+03  0.00000000000E+00 0.  1.
         14    1    4    4    0    0 -0.19091910512E+02  0.11350650108E+02  0.16401010269E+02  0.27610350283E+02  0.00000000000E+00 0. -1.
         -5    1    5    5    0  502 -0.13880332274E+02 -0.59363169859E+02  0.29620304852E+02  0.67941901793E+02  0.47000000000E+01 0.  1.
         11    1    6    6    0    0 -0.74484141801E+02  0.64114802658E+02  0.90910980899E+02  0.13387830947E+03  0.00000000000E+00 0. -1.
        -12    1    6    6    0    0 -0.17255658506E+02  0.88427014532E+01 -0.17506406404E+02  0.26123272855E+02  0.00000000000E+00 0.  1.
</event>
<event>
12    1  0.8344842E-002  0.2069704E+03  0.7818608E-02  0.1144538E+00
         21   -1    0    0  501  502  0.00000000000E+00  0.00000000000E+00  0.94655994933E+02  0.94655994933E+02  0.00000000000E+00 0.  1.
         21   -1    0    0  502  503 -0.00000000000E+00 -0.00000000000E+00 -0.48679535017E+03  0.48679535017E+03  0.00000000000E+00 0. -1.
         -6    2    1    2    0  503 -0.90337682145E+02 -0.69931295784E+02 -0.28074611223E+03  0.34879095619E+03  0.17258467093E+03 0.  0.
        -24    2    3    3    0    0 -0.11919056170E+02  0.26576628649E+01 -0.51414675879E+02  0.95742274080E+02  0.79837253700E+02 0.  0.
          6    2    1    2  501    0  0.90337682145E+02  0.69931295784E+02 -0.11139324301E+03  0.23266038892E+03  0.16932548254E+03 0.  0.
         24    2    5    5    0    0  0.81635631713E+02  0.15383332211E+02 -0.83460434531E+01  0.11564747789E+03  0.80022868138E+02 0.  0.
          5    1    5    5  501    0  0.87020504328E+01  0.54547963573E+02 -0.10304719955E+03  0.11701291103E+03  0.47000000000E+01 0. -1.
        -13    1    6    6    0    0  0.41807104784E+02 -0.31232053017E+02 -0.14124210528E+02  0.54062634685E+02  0.00000000000E+00 0.  1.
         14    1    6    6    0    0  0.39828526929E+02  0.46615385228E+02  0.57781670747E+01  0.61584843201E+02  0.00000000000E+00 0. -1.
         -5    1    3    3    0  503 -0.78418625976E+02 -0.72588958649E+02 -0.22933143635E+03  0.25304868211E+03  0.47000000000E+01 0.  1.
         13    1    4    4    0    0  0.29544281469E+01  0.40205635915E+02 -0.27608025836E+02  0.48861282173E+02  0.00000000000E+00 0. -1.
        -14    1    4    4    0    0 -0.14873484317E+02 -0.37547973051E+02 -0.23806650042E+02  0.46880991907E+02  0.00000000000E+00 0.  1.
</event>
<event>
12    1  0.8344842E-002  0.1951371E+03  0.7818608E-02  0.1153965E+00
         21   -1    0    0  503  502  0.00000000000E+00  0.00000000000E+00  0.97596382713E+02  0.97596382713E+02  0.00000000000E+00 0. -1.
         21   -1    0    0  501  503 -0.00000000000E+00 -0.00000000000E+00 -0.91990775614E+03  0.91990775614E+03  0.00000000000E+00 0. -1.
          6    2    1    2  501    0  0.32825957594E+01 -0.92481999815E+02 -0.79753422544E+03  0.82105988759E+03  0.17179872682E+03 0.  0.
         24    2    3    3    0    0 -0.20104736296E+02  0.16604048016E+01 -0.19465677162E+03  0.21041017297E+03  0.77293109550E+02 0.  0.
         -6    2    1    2    0  502 -0.32825957594E+01  0.92481999815E+02 -0.24777147990E+02  0.19644425126E+03  0.17150143168E+03 0.  0.
        -24    2    5    5    0    0 -0.15755195529E+02  0.24877505516E+02 -0.73748500751E+02  0.11190895221E+03  0.78852113197E+02 0.  0.
          5    1    3    3  501    0  0.23387332056E+02 -0.94142404616E+02 -0.60287745382E+03  0.61064971462E+03  0.47000000000E+01 0. -1.
        -13    1    4    4    0    0 -0.46395244874E+02 -0.36706337005E+01 -0.79057586762E+02  0.91739273614E+02  0.00000000000E+00 0.  1.
         14    1    4    4    0    0  0.26290508577E+02  0.53310385021E+01 -0.11559918486E+03  0.11867089935E+03  0.00000000000E+00 0. -1.
         -5    1    5    5    0  502  0.12472599770E+02  0.67604494299E+02  0.48971352761E+02  0.84535299051E+02  0.47000000000E+01 0.  1.
         13    1    6    6    0    0 -0.16082669959E+02  0.36533434419E+02 -0.28067392535E+01  0.40015270694E+02  0.00000000000E+00 0. -1.
        -14    1    6    6    0    0  0.32747443002E+00 -0.11655928903E+02 -0.70941761498E+02  0.71893681520E+02  0.00000000000E+00 0.  1.
</event>
<event>
12    1  0.8344842E-002  0.1966662E+03  0.7818608E-02  0.1152689E+00
         21   -1    0    0  503  502  0.00000000000E+00  0.00000000000E+00  0.14778292683E+03  0.14778292683E+03  0.00000000000E+00 0.  1.
         21   -1    0    0  501  503 -0.00000000000E+00 -0.00000000000E+00 -0.48937848461E+03  0.48937848461E+03  0.00000000000E+00 0.  1.
          6    2    1    2  501    0 -0.88764088993E+02  0.31506495651E+02 -0.38828578131E+03  0.43502886361E+03  0.17208294931E+03 0.  0.
         24    2    3    3    0    0 -0.31787608722E+02  0.48363454499E+02 -0.35119668821E+03  0.36482795769E+03  0.80067778154E+02 0.  0.
         -6    2    1    2    0  502  0.88764088993E+02 -0.31506495651E+02  0.46690223539E+02  0.20213254783E+03  0.17264375794E+03 0.  0.
        -24    2    5    5    0    0  0.53160367836E+02  0.47011270893E+02  0.38607403316E+02  0.11541411492E+03  0.82424523246E+02 0.  0.
          5    1    3    3  501    0 -0.56976480271E+02 -0.16856958848E+02 -0.37089093096E+02  0.70200905923E+02  0.47000000000E+01 0. -1.
        -11    1    4    4    0    0 -0.25279693185E+02 -0.99738471029E+01 -0.41423747637E+02  0.49542581502E+02  0.00000000000E+00 0.  1.
         12    1    4    4    0    0 -0.65079155369E+01  0.58337301602E+02 -0.30977294058E+03  0.31528537619E+03  0.00000000000E+00 0. -1.
         -5    1    5    5    0  502  0.35603721157E+02 -0.78517766544E+02  0.80828202226E+01  0.86718432909E+02  0.47000000000E+01 0.  1.
         13    1    6    6    0    0  0.17022316613E+01 -0.11039751241E+01 -0.22236064283E+02  0.22328432737E+02  0.00000000000E+00 0. -1.
        -14    1    6    6    0    0  0.51458136175E+02  0.48115246017E+02  0.60843467599E+02  0.93085682182E+02  0.00000000000E+00 0.  1.
</event>
<event>
12    1  0.8344842E-002  0.1898216E+03  0.7818608E-02  0.1158781E+00
         21   -1    0    0  501  502  0.00000000000E+00  0.00000000000E+00  0.45450347647E+03  0.45450347647E+03  0.00000000000E+00 0.  1.
         21   -1    0    0  502  503 -0.00000000000E+00 -0.00000000000E+00 -0.59670807861E+03  0.59670807861E+03  0.00000000000E+00 0.  1.
         -6    2    1    2    0  503  0.78836718114E+02  0.11715337113E+02 -0.56066945758E+03  0.59170630271E+03  0.17150402550E+03 0.  0.
        -24    2    3    3    0    0  0.76093053216E+02 -0.25778761542E+02 -0.53322975962E+03  0.54492636946E+03  0.78460654444E+02 0.  0.
          6    2    1    2  501    0 -0.78836718114E+02 -0.11715337113E+02  0.41846485545E+03  0.45950525237E+03  0.17227816014E+03 0.  0.
         24    2    5    5    0    0 -0.35871056413E+02 -0.45130099479E+02  0.11998599197E+03  0.15606775243E+03  0.81468070498E+02 0.  0.
          5    1    5    5  501    0 -0.42965661701E+02  0.33414762367E+02  0.29847886347E+03  0.30343749994E+03  0.47000000000E+01 0. -1.
        -13    1    6    6    0    0 -0.52082665811E+02 -0.48331724914E+01  0.87052495638E+02  0.10155836072E+03  0.00000000000E+00 0.  1.
         14    1    6    6    0    0  0.16211609398E+02 -0.40296926988E+02  0.32933496335E+02  0.54509391712E+02  0.00000000000E+00 0. -1.
         -5    1    3    3    0  503  0.27436648975E+01  0.37494098655E+02 -0.27439697961E+02  0.46779933254E+02  0.47000000000E+01 0.  1.
         11    1    4    4    0    0  0.28786090160E+02 -0.20402733966E+02 -0.62312366147E+02  0.71608250326E+02  0.00000000000E+00 0. -1.
        -12    1    4    4    0    0  0.47306963056E+02 -0.53760275766E+01 -0.47091739347E+03  0.47331811913E+03  0.00000000000E+00 0.  1.
</event>
<event>
12    1  0.8344842E-002  0.1844889E+03  0.7818608E-02  0.1163550E+00
         21   -1    0    0  501  502  0.00000000000E+00  0.00000000000E+00  0.96378780989E+02  0.96378780989E+02  0.00000000000E+00 0. -1.
         21   -1    0    0  502  503 -0.00000000000E+00 -0.00000000000E+00 -0.54746299737E+03  0.54746299737E+03  0.00000000000E+00 0. -1.
         -6    2    1    2    0  503 -0.45437865057E+02  0.44733490776E+02 -0.41738218690E+03  0.45629979323E+03  0.17302001787E+03 0.  0.
        -24    2    3    3    0    0 -0.53827805061E+02  0.36942666316E+02 -0.11247262038E+03  0.15113914408E+03  0.77011410482E+02 0.  0.
          6    2    1    2  501    0  0.45437865057E+02 -0.44733490776E+02 -0.33702029480E+02  0.18754198513E+03  0.17311985621E+03 0.  0.
         24    2    5    5    0    0  0.97766802469E+02 -0.28491139784E+02 -0.19021700663E+02  0.13062332640E+03  0.79564662971E+02 0.  0.
          5    1    5    5  501    0 -0.52328937412E+02 -0.16242350992E+02 -0.14680328816E+02  0.56918658721E+02  0.47000000000E+01 0. -1.
        -13    1    6    6    0    0  0.19812175723E+02  0.42872068701E+01 -0.38799610660E+02  0.43775703729E+02  0.00000000000E+00 0.  1.
         14    1    6    6    0    0  0.77954626746E+02 -0.32778346654E+02  0.19777909997E+02  0.86847622676E+02  0.00000000000E+00 0. -1.
         -5    1    3    3    0  503  0.83899400045E+01  0.77908244598E+01 -0.30490956652E+03  0.30516064915E+03  0.47000000000E+01 0.  1.
         13    1    4    4    0    0  0.13039483092E+02  0.25641944762E+02 -0.15130304983E+02  0.32503285670E+02  0.00000000000E+00 0. -1.
        -14    1    4    4    0    0 -0.66867288154E+02  0.11300721554E+02 -0.97342315400E+02  0.11863585841E+03  0.00000000000E+00 0.  1.
</event>
<event>
12    1  0.8344842E-002  0.2761442E+03  0.7818608E-02  0.1097987E+00
         21   -1    0    0  503  502  0.00000000000E+00  0.00000000000E+00  0.22147322837E+03  0.22147322837E+03  0.00000000000E+00 0. -1.
         21   -1    0    0  501  503 -0.00000000000E+00 -0.00000000000E+00 -0.68880580123E+03  0.68880580123E+03  0.00000000000E+00 0. -1.
          6    2    1    2  501    0  0.21188069966E+03 -0.32568644875E+02 -0.55652736578E+03  0.62127154703E+03  0.17407319947E+03 0.  0.
         24    2    3    3    0    0  0.97112921944E+02  0.42783498368E+02 -0.21283653352E+03  0.25114310112E+03  0.80697706899E+02 0.  0.
         -6    2    1    2    0  502 -0.21188069966E+03  0.32568644875E+02  0.89194792933E+02  0.28900748257E+03  0.17209144771E+03 0.  0.
        -24    2    5    5    0    0 -0.15938420347E+03 -0.42982600641E+02  0.68573988456E+02  0.19460843390E+03  0.76936482765E+02 0.  0.
          5    1    3    3  501    0  0.11476777771E+03 -0.75352143243E+02 -0.34369083226E+03  0.37012844591E+03  0.47000000000E+01 0. -1.
        -11    1    4    4    0    0  0.20363651428E+02 -0.22649193552E+01 -0.12298200781E+03  0.12467711259E+03  0.00000000000E+00 0.  1.
         12    1    4    4    0    0  0.76749270516E+02  0.45048417724E+02 -0.89854525711E+02  0.12646598853E+03  0.00000000000E+00 0. -1.
         -5    1    5    5    0  502 -0.52496496187E+02  0.75551245515E+02  0.20620804476E+02  0.94399048661E+02  0.47000000000E+01 0.  1.
         11    1    6    6    0    0 -0.15209215308E+03 -0.26922514970E+02  0.37604401177E+02  0.15896834851E+03  0.00000000000E+00 0. -1.
        -12    1    6    6    0    0 -0.72920503925E+01 -0.16060085671E+02  0.30969587279E+02  0.35640085394E+02  0.00000000000E+00 0.  1.
</event>
<event>
12    1  0.8344842E-002  0.3848207E+03  0.7818608E-02  0.1049231E+00
         21   -1    0    0  501  502  0.00000000000E+00  0.00000000000E+00  0.45262102474E+03  0.45262102474E+03  0.00000000000E+00 0.  1.
         21   -1    0    0  502  503 -0.00000000000E+00 -0.00000000000E+00 -0.35778033342E+03  0.35778033342E+03  0.00000000000E+00 0. -1.
         -6    2    1    2    0  503 -0.34023955466E+03  0.46692457763E+02 -0.72301716255E+02  0.39084971409E+03  0.17202563957E+03 0.  0.
        -24    2    3    3    0    0 -0.86777881395E+02  0.31474209444E+01 -0.61878475575E+02  0.13342064815E+03  0.80198607572E+02 0.  0.
          6    2    1    2  501    0  0.34023955466E+03 -0.46692457763E+02  0.16714240758E+03  0.41955164406E+03  0.17361986482E+03 0.  0.
         24    2    5    5    0    0  0.19507300777E+03  0.42359846669E+01  0.16190896303E+03  0.26554998327E+03  0.78935792791E+02 0.  0.
          5    1    5    5  501    0  0.14516654689E+03 -0.50928442430E+02  0.52334445519E+01  0.15400166079E+03  0.47000000000E+01 0. -1.
        -11    1    6    6    0    0  0.14246797517E+03  0.22891657347E+01  0.67971943952E+02  0.15786877270E+03  0.00000000000E+00 0.  1.
         12    1    6    6    0    0  0.52605032595E+02  0.19468189322E+01  0.93937019073E+02  0.10768121057E+03  0.00000000000E+00 0. -1.
         -5    1    3    3    0  503 -0.25346167326E+03  0.43545036818E+02 -0.10423240680E+02  0.25742906594E+03  0.47000000000E+01 0.  1.
         13    1    4    4    0    0  0.75909687355E+01 -0.34869243163E+01  0.11134747301E+02  0.13919915409E+02  0.00000000000E+00 0. -1.
        -14    1    4    4    0    0 -0.94368850131E+02  0.66343452607E+01 -0.73013222876E+02  0.11950073275E+03  0.00000000000E+00 0.  1.
</event>
<event>
12    1  0.8344842E-002  0.1804668E+03  0.7818608E-02  0.1167434E+00
         21   -1    0    0  501  502  0.00000000000E+00  0.00000000000E+00  0.33407702654E+03  0.33407702654E+03  0.00000000000E+00 0. -1.
         21   -1    0    0  502  503 -0.00000000000E+00 -0.00000000000E+00 -0.10741061695E+03  0.10741061695E+03  0.00000000000E+00 0. -1.
         -6    2    1    2    0  503 -0.38602498933E+02 -0.39135535837E+02  0.45524215082E+02  0.18579100289E+03  0.17153454319E+03 0.  0.
        -24    2    3    3    0    0 -0.76271861304E+02  0.18662918547E+02  0.30371700996E+02  0.11500024874E+03  0.78338468411E+02 0.  0.
          6    2    1    2  501    0  0.38602498933E+02  0.39135535837E+02  0.18114219451E+03  0.25569664060E+03  0.17189105355E+03 0.  0.
         24    2    5    5    0    0 -0.37701290144E+02  0.10082077689E+02  0.66075981989E+02  0.11452761098E+03  0.85014720565E+02 0.  0.
          5    1    5    5  501    0  0.76303789078E+02  0.29053458148E+02  0.11506621252E+03  0.14116902961E+03  0.47000000000E+01 0. -1.
        -11    1    6    6    0    0 -0.53307536386E+02  0.35260372959E+02  0.45833981431E+02  0.78649483092E+02  0.00000000000E+00 0.  1.
         12    1    6    6    0    0  0.15606246242E+02 -0.25178295270E+02  0.20242000558E+02  0.35878127892E+02  0.00000000000E+00 0. -1.
         -5    1    3    3    0  503  0.37669362371E+02 -0.57798454384E+02  0.15152514085E+02  0.70790754154E+02  0.47000000000E+01 0.  1.
         11    1    4    4    0    0 -0.36557272340E+02  0.26771238803E+02 -0.20685206115E+02  0.49809749447E+02  0.00000000000E+00 0. -1.
        -12    1    4    4    0    0 -0.39714588964E+02 -0.81083202566E+01  0.51056907111E+02  0.65190499291E+02  0.00000000000E+00 0.  1.
</event>
<event>
12    1  0.8344842E-002  0.2211499E+03  0.7818608E-02  0.1133149E+00
         21   -1    0    0  503  502  0.00000000000E+00  0.00000000000E+00  0.18084336218E+03  0.18084336218E+03  0.00000000000E+00 0. -1.
         21   -1    0    0  501  503 -0.00000000000E+00 -0.00000000000E+00 -0.32668598558E+03  0.32668598558E+03  0.00000000000E+00 0. -1.
          6    2    1    2  501    0  0.13577463038E+03  0.17653165073E+02 -0.17886962655E+03  0.28392689589E+03  0.17284025693E+03 0.  0.
         24    2    3    3    0    0  0.60823665586E+02  0.15321358545E+02 -0.18184401367E+03  0.20873366864E+03  0.81044659268E+02 0.  0.
         -6    2    1    2    0  502 -0.13577463038E+03 -0.17653165073E+02  0.33027003147E+02  0.22360245187E+03  0.17366890642E+03 0.  0.
        -24    2    5    5    0    0 -0.13474045249E+03  0.18005111378E+02 -0.21062028474E+02  0.15863865007E+03  0.79015433174E+02 0.  0.
          5    1    3    3  501    0  0.74950964790E+02  0.23318065277E+01  0.29743871148E+01  0.75193227244E+02  0.47000000000E+01 0. -1.
        -11    1    4    4    0    0  0.24111045438E+02  0.47523919690E+02 -0.10355310146E+03  0.11646076712E+03  0.00000000000E+00 0.  1.
         12    1    4    4    0    0  0.36712620149E+02 -0.32202561145E+02 -0.78290912203E+02  0.92272901526E+02  0.00000000000E+00 0. -1.
         -5    1    5    5    0  502 -0.10341778906E+01 -0.35658276451E+02  0.54089031621E+02  0.64963801806E+02  0.47000000000E+01 0.  1.
         11    1    6    6    0    0 -0.10901432977E+03  0.66230698250E+01 -0.48356751571E+02  0.11944188784E+03  0.00000000000E+00 0. -1.
        -12    1    6    6    0    0 -0.25726122720E+02  0.11382041553E+02  0.27294723097E+02  0.39196762227E+02  0.00000000000E+00 0.  1.
</event>
<event>
12    1  0.8344842E-002  0.1767655E+03  0.7818608E-02  0.1171547E+00
         21   -1    0    0  503  502  0.00000000000E+00  0.00000000000E+00  0.52336888548E+03  0.52336888548E+03  0.00000000000E+00 0. -1.
         21   -1    0    0  501  503 -0.00000000000E+00 -0.00000000000E+00 -0.71760785583E+02  0.71760785583E+02  0.00000000000E+00 0. -1.
          6    2    1    2  501    0  0.40175420634E+02  0.78304231613E+01  0.10117085399E+03  0.20367029759E+03  0.17196124120E+03 0.  0.
         24    2    3    3    0    0 -0.25152968149E+02 -0.31432604396E+02  0.89298500523E+02  0.12638882186E+03  0.79870092464E+02 0.  0.
         -6    2    1    2    0  502 -0.40175420634E+02 -0.78304231613E+01  0.35043724590E+03  0.39145937347E+03  0.16958419093E+03 0.  0.
        -24    2    5    5    0    0  0.19282296081E+02  0.13079074529E+02  0.85463767817E+02  0.11905257976E+03  0.79539876825E+02 0.  0.
          5    1    3    3  501    0  0.65328388784E+02  0.39263027557E+02  0.11872353471E+02  0.77281475730E+02  0.47000000000E+01 0. -1.
        -13    1    4    4    0    0  0.10750509732E+02 -0.21998845094E+02 -0.50495477282E+01  0.25000411542E+02  0.00000000000E+00 0.  1.
         14    1    4    4    0    0 -0.35903477881E+02 -0.94337593016E+01  0.94348048251E+02  0.10138841032E+03  0.00000000000E+00 0. -1.
         -5    1    5    5    0  502 -0.59457716716E+02 -0.20909497690E+02  0.26497347808E+03  0.27240679371E+03  0.47000000000E+01 0.  1.
         13    1    6    6    0    0  0.19831643006E+02 -0.27574321462E+02  0.65445815417E+02  0.73734605336E+02  0.00000000000E+00 0. -1.
        -14    1    6    6    0    0 -0.54934692454E+00  0.40653395991E+02  0.20017952400E+02  0.45317974424E+02  0.00000000000E+00 0.  1.
</event>
<event>
12    1  0.8344842E-002  0.2870867E+03  0.7818608E-02  0.1091989E+00
         21   -1    0    0  503  502  0.00000000000E+00  0.00000000000E+00  0.24431561887E+03  0.24431561887E+03  0.00000000000E+00 0.  1.
         21   -1    0    0  501  503 -0.00000000000E+00 -0.00000000000E+00 -0.35213078189E+03  0.35213078189E+03  0.00000000000E+00 0. -1.
          6    2    1    2  501    0 -0.12207462715E+03 -0.19381160252E+03  0.90848584071E+01  0.28723040979E+03  0.17307114661E+03 0.  0.
         24    2    3    3    0    0 -0.46138374922E+02 -0.10936820843E+03  0.69500166068E+02  0.15850939127E+03  0.78770548951E+02 0.  0.
         -6    2    1    2    0  502  0.12207462715E+03  0.19381160252E+03 -0.11690002143E+03  0.30921599098E+03  0.17170836381E+03 0.  0.
        -24    2    5    5    0    0  0.13846153500E+03  0.10988676970E+03 -0.50762420882E+02  0.20101164486E+03  0.81130507004E+02 0.  0.
          5    1    3    3  501    0 -0.75936252224E+02 -0.84443394094E+02 -0.60415307661E+02  0.12872101852E+03  0.47000000000E+01 0. -1.
        -11    1    4    4    0    0  0.31115195694E+01 -0.69027169474E+02  0.72612561883E+01  0.69477748388E+02  0.00000000000E+00 0.  1.
         12    1    4    4    0    0 -0.49249894491E+02 -0.40341038955E+02  0.62238909880E+02  0.89031642883E+02  0.00000000000E+00 0. -1.
         -5    1    5    5    0  502 -0.16386907852E+02  0.83924832827E+02 -0.66137600545E+02  0.10820434612E+03  0.47000000000E+01 0.  1.
         13    1    6    6    0    0  0.21584626749E+02 -0.37839305384E+01  0.13531412795E+02  0.25754870888E+02  0.00000000000E+00 0. -1.
        -14    1    6    6    0    0  0.11687690825E+03  0.11367070023E+03 -0.64293833678E+02  0.17525677397E+03  0.00000000000E+00 0.  1.
</event>
<event>
12    1  0.8344842E-002  0.2053344E+03  0.7818608E-02  0.1145388E+00
         21   -1    0    0  501  502  0.00000000000E+00  0.00000000000E+00  0.58141374184E+03  0.58141374184E+03  0.00000000000E+00 0.  1.
         21   -1    0    0  502  503 -0.00000000000E+00 -0.00000000000E+00 -0.20750411883E+03  0.20750411883E+03  0.00000000000E+00 0.  1.
         -6    2    1    2    0  503  0.94886334611E+02 -0.59168937313E+02 -0.13140418075E+03  0.24347833679E+03  0.17178551199E+03 0.  0.
        -24    2    3    3    0    0  0.10375187553E+03 -0.38602098491E+02 -0.17650918909E+02  0.12744606863E+03  0.60633091520E+02 0.  0.
          6    2    1    2  501    0 -0.94886334611E+02  0.59168937313E+02  0.50531380376E+03  0.54543952388E+03  0.17221455892E+03 0.  0.
         24    2    5    5    0    0 -0.49275075925E+02  0.90615045445E+02  0.44602302648E+03  0.46415772453E+03  0.76594605045E+02 0.  0.
          5    1    5    5  501    0 -0.45611258685E+02 -0.31446108132E+02  0.59290777283E+02  0.81281799355E+02  0.47000000000E+01 0. -1.
        -11    1    6    6    0    0 -0.84811262146E+01  0.31345068293E+02  0.29596586739E+03  0.29774189741E+03  0.00000000000E+00 0.  1.
         12    1    6    6    0    0 -0.40793949711E+02  0.59269977152E+02  0.15005715908E+03  0.16641582712E+03  0.00000000000E+00 0. -1.
         -5    1    3    3    0  503 -0.88655409201E+01 -0.20566838822E+02 -0.11375326184E+03  0.11603226816E+03  0.47000000000E+01 0.  1.
         11    1    4    4    0    0  0.41673158946E+02 -0.22416994754E+02 -0.37406443694E+02  0.60319282656E+02  0.00000000000E+00 0. -1.
        -12    1    4    4    0    0  0.62078716585E+02 -0.16185103737E+02  0.19755524786E+02  0.67126785975E+02  0.00000000000E+00 0.  1.
</event>
<event>
12    1  0.8344842E-002  0.4001372E+03  0.7818608E-02  0.1044147E+00
         21   -1    0    0  501  502  0.00000000000E+00  0.00000000000E+00  0.40969233825E+03  0.40969233825E+03  0.00000000000E+00 0. -1.
         21   -1    0    0  502  503 -0.00000000000E+00 -0.00000000000E+00 -0.53906491715E+03  0.53906491715E+03  0.00000000000E+00 0.  1.
         -6    2    1    2    0  503 -0.36470290353E+03  0.31634105322E+00 -0.31760498534E+03  0.51086465042E+03  0.16462519984E+03 0.  0.
        -24    2    3    3    0    0 -0.31003032532E+03  0.19692766060E+02 -0.19334913227E+03  0.37365625535E+03  0.75686871800E+02 0.  0.
          6    2    1    2  501    0  0.36470290353E+03 -0.31634105322E+00  0.18823240644E+03  0.43789260497E+03  0.15267673934E+03 0.  0.
         24    2    5    5    0    0  0.13802433799E+03 -0.73596341541E+01  0.33332762857E+02  0.16321321070E+03  0.80141106643E+02 0.  0.
          5    1    5    5  501    0  0.22667856554E+03  0.70432931009E+01  0.15489964359E+03  0.27467939427E+03  0.47000000000E+01 0. -1.
        -13    1    6    6    0    0  0.39958356772E+02 -0.37070156671E+02  0.26259744867E+02  0.60501578426E+02  0.00000000000E+00 0.  1.
         14    1    6    6    0    0  0.98065981217E+02  0.29710522517E+02  0.70730179897E+01  0.10271163227E+03  0.00000000000E+00 0. -1.
         -5    1    3    3    0  503 -0.54672578212E+02 -0.19376425007E+02 -0.12425585307E+03  0.13720839507E+03  0.47000000000E+01 0.  1.
         13    1    4    4    0    0 -0.17851248655E+03  0.65539447213E+00 -0.15206840846E+03  0.23450359964E+03  0.00000000000E+00 0. -1.
        -14    1    4    4    0    0 -0.13151783878E+03  0.19037371588E+02 -0.41280723809E+02  0.13915265571E+03  0.00000000000E+00 0.  1.
</event>
<event>
12    1  0.8344842E-002  0.2286009E+03  0.7818608E-02  0.1127692E+00
         21   -1    0    0  503  502  0.00000000000E+00  0.00000000000E+00  0.79822991412E+02  0.79822991412E+02  0.00000000000E+00 0. -1.
         21   -1    0    0  501  503 -0.00000000000E+00 -0.00000000000E+00 -0.66214889649E+03  0.66214889649E+03  0.00000000000E+00 0. -1.
          6    2    1    2  501    0 -0.11275991978E+03 -0.98315341600E+02 -0.33340567832E+03  0.40424957984E+03  0.17285158536E+03 0.  0.
         24    2    3    3    0    0 -0.77165659997E+02 -0.10500623845E+02 -0.26710453896E+03  0.28850716297E+03  0.76333126262E+02 0.  0.
         -6    2    1    2    0  502  0.11275991978E+03  0.98315341600E+02 -0.24892022676E+03  0.33772230806E+03  0.17237857224E+03 0.  0.
        -24    2    5    5    0    0  0.32928748795E+02  0.95403581347E+02 -0.19471668075E+03  0.24107031062E+03  0.10007079029E+03 0.  0.
          5    1    3    3  501    0 -0.35594259787E+02 -0.87814717755E+02 -0.66301139359E+02  0.11574241688E+03  0.47000000000E+01 0. -1.
        -13    1    4    4    0    0 -0.18290653237E+02  0.31308356753E+02 -0.75742938050E+02  0.83974721570E+02  0.00000000000E+00 0.  1.
         14    1    4    4    0    0 -0.58875006760E+02 -0.41808980598E+02 -0.19136160091E+03  0.20453244140E+03  0.00000000000E+00 0. -1.
         -5    1    5    5    0  502  0.79831170989E+02  0.29117602533E+01 -0.54203546008E+02  0.96651997439E+02  0.47000000000E+01 0.  1.
         11    1    6    6    0    0  0.48799484516E+01  0.79128641574E+02 -0.19294029207E+03  0.20859317371E+03  0.00000000000E+00 0. -1.
        -12    1    6    6    0    0  0.28048800344E+02  0.16274939773E+02 -0.17763886836E+01  0.32477136913E+02  0.00000000000E+00 0.  1.
</event>
<event>
12    1  0.8344842E-002  0.1976731E+03  0.7818608E-02  0.1151735E+00
         21   -1    0    0  503  502  0.00000000000E+00  0.00000000000E+00  0.16236669400E+04  0.16236669400E+04  0.00000000000E+00 0.  1.
         21   -1    0    0  501  503 -0.00000000000E+00 -0.00000000000E+00 -0.45037806870E+02  0.45037806870E+02  0.00000000000E+00 0.  1.
          6    2    1    2  501    0  0.67780125365E+02  0.67207839771E+02  0.21991153953E+03  0.29569532023E+03  0.17309996553E+03 0.  0.
         24    2    3    3    0    0  0.20935820109E+02  0.64613765218E+02  0.22484867822E+03  0.24828663435E+03  0.80474079569E+02 0.  0.
         -6    2    1    2    0  502 -0.67780125365E+02 -0.67207839771E+02  0.13587175936E+04  0.13730094266E+04  0.17300389408E+03 0.  0.
        -24    2    5    5    0    0 -0.35140278908E+01  0.13209945416E+02  0.34713299473E+03  0.35618955954E+03  0.78631006900E+02 0.  0.
          5    1    3    3  501    0  0.46844305256E+02  0.25940745528E+01 -0.49371386909E+01  0.47408685873E+02  0.47000000000E+01 0. -1.
        -13    1    4    4    0    0  0.31300852163E+02 -0.77137825204E+01  0.68119622271E+02  0.75362648078E+02  0.00000000000E+00 0.  1.
         14    1    4    4    0    0 -0.10365032054E+02  0.72327547738E+02  0.15672905595E+03  0.17292398628E+03  0.00000000000E+00 0. -1.
         -5    1    5    5    0  502 -0.64266097474E+02 -0.80417785187E+02  0.10115845988E+04  0.10168198671E+04  0.47000000000E+01 0.  1.
         11    1    6    6    0    0 -0.26472755418E+02 -0.24008596536E+02  0.17264730630E+03  0.17630743564E+03  0.00000000000E+00 0. -1.
        -12    1    6    6    0    0  0.22958727527E+02  0.37218541952E+02  0.17448568843E+03  0.17988212391E+03  0.00000000000E+00 0.  1.
</event>
<event>
12    1  0.8344842E-002  0.1881563E+03  0.7818608E-02  0.1160866E+00
         21   -1    0    0  503  502  0.00000000000E+00  0.00000000000E+00  0.76476965726E+03  0.76476965726E+03  0.00000000000E+00 0.  1.
         21   -1    0    0  501  503 -0.00000000000E+00 -0.00000000000E+00 -0.95035838956E+02  0.95035838956E+02  0.00000000000E+00 0.  1.
          6    2    1    2  501    0 -0.44320348378E+02 -0.55128642108E+02  0.25906979356E+02  0.18993151175E+03  0.17435408546E+03 0.  0.
         24    2    3    3    0    0 -0.64126100435E+02 -0.96137045266E+02  0.32216451134E+02  0.14371618552E+03  0.79132509304E+02 0.  0.
         -6    2    1    2    0  502  0.44320348378E+02  0.55128642108E+02  0.64382683895E+03  0.66987398446E+03  0.17092307057E+03 0.  0.
        -24    2    5    5    0    0 -0.87117073919E+01  0.14132463932E+02  0.14460333124E+03  0.16614857692E+03  0.80122442691E+02 0.  0.
          5    1    3    3  501    0  0.19805752057E+02  0.41008403157E+02 -0.63094717779E+01  0.46215326226E+02  0.47000000000E+01 0. -1.
        -11    1    4    4    0    0 -0.76031416462E+01 -0.13027223391E+02 -0.24155249411E+02  0.28477928055E+02  0.00000000000E+00 0.  1.
         12    1    4    4    0    0 -0.56522958789E+02 -0.83109821875E+02  0.56371700546E+02  0.11523825747E+03  0.00000000000E+00 0. -1.
         -5    1    5    5    0  502  0.53032055769E+02  0.40996178177E+02  0.49922350770E+03  0.50372540755E+03  0.47000000000E+01 0.  1.
         13    1    6    6    0    0  0.34824395647E+02  0.15545493743E+02  0.72165626896E+02  0.81622782440E+02  0.00000000000E+00 0. -1.
        -14    1    6    6    0    0 -0.43536103039E+02 -0.14130298114E+01  0.72437704345E+02  0.84525794477E+02  0.00000000000E+00 0.  1.
</event>
<event>
12    1  0.8344842E-002  0.2768976E+03  0.7818608E-02  0.1097454E+00
         21   -1    0    0  503  502  0.00000000000E+00  0.00000000000E+00  0.17451529230E+03  0.17451529230E+03  0.00000000000E+00 0.  1.
         21   -1    0    0  501  503 -0.00000000000E+00 -0.00000000000E+00 -0.51672349437E+03  0.51672349437E+03  0.00000000000E+00 0. -1.
          6    2    1    2  501    0 -0.21285762950E+03 -0.38381988421E+02 -0.30553530260E+03  0.41233979742E+03  0.17288938640E+03 0.  0.
         24    2    3    3    0    0 -0.96229607078E+02 -0.39809200314E+02 -0.69317683082E+02  0.14885358086E+03  0.80669310384E+02 0.  0.
         -6    2    1    2    0  502  0.21285762950E+03  0.38381988421E+02 -0.36672899466E+02  0.27889898925E+03  0.17221555440E+03 0.  0.
        -24    2    5    5    0    0  0.21919410376E+03  0.46558767864E+01 -0.12158566037E+02  0.23646499279E+03  0.87750383327E+02 0.  0.
          5    1    3    3  501    0 -0.11662802242E+03  0.14272118928E+01 -0.23621761952E+03  0.26348621657E+03  0.47000000000E+01 0. -1.
        -13    1    4    4    0    0 -0.75210572190E+02  0.91351735204E+01 -0.25689078025E+02  0.80000064338E+02  0.00000000000E+00 0.  1.
         14    1    4    4    0    0 -0.21019034888E+02 -0.48944373834E+02 -0.43628605057E+02  0.68853516518E+02  0.00000000000E+00 0. -1.
         -5    1    5    5    0  502 -0.63364742645E+01  0.33726111635E+02 -0.24514333429E+02  0.42433996460E+02  0.47000000000E+01 0.  1.
         11    1    6    6    0    0  0.16767674800E+03 -0.15611908161E+02 -0.42018319902E+02  0.17356486598E+03  0.00000000000E+00 0. -1.
        -12    1    6    6    0    0  0.51517355760E+02  0.20267784947E+02  0.29859753864E+02  0.62900126805E+02  0.00000000000E+00 0.  1.
</event>
<event>
12    1  0.8344842E-002  0.2244349E+03  0.7818608E-02  0.1132041E+00
         21   -1    0    0  503  502  0.00000000000E+00  0.00000000000E+00  0.27526107019E+03  0.27526107019E+03  0.00000000000E+00 0. -1.
         21   -1    0    0  501  503 -0.00000000000E+00 -0.00000000000E+00 -0.23398453319E+03  0.23398453319E+03  0.00000000000E+00 0. -1.
          6    2    1    2  501    0  0.71301642111E+02 -0.10803870536E+03 -0.10496880576E+03  0.24776898870E+03  0.18334321792E+03 0.  0.
         24    2    3    3    0    0  0.88723068989E+02 -0.37473620872E+02 -0.12011653019E+03  0.17337489741E+03  0.79717118597E+02 0.  0.
         -6    2    1    2    0  502 -0.71301642111E+02  0.10803870536E+03  0.14624534276E+03  0.26147661468E+03  0.17385635944E+03 0.  0.
        -24    2    5    5    0    0 -0.18149216819E+02  0.17005266265E+02  0.12633565530E+03  0.15409527085E+03  0.84652711390E+02 0.  0.
          5    1    3    3  501    0 -0.17421426878E+02 -0.70565084489E+02  0.15147724426E+02  0.74394091289E+02  0.47000000000E+01 0. -1.
        -11    1    4    4    0    0  0.40328094799E+02  0.15767164847E+02 -0.14665593822E+02  0.45716937338E+02  0.00000000000E+00 0.  1.
         12    1    4    4    0    0  0.48394974190E+02 -0.53240785719E+02 -0.10545093636E+03  0.12765796008E+03  0.00000000000E+00 0. -1.
         -5    1    5    5    0  502 -0.53152425292E+02  0.91033439096E+02  0.19909687465E+02  0.10738134383E+03  0.47000000000E+01 0.  1.
         13    1    6    6    0    0 -0.62188907067E+01  0.35386487775E+02  0.12304068017E+02  0.37977206433E+02  0.00000000000E+00 0. -1.
        -14    1    6    6    0    0 -0.11930326112E+02 -0.18381221509E+02  0.11403158728E+03  0.11611806441E+03  0.00000000000E+00 0.  1.
</event>
<event>
12    1  0.8344842E-002  0.1864844E+03  0.7818608E-02  0.1161719E+00
         21   -1    0    0  503  502  0.00000000000E+00  0.00000000000E+00  0.99469464784E+03  0.99469464784E+03  0.00000000000E+00 0. -1.
         21   -1    0    0  501  503 -0.00000000000E+00 -0.00000000000E+00 -0.35437788461E+02  0.35437788461E+02  0.00000000000E+00 0. -1.
          6    2    1    2  501    0 -0.37721862244E+02 -0.61283447817E+02  0.54195347089E+03  0.57314047926E+03  0.17204024091E+03 0.  0.
         24    2    3    3    0    0 -0.29613167086E+02  0.27712551720E+02  0.18407227462E+03  0.20424065612E+03  0.78655693635E+02 0.  0.
         -6    2    1    2    0  502  0.37721862244E+02  0.61283447817E+02  0.41730338849E+03  0.45699195704E+03  0.17181656173E+03 0.  0.
        -24    2    5    5    0    0  0.42266489748E+02 -0.30392627980E+02  0.18254934610E+03  0.20488740149E+03  0.77100035890E+02 0.  0.
          5    1    3    3  501    0 -0.81086951575E+01 -0.88995999537E+02  0.35788119626E+03  0.36889982314E+03  0.47000000000E+01 0. -1.
        -13    1    4    4    0    0 -0.13515657080E+02  0.22847268446E+02  0.18547552589E+03  0.18736552875E+03  0.00000000000E+00 0.  1.
         14    1    4    4    0    0 -0.16097510006E+02  0.48652832732E+01 -0.14032512621E+01  0.16875127372E+02  0.00000000000E+00 0. -1.
         -5    1    5    5    0  502 -0.45446275047E+01  0.91676075797E+02  0.23475404238E+03  0.25210455555E+03  0.47000000000E+01 0.  1.
         13    1    6    6    0    0  0.90372591947E+01  0.24469612687E+02  0.77840565104E+02  0.82094991166E+02  0.00000000000E+00 0. -1.
        -14    1    6    6    0    0  0.33229230554E+02 -0.54862240667E+02  0.10470878100E+03  0.12279241032E+03  0.00000000000E+00 0.  1.
</event>
<event>
12    1  0.8344842E-002  0.2034968E+03  0.7818608E-02  0.1146999E+00
         21   -1    0    0  503  502  0.00000000000E+00  0.00000000000E+00  0.64608913568E+02  0.64608913568E+02  0.00000000000E+00 0.  1.
         21   -1    0    0  501  503 -0.00000000000E+00 -0.00000000000E+00 -0.65051477215E+03  0.65051477215E+03  0.00000000000E+00 0. -1.
          6    2    1    2  501    0 -0.95611197134E+02  0.47494194380E+02 -0.24446701066E+03  0.31808026276E+03  0.17324472500E+03 0.  0.
         24    2    3    3    0    0 -0.62461184134E+02  0.36487256534E+02 -0.25451562810E+03  0.28143137799E+03  0.95878549011E+02 0.  0.
         -6    2    1    2    0  502  0.95611197134E+02 -0.47494194380E+02 -0.34143884792E+03  0.39704342296E+03  0.17223760718E+03 0.  0.
        -24    2    5    5    0    0  0.13350592161E+03 -0.40018188913E+02 -0.24055239276E+03  0.28891355828E+03  0.78614909188E+02 0.  0.
          5    1    3    3  501    0 -0.33150013000E+02  0.11006937846E+02  0.10048617433E+02  0.36648884771E+02  0.47000000000E+01 0. -1.
        -11    1    4    4    0    0 -0.78686804029E+02  0.49323932861E+02 -0.16293426520E+03  0.18754209730E+03  0.00000000000E+00 0.  1.
         12    1    4    4    0    0  0.16225619896E+02 -0.12836676326E+02 -0.91581362893E+02  0.93889280695E+02  0.00000000000E+00 0. -1.
         -5    1    5    5    0  502 -0.37894724472E+02 -0.74760054676E+01 -0.10088645516E+03  0.10812986468E+03  0.47000000000E+01 0.  1.
         11    1    6    6    0    0  0.66533863300E+02  0.97252653047E+01 -0.15723416606E+03  0.17100853408E+03  0.00000000000E+00 0. -1.
        -12    1    6    6    0    0  0.66972058305E+02 -0.49743454217E+02 -0.83318226700E+02  0.11790502420E+03  0.00000000000E+00 0.  1.
</event>
<event>
12    1  0.8344842E-002  0.2201102E+03  0.7818608E-02  0.1134021E+00
         21   -1    0    0  501  502  0.00000000000E+00  0.00000000000E+00  0.20476315621E+03  0.20476315621E+03  0.00000000000E+00 0.  1.
         21   -1    0    0  502  503 -0.00000000000E+00 -0.00000000000E+00 -0.30125925238E+03  0.30125925238E+03  0.00000000000E+00 0.  1.
         -6    2    1    2    0  503  0.13126476220E+03  0.30237565585E+02 -0.16649449173E+03  0.27504999186E+03  0.17259007527E+03 0.  0.
        -24    2    3    3    0    0  0.10180351150E+03  0.84827912670E+02 -0.13030716328E+03  0.20307997014E+03  0.81864447383E+02 0.  0.
          6    2    1    2  501    0 -0.13126476220E+03 -0.30237565585E+02  0.69998395561E+02  0.23097241672E+03  0.17407967641E+03 0.  0.
         24    2    5    5    0    0 -0.81229936463E+01  0.26006244423E+02  0.32827048920E+02  0.90505123956E+02  0.79820138729E+02 0.  0.
          5    1    5    5  501    0 -0.12314176855E+03 -0.56243810008E+02  0.37171346641E+02  0.14046729277E+03  0.47000000000E+01 0. -1.
        -11    1    6    6    0    0 -0.25799495068E+02 -0.21250430950E+02  0.17755233798E+02  0.37847629894E+02  0.00000000000E+00 0.  1.
         12    1    6    6    0    0  0.17676501422E+02  0.47256675373E+02  0.15071815121E+02  0.52657494062E+02  0.00000000000E+00 0. -1.
         -5    1    3    3    0  503  0.29461250694E+02 -0.54590347085E+02 -0.36187328447E+02  0.71970021727E+02  0.47000000000E+01 0.  1.
         13    1    4    4    0    0  0.27542763129E+02  0.35269614791E+02  0.44844916006E+00  0.44752102017E+02  0.00000000000E+00 0. -1.
        -14    1    4    4    0    0  0.74260748374E+02  0.49558297879E+02 -0.13075561244E+03  0.15832786812E+03  0.00000000000E+00 0.  1.
</event>
<event>
12    1  0.8344842E-002  0.2388463E+03  0.7818608E-02  0.1120887E+00
         21   -1    0    0  501  502  0.00000000000E+00  0.00000000000E+00  0.60991486304E+03  0.60991486304E+03  0.00000000000E+00 0. -1.
         21   -1    0    0  502  503 -0.00000000000E+00 -0.00000000000E+00 -0.12426850548E+03  0.12426850548E+03  0.00000000000E+00 0. -1.
         -6    2    1    2    0  503 -0.49070811177E+02  0.15612492427E+03  0.58780473146E+02  0.24597293184E+03  0.17396724601E+03 0.  0.
        -24    2    3    3    0    0 -0.54208135270E+02  0.12424090835E+03  0.10511000992E+03  0.18930284672E+03  0.80082010169E+02 0.  0.
          6    2    1    2  501    0  0.49070811177E+02 -0.15612492427E+03  0.42686588442E+03  0.48821043668E+03  0.17132428524E+03 0.  0.
         24    2    5    5    0    0  0.15427939517E+02 -0.14643540611E+02  0.99470079801E+02  0.12993829484E+03  0.80853009166E+02 0.  0.
          5    1    5    5  501    0  0.33642871659E+02 -0.14148138366E+03  0.32739580462E+03  0.35827214184E+03  0.47000000000E+01 0. -1.
        -13    1    6    6    0    0  0.33618412124E+02  0.10718786534E+02  0.90994759562E+02  0.97596804693E+02  0.00000000000E+00 0.  1.
         14    1    6    6    0    0 -0.18190472606E+02 -0.25362327145E+02  0.84753202390E+01  0.32341490148E+02  0.00000000000E+00 0. -1.
         -5    1    3    3    0  503  0.51373240930E+01  0.31884015918E+02 -0.46329536771E+02  0.56670085118E+02  0.47000000000E+01 0.  1.
         13    1    4    4    0    0 -0.61140340863E+02  0.63237308550E+02  0.31457820362E+02  0.93416770097E+02  0.00000000000E+00 0. -1.
        -14    1    4    4    0    0  0.69322055939E+01  0.61003599804E+02  0.73652189554E+02  0.95886076620E+02  0.00000000000E+00 0.  1.
</event>
<event>
12    1  0.8344842E-002  0.1848164E+03  0.7818608E-02  0.1163872E+00
         21   -1    0    0  503  502  0.00000000000E+00  0.00000000000E+00  0.35722704753E+03  0.35722704753E+03  0.00000000000E+00 0.  1.
         21   -1    0    0  501  503 -0.00000000000E+00 -0.00000000000E+00 -0.10302797709E+03  0.10302797709E+03  0.00000000000E+00 0.  1.
          6    2    1    2  501    0 -0.42085476462E+02 -0.52971959354E+02  0.19535636496E+03  0.26892602966E+03  0.17198803532E+03 0.  0.
         24    2    3    3    0    0 -0.69198584053E+02 -0.70100989601E+02  0.18938892519E+03  0.23596810773E+03  0.10054944109E+03 0.  0.
         -6    2    1    2    0  502  0.42085476462E+02  0.52971959354E+02  0.58842705489E+02  0.19132899496E+03  0.16901805974E+03 0.  0.
        -24    2    5    5    0    0 -0.22735441975E+02  0.27703892880E+01  0.67380051089E+02  0.10876432108E+03  0.82249807754E+02 0.  0.
          5    1    3    3  501    0  0.27113107591E+02  0.17129030247E+02  0.59674397609E+01  0.32957921927E+02  0.47000000000E+01 0. -1.
        -13    1    4    4    0    0 -0.50059640476E+02 -0.71781324593E+02  0.19679622964E+03  0.21537706973E+03  0.00000000000E+00 0.  1.
         14    1    4    4    0    0 -0.19138943578E+02  0.16803349917E+01 -0.74073044461E+01  0.20591038005E+02  0.00000000000E+00 0. -1.
         -5    1    5    5    0  502  0.64820918437E+02  0.50201570066E+02 -0.85373456002E+01  0.82564673887E+02  0.47000000000E+01 0.  1.
         11    1    6    6    0    0 -0.26468106688E+02 -0.32480244547E+02  0.13033937139E+02  0.43879499483E+02  0.00000000000E+00 0. -1.
        -12    1    6    6    0    0  0.37326647134E+01  0.35250633835E+02  0.54346113950E+02  0.64884821593E+02  0.00000000000E+00 0.  1.
</event>
<event>
12    1  0.8344842E-002  0.2133212E+03  0.7818608E-02  0.1140056E+00
         21   -1    0    0  501  502  0.00000000000E+00  0.00000000000E+00  0.69726829082E+03  0.69726829082E+03  0.00000000000E+00 0. -1.
         21   -1    0    0  502  503 -0.00000000000E+00 -0.00000000000E+00 -0.10353431790E+03  0.10353431790E+03  0.00000000000E+00 0.  1.
         -6    2    1    2    0  503  0.95495394632E+02  0.81577852163E+02  0.45719035217E+02  0.21273263258E+03  0.16550113723E+03 0.  0.
        -24    2    3    3    0    0  0.12786693373E+03  0.47197696772E+02  0.20704416414E+02  0.15908812884E+03  0.79390078454E+02 0.  0.
          6    2    1    2  501    0 -0.95495394632E+02 -0.81577852163E+02  0.54801493770E+03  0.58806997614E+03  0.17242856066E+03 0.  0.
         24    2    5    5    0    0  0.80824808651E+01 -0.35132966316E+02  0.34012711173E+03  0.35116294395E+03  0.79556956010E+02 0.  0.
          5    1    5    5  501    0 -0.10357787550E+03 -0.46444885847E+02  0.20788782597E+03  0.23690703219E+03  0.47000000000E+01 0. -1.
        -13    1    6    6    0    0  0.11397173654E+02 -0.28747855898E+02  0.34226387438E+03  0.34365810698E+03  0.00000000000E+00 0.  1.
         14    1    6    6    0    0 -0.33146927890E+01 -0.63851104180E+01 -0.21367626497E+01  0.75048369707E+01  0.00000000000E+00 0. -1.
         -5    1    3    3    0  503 -0.32371539097E+02  0.34380155391E+02  0.25014618802E+02  0.53644503745E+02  0.47000000000E+01 0.  1.
         11    1    4    4    0    0  0.47183637614E+02  0.47324277438E+02  0.37565271060E+02  0.76661805896E+02  0.00000000000E+00 0. -1.
        -12    1    4    4    0    0  0.80683296115E+02 -0.12658066585E+00 -0.16860854646E+02  0.82426322944E+02  0.00000000000E+00 0.  1.
</event>
<event>
12    1  0.8344842E-002  0.1949350E+03  0.7818608E-02  0.1156743E+00
         21   -1    0    0  503  502  0.00000000000E+00  0.00000000000E+00  0.14132481274E+03  0.14132481274E+03  0.00000000000E+00 0.  1.
         21   -1    0    0  501  503 -0.00000000000E+00 -0.00000000000E+00 -0.25731610671E+03  0.25731610671E+03  0.00000000000E+00 0.  1.
          6    2    1    2  501    0 -0.41104008697E+02 -0.81488740142E+02 -0.85985304689E+02  0.21305665932E+03  0.17224898594E+03 0.  0.
         24    2    3    3    0    0 -0.21517863109E+02  0.20957775813E+02 -0.91857680905E+01  0.83445068206E+02  0.77307530505E+02 0.  0.
         -6    2    1    2    0  502  0.41104008697E+02  0.81488740142E+02 -0.30005989284E+02  0.18558426013E+03  0.15878036376E+03 0.  0.
        -24    2    5    5    0    0  0.77609911141E+02  0.86318920214E+02 -0.40735306238E+02  0.14694205788E+03  0.80363853221E+02 0.  0.
          5    1    3    3  501    0 -0.19586145588E+02 -0.10244651596E+03 -0.76799536599E+02  0.12961159112E+03  0.47000000000E+01 0. -1.
        -11    1    4    4    0    0  0.24103241937E+02  0.20706542940E+02  0.10905124947E+02  0.33595370849E+02  0.00000000000E+00 0.  1.
         12    1    4    4    0    0 -0.45621105046E+02  0.25123287302E+00 -0.20090893038E+02  0.49849697357E+02  0.00000000000E+00 0. -1.
         -5    1    5    5    0  502 -0.36505902444E+02 -0.48301800719E+01  0.10729316954E+02  0.38642202254E+02  0.47000000000E+01 0.  1.
         11    1    6    6    0    0  0.60840262357E+02  0.98631776302E+02 -0.20058094249E+02  0.11760991440E+03  0.00000000000E+00 0. -1.
        -12    1    6    6    0    0  0.16769648784E+02 -0.12312856087E+02 -0.20677211989E+02  0.29332143478E+02  0.00000000000E+00 0.  1.
</event>
<event>
12    1  0.8344842E-002  0.1754191E+03  0.7818608E-02  0.1172533E+00
         21   -1    0    0  501  502  0.00000000000E+00  0.00000000000E+00  0.31338868066E+03  0.31338868066E+03  0.00000000000E+00 0. -1.
         21   -1    0    0  502  503 -0.00000000000E+00 -0.00000000000E+00 -0.15766304176E+03  0.15766304176E+03  0.00000000000E+00 0. -1.
         -6    2    1    2    0  503 -0.28482263717E+02  0.16373231239E+02 -0.67267140735E+02  0.18787420508E+03  0.17231519569E+03 0.  0.
        -24    2    3    3    0    0  0.13416475423E+02 -0.22895511691E+02 -0.92402298610E+02  0.12501400564E+03  0.79913143777E+02 0.  0.
          6    2    1    2  501    0  0.28482263717E+02 -0.16373231239E+02  0.22299277963E+03  0.28317751734E+03  0.17141879859E+03 0.  0.
         24    2    5    5    0    0  0.57442058040E+01  0.28639233894E+02  0.40241681394E+02  0.93537871686E+02  0.79225872666E+02 0.  0.
          5    1    5    5  501    0  0.22738057913E+02 -0.45012465134E+02  0.18275109824E+03  0.18963964565E+03  0.47000000000E+01 0. -1.
        -11    1    6    6    0    0 -0.98296738901E+01  0.49679266237E+02  0.44007113438E+02  0.67091564416E+02  0.00000000000E+00 0.  1.
         12    1    6    6    0    0  0.15573879694E+02 -0.21040032343E+02 -0.37654320438E+01  0.26446307270E+02  0.00000000000E+00 0. -1.
         -5    1    3    3    0  503 -0.41898739140E+02  0.39268742930E+02  0.25135157876E+02  0.62860199445E+02  0.47000000000E+01 0.  1.
         13    1    4    4    0    0  0.21294007584E+02 -0.17473778305E+02  0.42657630613E+01  0.27874081541E+02  0.00000000000E+00 0. -1.
        -14    1    4    4    0    0 -0.78775321612E+01 -0.54217333858E+01 -0.96668061671E+02  0.97139924095E+02  0.00000000000E+00 0.  1.
</event>
<event>
12    1  0.8344842E-002  0.2571363E+03  0.7818608E-02  0.1108976E+00
         21   -1    0    0  501  502  0.00000000000E+00  0.00000000000E+00  0.18087006429E+03  0.18087006429E+03  0.00000000000E+00 0.  1.
         21   -1    0    0  502  503 -0.00000000000E+00 -0.00000000000E+00 -0.38828509763E+03  0.38828509763E+03  0.00000000000E+00 0. -1.
         -6    2    1    2    0  503 -0.18589603898E+03 -0.43041237916E+02 -0.17407067462E+03  0.31051518430E+03  0.17236355313E+03 0.  0.
        -24    2    3    3    0    0 -0.12254495740E+03 -0.16872792591E+02 -0.28434314004E+02  0.14948665701E+03  0.78967035498E+02 0.  0.
          6    2    1    2  501    0  0.18589603898E+03  0.43041237916E+02 -0.33344358714E+02  0.25863997762E+03  0.17138525693E+03 0.  0.
         24    2    5    5    0    0  0.18698901433E+02  0.17777750060E+01  0.84403605138E+01  0.81367281082E+02  0.78718392681E+02 0.  0.
          5    1    5    5  501    0  0.16719713755E+03  0.41263462910E+02 -0.41784719228E+02  0.17727269653E+03  0.47000000000E+01 0. -1.
        -11    1    6    6    0    0  0.40188206570E+02 -0.14765678391E+02 -0.15156916869E+02  0.45418601197E+02  0.00000000000E+00 0.  1.
         12    1    6    6    0    0 -0.21489305137E+02  0.16543453397E+02  0.23597277383E+02  0.35948679885E+02  0.00000000000E+00 0. -1.
         -5    1    3    3    0  503 -0.63351081577E+02 -0.26168445325E+02 -0.14563636062E+03  0.16102852729E+03  0.47000000000E+01 0.  1.
         13    1    4    4    0    0 -0.69811230248E+02 -0.41196984114E+02 -0.39811721855E+02  0.90309316053E+02  0.00000000000E+00 0. -1.
        -14    1    4    4    0    0 -0.52733727157E+02  0.24324191523E+02  0.11377407851E+02  0.59177340955E+02  0.00000000000E+00 0.  1.
</event>
<event>
12    1  0.8344842E-002  0.1797549E+03  0.7818608E-02  0.1168173E+00
         21   -1    0    0  503  502  0.00000000000E+00  0.00000000000E+00  0.27258866691E+03  0.27258866691E+03  0.00000000000E+00 0.  1.
         21   -1    0    0  501  503 -0.00000000000E+00 -0.00000000000E+00 -0.14609964061E+03  0.14609964061E+03  0.00000000000E+00 0.  1.
          6    2    1    2  501    0  0.34534951144E+02 -0.38691651372E+02 -0.28352432272E+02  0.18143798908E+03  0.17154059790E+03 0.  0.
         24    2    3    3    0    0  0.57528827687E+01 -0.33166162420E+02 -0.84689496986E+02  0.11775994460E+03  0.74578841920E+02 0.  0.
         -6    2    1    2    0  502 -0.34534951144E+02  0.38691651372E+02  0.15484145857E+03  0.23725031844E+03  0.17211080609E+03 0.  0.
        -24    2    5    5    0    0 -0.19646095473E+02 -0.40673139748E+02  0.48365726710E+02  0.10353562378E+03  0.79624798320E+02 0.  0.
          5    1    3    3  501    0  0.28782068376E+02 -0.55254889525E+01  0.56337064714E+02  0.63678044480E+02  0.47000000000E+01 0. -1.
        -11    1    4    4    0    0  0.27670196803E+02 -0.33230372438E+02 -0.16750706706E+02  0.46373307178E+02  0.00000000000E+00 0.  1.
         12    1    4    4    0    0 -0.21917314034E+02  0.64210018542E-01 -0.67938790280E+02  0.71386637420E+02  0.00000000000E+00 0. -1.
         -5    1    5    5    0  502 -0.14888855671E+02  0.79364791121E+02  0.10647573186E+03  0.13371469466E+03  0.47000000000E+01 0.  1.
         13    1    6    6    0    0  0.13015432342E+02 -0.47890160337E+02  0.49463995039E+02  0.70068222051E+02  0.00000000000E+00 0. -1.
        -14    1    6    6    0    0 -0.32661527815E+02  0.72170205882E+01 -0.10982683289E+01  0.33467401732E+02  0.00000000000E+00 0.  1.
</event>
<event>
12    1  0.8344842E-002  0.1772946E+03  0.7818608E-02  0.1170794E+00
         21   -1    0    0  503  502  0.00000000000E+00  0.00000000000E+00  0.54965537458E+03  0.54965537458E+03  0.00000000000E+00 0.  1.
         21   -1    0    0  501  503 -0.00000000000E+00 -0.00000000000E+00 -0.15572987479E+03  0.15572987479E+03  0.00000000000E+00 0.  1.
          6    2    1    2  501    0 -0.16188847155E+02 -0.36678609497E+02 -0.83949958713E+02  0.19616567348E+03  0.17270198816E+03 0.  0.
         24    2    3    3    0    0  0.18386109305E+02  0.30259159926E+02 -0.55079173950E+01  0.87301829913E+02  0.79609086022E+02 0.  0.
         -6    2    1    2    0  502  0.16188847155E+02  0.36678609497E+02  0.47787545850E+03  0.50921957588E+03  0.17126652754E+03 0.  0.
        -24    2    5    5    0    0 -0.21454083660E+02  0.56763373665E+02  0.44224259902E+03  0.45343267181E+03  0.79626083499E+02 0.  0.
          5    1    3    3  501    0 -0.34574956460E+02 -0.66937769423E+02 -0.78442041318E+02  0.10886384356E+03  0.47000000000E+01 0. -1.
        -11    1    4    4    0    0  0.96428666941E+01 -0.20392335223E+02 -0.23754818820E+02  0.32758565767E+02  0.00000000000E+00 0.  1.
         12    1    4    4    0    0  0.87432426106E+01  0.50651495148E+02  0.18246901425E+02  0.54543264146E+02  0.00000000000E+00 0. -1.
         -5    1    5    5    0  502  0.37642930814E+02 -0.20084764167E+02  0.35632859479E+02  0.55786904078E+02  0.47000000000E+01 0.  1.
         13    1    6    6    0    0 -0.50162774189E+02  0.35108477826E+02  0.22266052110E+03  0.23092556547E+03  0.00000000000E+00 0. -1.
        -14    1    6    6    0    0  0.28708690529E+02  0.21654895838E+02  0.21958207792E+03  0.22250710633E+03  0.00000000000E+00 0.  1.
</event>
<event>
12    1  0.8344842E-002  0.1832978E+03  0.7818608E-02  0.1164720E+00
         21   -1    0    0  501  502  0.00000000000E+00  0.00000000000E+00  0.47235200686E+03  0.47235200686E+03  0.00000000000E+00 0. -1.
         21   -1    0    0  502  503 -0.00000000000E+00 -0.00000000000E+00 -0.73034484008E+02  0.73034484008E+02  0.00000000000E+00 0. -1.
         -6    2    1    2    0  503 -0.27659166973E+02 -0.58173779324E+02  0.24487461185E+03  0.30569775580E+03  0.17128433744E+03 0.  0.
        -24    2    3    3    0    0 -0.16733571880E+02 -0.79564985172E+02  0.25516779713E+03  0.27914607075E+03  0.78748490955E+02 0.  0.
          6    2    1    2  501    0  0.27659166973E+02  0.58173779324E+02  0.15444291100E+03  0.23968873507E+03  0.17160669813E+03 0.  0.
         24    2    5    5    0    0  0.46589153550E+02 -0.25232955090E+02  0.65831922734E+02  0.11644497263E+03  0.80114532701E+02 0.  0.
          5    1    5    5  501    0 -0.18929986578E+02  0.83406734414E+02  0.88610988265E+02  0.12324376243E+03  0.47000000000E+01 0. -1.
        -13    1    6    6    0    0 -0.18800750246E+02 -0.23683127417E+02  0.25873666684E+02  0.39797052174E+02  0.00000000000E+00 0.  1.
         14    1    6    6    0    0  0.65389903797E+02 -0.15498276728E+01  0.39958256050E+02  0.76647920461E+02  0.00000000000E+00 0. -1.
         -5    1    3    3    0  503 -0.10925595092E+02  0.21391205848E+02 -0.10293185281E+02  0.26551685050E+02  0.47000000000E+01 0.  1.
         11    1    4    4    0    0  0.11112822180E+02 -0.34301854415E+02  0.27470055432E+02  0.45328975045E+02  0.00000000000E+00 0. -1.
        -12    1    4    4    0    0 -0.27846394060E+02 -0.45263130757E+02  0.22769774170E+03  0.23381709570E+03  0.00000000000E+00 0.  1.
</event>
<event>
12    1  0.8344842E-002  0.2029994E+03  0.7818608E-02  0.1147337E+00
         21   -1    0    0  503  502  0.00000000000E+00  0.00000000000E+00  0.60321952174E+03  0.60321952174E+03  0.00000000000E+00 0.  1.
         21   -1    0    0  501  503 -0.00000000000E+00 -0.00000000000E+00 -0.12916787603E+03  0.12916787603E+03  0.00000000000E+00 0.  1.
          6    2    1    2  501    0  0.17336526789E+02  0.10557454136E+03 -0.14824001030E+02  0.20304047202E+03  0.17192772705E+03 0.  0.
         24    2    3    3    0    0 -0.25396900206E+02  0.12792027707E+03 -0.20634875321E+01  0.15293659600E+03  0.79854521410E+02 0.  0.
         -6    2    1    2    0  502 -0.17336526789E+02 -0.10557454136E+03  0.48887564674E+03  0.52934692576E+03  0.17251733503E+03 0.  0.
        -24    2    5    5    0    0 -0.11210842015E+02 -0.18084015456E+02  0.38289836611E+03  0.39170467153E+03  0.79803987000E+02 0.  0.
          5    1    3    3  501    0  0.42733426995E+02 -0.22345735712E+02 -0.12760513498E+02  0.50103876018E+02  0.47000000000E+01 0. -1.
        -11    1    4    4    0    0 -0.24328291627E+02  0.48572084644E+02 -0.37518579853E+02  0.66020883168E+02  0.00000000000E+00 0.  1.
         12    1    4    4    0    0 -0.10686085789E+01  0.79348192428E+02  0.35455092321E+02  0.86915712833E+02  0.00000000000E+00 0. -1.
         -5    1    5    5    0  502 -0.61256847743E+01 -0.87490525903E+02  0.10597728064E+03  0.13764225422E+03  0.47000000000E+01 0.  1.
         11    1    6    6    0    0  0.11344415783E+02  0.13063201723E+02  0.18679001764E+02  0.25460717108E+02  0.00000000000E+00 0. -1.
        -12    1    6    6    0    0 -0.22555257798E+02 -0.31147217179E+02  0.36421936434E+03  0.36624395443E+03  0.00000000000E+00 0.  1.
</event>
<event>
12    1  0.8344842E-002  0.1829592E+03  0.7818608E-02  0.1165161E+00
         21   -1    0    0  503  502  0.00000000000E+00  0.00000000000E+00  0.20137913276E+03  0.20137913276E+03  0.00000000000E+00 0.  1.
         21   -1    0    0  501  503 -0.00000000000E+00 -0.00000000000E+00 -0.37953607811E+03  0.37953607811E+03  0.00000000000E+00 0.  1.
          6    2    1    2  501    0 -0.18105647197E+02 -0.60332939784E+02 -0.30711867662E+03  0.35707331610E+03  0.17091399432E+03 0.  0.
         24    2    3    3    0    0 -0.20246769187E+01 -0.10662097996E+03 -0.22933867094E+03  0.26502441848E+03  0.79180702930E+02 0.  0.
         -6    2    1    2    0  502  0.18105647197E+02  0.60332939784E+02  0.12896173127E+03  0.22384189477E+03  0.17177365233E+03 0.  0.
        -24    2    5    5    0    0  0.37393738919E+02  0.28438321125E+01  0.84314947457E+01  0.88835761940E+02  0.80089471245E+02 0.  0.
          5    1    3    3  501    0 -0.16080970279E+02  0.46288040181E+02 -0.77780005687E+02  0.92048897623E+02  0.47000000000E+01 0. -1.
        -11    1    4    4    0    0 -0.71280635095E+01  0.73424103654E+01 -0.59862193942E+02  0.60730573379E+02  0.00000000000E+00 0.  1.
         12    1    4    4    0    0  0.51033865908E+01 -0.11396339033E+03 -0.16947647699E+03  0.20429384510E+03  0.00000000000E+00 0. -1.
         -5    1    5    5    0  502 -0.19288091721E+02  0.57489107671E+02  0.12053023653E+03  0.13500613283E+03  0.47000000000E+01 0.  1.
         11    1    6    6    0    0 -0.22171470502E+02  0.15665061181E+02 -0.10786668847E+01  0.27168580535E+02  0.00000000000E+00 0. -1.
        -12    1    6    6    0    0  0.59565209421E+02 -0.12821229068E+02  0.95101616304E+01  0.61667181405E+02  0.00000000000E+00 0.  1.
</event>
<event>
12    1  0.8344842E-002  0.2276065E+03  0.7818608E-02  0.1128341E+00
         21   -1    0    0  501  502  0.00000000000E+00  0.00000000000E+00  0.39646694084E+03  0.39646694084E+03  0.00000000000E+00 0. -1.
         21   -1    0    0  502  503 -0.00000000000E+00 -0.00000000000E+00 -0.62836352638E+03  0.62836352638E+03  0.00000000000E+00 0.  1.
         -6    2    1    2    0  503  0.10804499786E+03 -0.10098160538E+03 -0.57199089839E+03  0.61560086720E+03  0.17297350569E+03 0.  0.
        -24    2    3    3    0    0  0.48389933828E+02 -0.11679022228E+03 -0.28982541871E+03  0.32672704188E+03  0.82281497607E+02 0.  0.
          6    2    1    2  501    0 -0.10804499786E+03  0.10098160538E+03  0.34009431284E+03  0.40922960002E+03  0.17301363449E+03 0.  0.
         24    2    5    5    0    0  0.67057814219E+01  0.68851087970E+02  0.19268497386E+03  0.21962022601E+03  0.79499086169E+02 0.  0.
          5    1    5    5  501    0 -0.11475077928E+03  0.32130517414E+02  0.14740933898E+03  0.18960937401E+03  0.47000000000E+01 0. -1.
        -11    1    6    6    0    0  0.24660295193E+02  0.21737519758E+01  0.14895275604E+02  0.28891600716E+02  0.00000000000E+00 0.  1.
         12    1    6    6    0    0 -0.17954513771E+02  0.66677335994E+02  0.17778969826E+03  0.19072862529E+03  0.00000000000E+00 0. -1.
         -5    1    3    3    0  503  0.59655064029E+02  0.15808616899E+02 -0.28216547967E+03  0.28887382532E+03  0.47000000000E+01 0.  1.
         13    1    4    4    0    0 -0.32965266931E+01  0.11764233944E+02 -0.26180384247E+02  0.28890773750E+02  0.00000000000E+00 0. -1.
        -14    1    4    4    0    0  0.51686460521E+02 -0.12855445623E+03 -0.26364503447E+03  0.29783626813E+03  0.00000000000E+00 0.  1.
</event>
<event>
12    1  0.8344842E-002  0.2008502E+03  0.7818608E-02  0.1149089E+00
         21   -1    0    0  503  502  0.00000000000E+00  0.00000000000E+00  0.46677884322E+03  0.46677884322E+03  0.00000000000E+00 0. -1.
         21   -1    0    0  501  503 -0.00000000000E+00 -0.00000000000E+00 -0.11863104135E+03  0.11863104135E+03  0.00000000000E+00 0. -1.
          6    2    1    2  501    0  0.10224446203E+03  0.70629346867E+01  0.21148617851E+02  0.20165312223E+03  0.17237430959E+03 0.  0.
         24    2    3    3    0    0  0.87980560940E+02  0.39059420377E+02  0.68513959154E+02  0.14255321083E+03  0.79756115096E+02 0.  0.
         -6    2    1    2    0  502 -0.10224446203E+03 -0.70629346867E+01  0.32699918403E+03  0.38375676234E+03  0.17273381611E+03 0.  0.
        -24    2    5    5    0    0 -0.13904361123E+03 -0.54882376622E+00  0.23774958846E+03  0.28688472648E+03  0.80277969867E+02 0.  0.
          5    1    3    3  501    0  0.14263901094E+02 -0.31996485690E+02 -0.47365341303E+02  0.59099911401E+02  0.47000000000E+01 0. -1.
        -11    1    4    4    0    0  0.62749698817E+02  0.61809804531E+02  0.62624955552E+02  0.10807340883E+03  0.00000000000E+00 0.  1.
         12    1    4    4    0    0  0.25230862123E+02 -0.22750384154E+02  0.58890036018E+01  0.34479802001E+02  0.00000000000E+00 0. -1.
         -5    1    5    5    0  502  0.36799149194E+02 -0.65141109205E+01  0.89249595568E+02  0.96872035859E+02  0.47000000000E+01 0.  1.
         11    1    6    6    0    0 -0.97570392054E+02 -0.23686450743E+02  0.20767313717E+03  0.23067111058E+03  0.00000000000E+00 0. -1.
        -12    1    6    6    0    0 -0.41473219174E+02  0.23137626976E+02  0.30076451289E+02  0.56213615903E+02  0.00000000000E+00 0.  1.
</event>
<event>
12    1  0.8344842E-002  0.2351784E+03  0.7818608E-02  0.1123227E+00
         21   -1    0    0  501  502  0.00000000000E+00  0.00000000000E+00  0.32431543500E+03  0.32431543500E+03  0.00000000000E+00 0. -1.
         21   -1    0    0  502  503 -0.00000000000E+00 -0.00000000000E+00 -0.42591131760E+03  0.42591131760E+03  0.00000000000E+00 0. -1.
         -6    2    1    2    0  503 -0.55494222740E+02  0.14954459251E+03 -0.34164619016E+03  0.41417167571E+03  0.17138513299E+03 0.  0.
        -24    2    3    3    0    0 -0.10227159621E+02  0.15342977319E+03 -0.31933664734E+03  0.36333854347E+03  0.79960695012E+02 0.  0.
          6    2    1    2  501    0  0.55494222740E+02 -0.14954459251E+03  0.24005030756E+03  0.33605507689E+03  0.17281687025E+03 0.  0.
         24    2    5    5    0    0 -0.22824069338E+02 -0.46416532932E+02  0.97953672484E+02  0.14374622311E+03  0.91611254955E+02 0.  0.
          5    1    5    5  501    0  0.78318292078E+02 -0.10312805957E+03  0.14209663507E+03  0.19230885379E+03  0.47000000000E+01 0. -1.
        -13    1    6    6    0    0 -0.21066850749E+02  0.16268941894E+02 -0.95328705402E+00  0.26634553253E+02  0.00000000000E+00 0.  1.
         14    1    6    6    0    0 -0.17572185895E+01 -0.62685474826E+02  0.98906959538E+02  0.11711166986E+03  0.00000000000E+00 0. -1.
         -5    1    3    3    0  503 -0.45267063119E+02 -0.38851806846E+01 -0.22309542821E+02  0.50833132239E+02  0.47000000000E+01 0.  1.
         13    1    4    4    0    0 -0.24129053077E+02  0.15354580088E+03 -0.26469425909E+03  0.30695533057E+03  0.00000000000E+00 0. -1.
        -14    1    4    4    0    0  0.13901893456E+02 -0.11602768992E+00 -0.54642388247E+02  0.56383212904E+02  0.00000000000E+00 0.  1.
</event>
<event>
12    1  0.8344842E-002  0.2005553E+03  0.7818608E-02  0.1149564E+00
         21   -1    0    0  503  502  0.00000000000E+00  0.00000000000E+00  0.14720369543E+02  0.14720369543E+02  0.00000000000E+00 0. -1.
         21   -1    0    0  501  503 -0.00000000000E+00 -0.00000000000E+00 -0.29152195503E+04  0.29152195503E+04  0.00000000000E+00 0. -1.
          6    2    1    2  501    0  0.90141955022E+02 -0.51342093559E+02 -0.10696473316E+04  0.10882866612E+04  0.17164166297E+03 0.  0.
         24    2    3    3    0    0  0.34422637486E+02 -0.95421327740E+02 -0.60317550426E+03  0.61641202015E+03  0.76504521960E+02 0.  0.
         -6    2    1    2    0  502 -0.90141955022E+02  0.51342093559E+02 -0.18308518492E+04  0.18416532586E+04  0.17001955369E+03 0.  0.
        -24    2    5    5    0    0 -0.90409836846E+02  0.80377370646E+02 -0.17435009654E+04  0.17494828405E+04  0.79120999301E+02 0.  0.
          5    1    3    3  501    0  0.55719317536E+02  0.44079234181E+02 -0.46647182732E+03  0.47187464110E+03  0.47000000000E+01 0. -1.
        -11    1    4    4    0    0  0.43261644397E+02 -0.56239820409E+02 -0.51049155577E+03  0.51539898699E+03  0.00000000000E+00 0.  1.
         12    1    4    4    0    0 -0.88390069110E+01 -0.39181507331E+02 -0.92683948494E+02  0.10101303316E+03  0.00000000000E+00 0. -1.
         -5    1    5    5    0  502  0.26788182459E+00 -0.29035277087E+02 -0.87350883796E+02  0.92170418119E+02  0.47000000000E+01 0.  1.
         13    1    6    6    0    0  0.46737872607E+01  0.40290044009E+02 -0.41327384171E+03  0.41525943719E+03  0.00000000000E+00 0. -1.
        -14    1    6    6    0    0 -0.95083624107E+02  0.40087326636E+02 -0.13302271237E+04  0.13342234033E+04  0.00000000000E+00 0.  1.
</event>
<event>
12    1  0.8344842E-002  0.2721582E+03  0.7818608E-02  0.1100074E+00
         21   -1    0    0  503  502  0.00000000000E+00  0.00000000000E+00  0.64817476269E+02  0.64817476269E+02  0.00000000000E+00 0. -1.
         21   -1    0    0  501  503 -0.00000000000E+00 -0.00000000000E+00 -0.13468242200E+04  0.13468242200E+04  0.00000000000E+00 0.  1.
          6    2    1    2  501    0  0.17754794616E+03 -0.11330334036E+03 -0.91638230561E+03  0.95594277992E+03  0.17236341932E+03 0.  0.
         24    2    3    3    0    0  0.17334916741E+03 -0.42603266473E+02 -0.57812523790E+03  0.61031861403E+03  0.79969042617E+02 0.  0.
         -6    2    1    2    0  502 -0.17754794616E+03  0.11330334036E+03 -0.36562443814E+03  0.45569891637E+03  0.17210273820E+03 0.  0.
        -24    2    5    5    0    0 -0.59882742556E+02  0.59158108127E+02 -0.27338519461E+03  0.29661725697E+03  0.78464691961E+02 0.  0.
          5    1    3    3  501    0  0.41987787498E+01 -0.70700073890E+02 -0.33825706771E+03  0.34562416589E+03  0.47000000000E+01 0. -1.
        -11    1    4    4    0    0  0.64540758443E+02 -0.63833076081E+00 -0.32869315668E+03  0.33497030946E+03  0.00000000000E+00 0.  1.
         12    1    4    4    0    0  0.10880840896E+03 -0.41964935712E+02 -0.24943208122E+03  0.27534830458E+03  0.00000000000E+00 0. -1.
         -5    1    5    5    0  502 -0.11766520360E+03  0.54145232236E+02 -0.92239243532E+02  0.15908165941E+03  0.47000000000E+01 0.  1.
         13    1    6    6    0    0  0.15167589551E+02  0.28094298375E+02 -0.10350962250E+03  0.10832168446E+03  0.00000000000E+00 0. -1.
        -14    1    6    6    0    0 -0.75050332108E+02  0.31063809753E+02 -0.16987557211E+03  0.18829557251E+03  0.00000000000E+00 0.  1.
</event>
<event>
12    1  0.8344842E-002  0.2049821E+03  0.7818608E-02  0.1145705E+00
         21   -1    0    0  501  502  0.00000000000E+00  0.00000000000E+00  0.71156545257E+03  0.71156545257E+03  0.00000000000E+00 0. -1.
         21   -1    0    0  502  503 -0.00000000000E+00 -0.00000000000E+00 -0.15503579258E+03  0.15503579258E+03  0.00000000000E+00 0. -1.
         -6    2    1    2    0  503 -0.10607452175E+03  0.40423796704E+02 -0.63059866658E+02  0.21398432268E+03  0.17007897009E+03 0.  0.
        -24    2    3    3    0    0 -0.41823197763E+02  0.76516646495E+02 -0.71531491053E+02  0.13965542615E+03  0.82358404428E+02 0.  0.
          6    2    1    2  501    0  0.10607452175E+03 -0.40423796704E+02  0.61958952665E+03  0.65261692247E+03  0.17068033998E+03 0.  0.
         24    2    5    5    0    0  0.54296028801E+02 -0.90989611433E+02  0.39871595577E+03  0.42014081990E+03  0.79477839873E+02 0.  0.
          5    1    5    5  501    0  0.51778492944E+02  0.50565814729E+02  0.22087357088E+03  0.23247610256E+03  0.47000000000E+01 0. -1.
        -11    1    6    6    0    0  0.27120250681E+02 -0.69026567796E+02  0.36175233586E+03  0.36927622122E+03  0.00000000000E+00 0.  1.
         12    1    6    6    0    0  0.27175778121E+02 -0.21963043637E+02  0.36963619909E+02  0.50864598681E+02  0.00000000000E+00 0. -1.
         -5    1    3    3    0  503 -0.64251323983E+02 -0.36092849791E+02  0.84716243951E+01  0.74328896531E+02  0.47000000000E+01 0.  1.
         13    1    4    4    0    0 -0.36938117103E+02  0.94257421636E+02 -0.64016477402E+02  0.11977894392E+03  0.00000000000E+00 0. -1.
        -14    1    4    4    0    0 -0.48850806595E+01 -0.17740775141E+02 -0.75150136505E+01  0.19876482229E+02  0.00000000000E+00 0.  1.
</event>
<event>
12    1  0.8344842E-002  0.1802239E+03  0.7818608E-02  0.1167716E+00
         21   -1    0    0  501  502  0.00000000000E+00  0.00000000000E+00  0.31073260080E+03  0.31073260080E+03  0.00000000000E+00 0.  1.
         21   -1    0    0  502  503 -0.00000000000E+00 -0.00000000000E+00 -0.42329775143E+03  0.42329775143E+03  0.00000000000E+00 0.  1.
         -6    2    1    2    0  503  0.50361836321E+02  0.16061092386E+02 -0.37490939960E+03  0.41574563628E+03  0.17173556104E+03 0.  0.
        -24    2    3    3    0    0 -0.16870318972E+02 -0.32000439512E+02 -0.12493224217E+03  0.15241933149E+03  0.79466670294E+02 0.  0.
          6    2    1    2  501    0 -0.50361836321E+02 -0.16061092386E+02  0.26234424897E+03  0.31828471595E+03  0.17229736559E+03 0.  0.
         24    2    5    5    0    0 -0.75307788547E+02  0.33772519714E+02  0.12236299579E+03  0.16754477210E+03  0.79288724394E+02 0.  0.
          5    1    5    5  501    0  0.24945952226E+02 -0.49833612101E+02  0.13998125318E+03  0.15073994384E+03  0.47000000000E+01 0. -1.
        -13    1    6    6    0    0  0.38625412334E+01  0.48868988215E+01  0.65693432239E+02  0.65988090169E+02  0.00000000000E+00 0.  1.
         14    1    6    6    0    0 -0.79170329781E+02  0.28885620893E+02  0.56669563551E+02  0.10155668193E+03  0.00000000000E+00 0. -1.
         -5    1    3    3    0  503  0.67232155293E+02  0.48061531898E+02 -0.24997715743E+03  0.26332630479E+03  0.47000000000E+01 0.  1.
         11    1    4    4    0    0  0.47575939848E+01 -0.43669361291E+01  0.10603149965E+02  0.12414975669E+02  0.00000000000E+00 0. -1.
        -12    1    4    4    0    0 -0.21627912957E+02 -0.27633503383E+02 -0.13553539213E+03  0.14000435582E+03  0.00000000000E+00 0.  1.
</event>
<event>
12    1  0.8344842E-002  0.2046767E+03  0.7818608E-02  0.1146074E+00
         21   -1    0    0  501  502  0.00000000000E+00  0.00000000000E+00  0.18639099754E+03  0.18639099754E+03  0.00000000000E+00 0.  1.
         21   -1    0    0  502  503 -0.00000000000E+00 -0.00000000000E+00 -0.23049041276E+03  0.23049041276E+03  0.00000000000E+00 0.  1.
         -6    2    1    2    0  503 -0.89320077777E+02  0.63821710332E+02 -0.58219173127E+02  0.21279569060E+03  0.17274619190E+03 0.  0.
        -24    2    3    3    0    0 -0.68425127462E+02  0.49778055414E+02 -0.10671189214E+03  0.15795540441E+03  0.80016429490E+02 0.  0.
          6    2    1    2  501    0  0.89320077777E+02 -0.63821710332E+02  0.14119757912E+02  0.20408571970E+03  0.17146523385E+03 0.  0.
         24    2    5    5    0    0  0.24963406216E+02 -0.36980338641E+02  0.69666154489E+02  0.11481236096E+03  0.79610225795E+02 0.  0.
          5    1    5    5  501    0  0.64356671560E+02 -0.26841371691E+02 -0.55546396577E+02  0.89273358743E+02  0.47000000000E+01 0. -1.
        -13    1    6    6    0    0  0.51267818453E+02 -0.15500722995E+02  0.26120159035E+02  0.59589632741E+02  0.00000000000E+00 0.  1.
         14    1    6    6    0    0 -0.26304412236E+02 -0.21479615645E+02  0.43545995454E+02  0.55222728214E+02  0.00000000000E+00 0. -1.
         -5    1    3    3    0  503 -0.20894950315E+02  0.14043654917E+02  0.48492719016E+02  0.54840286192E+02  0.47000000000E+01 0.  1.
         13    1    4    4    0    0  0.13067514598E+02  0.29286510306E+02 -0.35169005368E+02  0.47595362823E+02  0.00000000000E+00 0. -1.
        -14    1    4    4    0    0 -0.81492642060E+02  0.20491545108E+02 -0.71542886776E+02  0.11036004159E+03  0.00000000000E+00 0.  1.
</event>
<event>
12    1  0.8344842E-002  0.2241092E+03  0.7818608E-02  0.1131121E+00
         21   -1    0    0  501  502  0.00000000000E+00  0.00000000000E+00  0.99198518065E+02  0.99198518065E+02  0.00000000000E+00 0. -1.
         21   -1    0    0  502  503 -0.00000000000E+00 -0.00000000000E+00 -0.57258100444E+03  0.57258100444E+03  0.00000000000E+00 0. -1.
         -6    2    1    2    0  503 -0.83737958198E+02 -0.11484097316E+03 -0.11895468648E+03  0.25244193484E+03  0.17139491903E+03 0.  0.
        -24    2    3    3    0    0 -0.12524885531E+03 -0.81446569770E+02 -0.83782026267E+02  0.18842985174E+03  0.78521090270E+02 0.  0.
          6    2    1    2  501    0  0.83737958198E+02  0.11484097316E+03 -0.35442779990E+03  0.41933758767E+03  0.17327565419E+03 0.  0.
         24    2    5    5    0    0  0.24702575090E+02 -0.94065960505E+01 -0.15629117194E+03  0.17808492291E+03  0.81170241334E+02 0.  0.
          5    1    5    5  501    0  0.59035383108E+02  0.12424756921E+03 -0.19813662796E+03  0.24125266476E+03  0.47000000000E+01 0. -1.
        -13    1    6    6    0    0 -0.15876756781E+02 -0.19254621192E+02 -0.11658728065E+02  0.27545195284E+02  0.00000000000E+00 0.  1.
         14    1    6    6    0    0  0.40579331871E+02  0.98480251416E+01 -0.14463244387E+03  0.15053972763E+03  0.00000000000E+00 0. -1.
         -5    1    3    3    0  503  0.41510897109E+02 -0.33394403389E+02 -0.35172660214E+02  0.64012083101E+02  0.47000000000E+01 0.  1.
         11    1    4    4    0    0 -0.59638069761E+02 -0.81418200517E+02 -0.65513992740E+02  0.12032333932E+03  0.00000000000E+00 0. -1.
        -12    1    4    4    0    0 -0.65610785546E+02 -0.28369253006E-01 -0.18268033527E+02  0.68106512417E+02  0.00000000000E+00 0.  1.
</event>
<event>
12    1  0.8344842E-002  0.1974094E+03  0.7818608E-02  0.1152072E+00
         21   -1    0    0  501  502  0.00000000000E+00  0.00000000000E+00  0.29659182178E+03  0.29659182178E+03  0.00000000000E+00 0.  1.
         21   -1    0    0  502  503 -0.00000000000E+00 -0.00000000000E+00 -0.37583004177E+03  0.37583004177E+03  0.00000000000E+00 0. -1.
         -6    2    1    2    0  503  0.83502745306E+02 -0.49957570124E+02 -0.31100355626E+03  0.36836624531E+03  0.17176149567E+03 0.  0.
        -24    2    3    3    0    0  0.16304479410E+01 -0.64220736679E+02 -0.10758130689E+03  0.14857267731E+03  0.79831957707E+02 0.  0.
          6    2    1    2  501    0 -0.83502745306E+02  0.49957570124E+02  0.23176533627E+03  0.30405561823E+03  0.17107361162E+03 0.  0.
         24    2    5    5    0    0 -0.90656600081E+02  0.90956653437E+02  0.19619575371E+03  0.24910666306E+03  0.84081055321E+02 0.  0.
          5    1    5    5  501    0  0.71538547755E+01 -0.40999083313E+02  0.35569582556E+02  0.54948955166E+02  0.47000000000E+01 0. -1.
        -13    1    6    6    0    0 -0.75379881462E+01  0.11279139433E+02  0.94553183125E+02  0.95521435765E+02  0.00000000000E+00 0.  1.
         14    1    6    6    0    0 -0.83118611935E+02  0.79677514004E+02  0.10164257059E+03  0.15358522730E+03  0.00000000000E+00 0. -1.
         -5    1    3    3    0  503  0.81872297365E+02  0.14263166556E+02 -0.20342224937E+03  0.21979356800E+03  0.47000000000E+01 0.  1.
         13    1    4    4    0    0  0.31118654524E+02 -0.46726251926E+02 -0.98051297015E+02  0.11298570761E+03  0.00000000000E+00 0. -1.
        -14    1    4    4    0    0 -0.29488206583E+02 -0.17494484754E+02 -0.95300098774E+01  0.35586969701E+02  0.00000000000E+00 0.  1.
</event>
<event>
12    1  0.8344842E-002  0.2087978E+03  0.7818608E-02  0.1142608E+00
         21   -1    0    0  503  502  0.00000000000E+00  0.00000000000E+00  0.35041485081E+03  0.35041485081E+03  0.00000000000E+00 0. -1.
         21   -1    0    0  501  503 -0.00000000000E+00 -0.00000000000E+00 -0.12523524880E+03  0.12523524880E+03  0.00000000000E+00 0. -1.
          6    2    1    2  501    0  0.91903237094E+02  0.72734670953E+02  0.90630630691E+02  0.22761904310E+03  0.17280040572E+03 0.  0.
         24    2    3    3    0    0 -0.18382014395E+02  0.11705286288E+02  0.21757878603E+02  0.83907636220E+02  0.78052379556E+02 0.  0.
         -6    2    1    2    0  502 -0.91903237094E+02 -0.72734670953E+02  0.13454897132E+03  0.24803105651E+03  0.17227722415E+03 0.  0.
        -24    2    5    5    0    0 -0.13025186449E+03 -0.53653659952E+02  0.87054845064E+02  0.18390240275E+03  0.79983024801E+02 0.  0.
          5    1    3    3  501    0  0.11028525149E+03  0.61029384665E+02  0.68872752088E+02  0.14371140688E+03  0.47000000000E+01 0. -1.
        -13    1    4    4    0    0 -0.25477434646E+02  0.29778810107E+02  0.40897659576E+02  0.56643585394E+02  0.00000000000E+00 0.  1.
         14    1    4    4    0    0  0.70954202510E+01 -0.18073523819E+02 -0.19139780972E+02  0.27264050826E+02  0.00000000000E+00 0. -1.
         -5    1    5    5    0  502  0.38348627399E+02 -0.19081011001E+02  0.47494126258E+02  0.64128653761E+02  0.47000000000E+01 0.  1.
         13    1    6    6    0    0 -0.46420550426E+01  0.97301603494E+01  0.30352652278E+02  0.32210374040E+02  0.00000000000E+00 0. -1.
        -14    1    6    6    0    0 -0.12560980945E+03 -0.63383820302E+02  0.56702192785E+02  0.15169202871E+03  0.00000000000E+00 0.  1.
</event>
<event>
12    1  0.8344842E-002  0.1764348E+03  0.7818608E-02  0.1172466E+00
         21   -1    0    0  503  502  0.00000000000E+00  0.00000000000E+00  0.31945101254E+03  0.31945101254E+03  0.00000000000E+00 0.  1.
         21   -1    0    0  501  503 -0.00000000000E+00 -0.00000000000E+00 -0.10207786737E+03  0.10207786737E+03  0.00000000000E+00 0.  1.
          6    2    1    2  501    0 -0.34419822178E+01 -0.52031612258E+01  0.51474772376E+02  0.17934817169E+03  0.17168923778E+03 0.  0.
         24    2    3    3    0    0  0.27244458967E-01 -0.32388989460E+02  0.94608627388E+02  0.12802834863E+03  0.79946346367E+02 0.  0.
         -6    2    1    2    0  502  0.34419822178E+01  0.52031612258E+01  0.16589837279E+03  0.24218070822E+03  0.17632443169E+03 0.  0.
        -24    2    5    5    0    0 -0.40791872355E+02 -0.12022327226E+02  0.24926185683E+02  0.93356654786E+02  0.79282009674E+02 0.  0.
          5    1    3    3  501    0 -0.34692266767E+01  0.27185828234E+02 -0.43133855012E+02  0.51319823057E+02  0.47000000000E+01 0. -1.
        -13    1    4    4    0    0  0.31874388353E+02 -0.26374226404E+02  0.18525186470E+02  0.45329449424E+02  0.00000000000E+00 0.  1.
         14    1    4    4    0    0 -0.31847143894E+02 -0.60147630561E+01  0.76083440917E+02  0.82698899211E+02  0.00000000000E+00 0. -1.
         -5    1    5    5    0  502  0.44233854573E+02  0.17225488452E+02  0.14097218711E+03  0.14882405343E+03  0.47000000000E+01 0.  1.
         13    1    6    6    0    0 -0.67829169289E+01 -0.38777856770E+02  0.30402149432E+02  0.49739529831E+02  0.00000000000E+00 0. -1.
        -14    1    6    6    0    0 -0.34008955426E+02  0.26755529543E+02 -0.54759637499E+01  0.43617124955E+02  0.00000000000E+00 0.  1.
</event>
<event>
12    1  0.8344842E-002  0.2179973E+03  0.7818608E-02  0.1135425E+00
         21   -1    0    0  501  502  0.00000000000E+00  0.00000000000E+00  0.39222655615E+02  0.39222655615E+02  0.00000000000E+00 0. -1.
         21   -1    0    0  502  503 -0.00000000000E+00 -0.00000000000E+00 -0.14174370054E+04  0.14174370054E+04  0.00000000000E+00 0.  1.
         -6    2    1    2    0  503 -0.12756731959E+03  0.37768150846E+02 -0.96715359896E+03  0.99137073544E+03  0.17242388714E+03 0.  0.
        -24    2    3    3    0    0  0.22349055465E+01  0.19783296579E+02 -0.44410908792E+03  0.45214005830E+03  0.82470459698E+02 0.  0.
          6    2    1    2  501    0  0.12756731959E+03 -0.37768150846E+02 -0.41106075082E+03  0.46528892558E+03  0.17269333846E+03 0.  0.
         24    2    5    5    0    0  0.10036374181E+03 -0.54212086446E+02 -0.17188101991E+03  0.22396037081E+03  0.87197085409E+02 0.  0.
          5    1    5    5  501    0  0.27203577789E+02  0.16443935600E+02 -0.23917973092E+03  0.24132855477E+03  0.47000000000E+01 0. -1.
        -13    1    6    6    0    0  0.33604329239E+02 -0.49616644393E+02 -0.13465062320E+03  0.14738335276E+03  0.00000000000E+00 0.  1.
         14    1    6    6    0    0  0.66759412566E+02 -0.45954420531E+01 -0.37230396707E+02  0.76577018046E+02  0.00000000000E+00 0. -1.
         -5    1    3    3    0  503 -0.12980222514E+03  0.17984854267E+02 -0.52304451104E+03  0.53923067713E+03  0.47000000000E+01 0.  1.
         13    1    4    4    0    0  0.22823745414E+02  0.43805032386E+02 -0.33192628474E+03  0.33558138017E+03  0.00000000000E+00 0. -1.
        -14    1    4    4    0    0 -0.20588839867E+02 -0.24021735807E+02 -0.11218280318E+03  0.11655867813E+03  0.00000000000E+00 0.  1.
</event>
<event>
12    1  0.8344842E-002  0.1815291E+03  0.7818608E-02  0.1167275E+00
         21   -1    0    0  501  502  0.00000000000E+00  0.00000000000E+00  0.16293588308E+04  0.16293588308E+04  0.00000000000E+00 0.  1.
         21   -1    0    0  502  503 -0.00000000000E+00 -0.00000000000E+00 -0.61003876409E+02  0.61003876409E+02  0.00000000000E+00 0. -1.
         -6    2    1    2    0  503 -0.22272170096E+02 -0.54005677118E+02  0.92279816383E+02  0.20363785475E+03  0.17187247788E+03 0.  0.
        -24    2    3    3    0    0 -0.10109232551E+01  0.88840617499E+01 -0.11168182120E+02  0.80630788828E+02  0.79351416472E+02 0.  0.
          6    2    1    2  501    0  0.22272170096E+02  0.54005677118E+02  0.14760751380E+04  0.14867248525E+04  0.16775074115E+03 0.  0.
         24    2    5    5    0    0  0.73266152152E+02  0.62302444705E+02  0.94243638424E+03  0.95057036719E+03  0.78410209554E+02 0.  0.
          5    1    5    5  501    0 -0.50993982056E+02 -0.82967675870E+01  0.53363875379E+03  0.53615448530E+03  0.47000000000E+01 0. -1.
        -13    1    6    6    0    0  0.16315457001E+02  0.57434705682E+02  0.32058844315E+03  0.32610104176E+03  0.00000000000E+00 0.  1.
         14    1    6    6    0    0  0.56950695151E+02  0.48677390233E+01  0.62184794109E+03  0.62446932543E+03  0.00000000000E+00 0. -1.
         -5    1    3    3    0  503 -0.21261246840E+02 -0.62889738868E+02  0.10344799850E+03  0.12300706592E+03  0.47000000000E+01 0.  1.
         11    1    4    4    0    0  0.26909952318E+01 -0.29798165100E+02 -0.25400598516E+02  0.39247452193E+02  0.00000000000E+00 0. -1.
        -12    1    4    4    0    0 -0.37019184869E+01  0.38682226850E+02  0.14232416396E+02  0.41383336635E+02  0.00000000000E+00 0.  1.
</event>
<event>
12    1  0.8344842E-002  0.2164711E+03  0.7818608E-02  0.1137024E+00
         21   -1    0    0  503  502  0.00000000000E+00  0.00000000000E+00  0.10400206094E+03  0.10400206094E+03  0.00000000000E+00 0.  1.
         21   -1    0    0  501  503 -0.00000000000E+00 -0.00000000000E+00 -0.59405016518E+03  0.59405016518E+03  0.00000000000E+00 0. -1.
          6    2    1    2  501    0 -0.26962094048E+02  0.12463229616E+03 -0.41857797684E+03  0.47008797469E+03  0.17179935243E+03 0.  0.
         24    2    3    3    0    0  0.54533606490E+01  0.14592853511E+03 -0.34476681959E+03  0.38657469173E+03  0.96181889635E+02 0.  0.
         -6    2    1    2    0  502  0.26962094048E+02 -0.12463229616E+03 -0.71470127402E+02  0.22796425143E+03  0.17492729078E+03 0.  0.
        -24    2    5    5    0    0  0.21218645188E+02  0.13405975490E+01 -0.61863365521E+02  0.10140779356E+03  0.77488299095E+02 0.  0.
          5    1    3    3  501    0 -0.32415454697E+02 -0.21296238953E+02 -0.73811157244E+02  0.83513282958E+02  0.47000000000E+01 0. -1.
        -13    1    4    4    0    0 -0.24026269443E+02  0.62615033927E+02 -0.65843228793E+02  0.93985290737E+02  0.00000000000E+00 0.  1.
         14    1    4    4    0    0  0.29479630092E+02  0.83313501185E+02 -0.27892359080E+03  0.29258940100E+03  0.00000000000E+00 0. -1.
         -5    1    5    5    0  502  0.57434488603E+01 -0.12597289371E+03 -0.96067618818E+01  0.12655645787E+03  0.47000000000E+01 0.  1.
         13    1    6    6    0    0  0.43172007092E+02  0.11458520810E+02 -0.12403575797E+02  0.46356969142E+02  0.00000000000E+00 0. -1.
        -14    1    6    6    0    0 -0.21953361904E+02 -0.10117923261E+02 -0.49459789724E+02  0.55050824422E+02  0.00000000000E+00 0.  1.
</event>
<event>
12    1  0.8344842E-002  0.1843191E+03  0.7818608E-02  0.1163728E+00
         21   -1    0    0  501  502  0.00000000000E+00  0.00000000000E+00  0.35807048823E+02  0.35807048823E+02  0.00000000000E+00 0. -1.
         21   -1    0    0  502  503 -0.00000000000E+00 -0.00000000000E+00 -0.10335892949E+04  0.10335892949E+04  0.00000000000E+00 0. -1.
         -6    2    1    2    0  503 -0.11087046009E+01  0.65890115197E+02 -0.65262573604E+03  0.67810804466E+03  0.17195183157E+03 0.  0.
        -24    2    3    3    0    0 -0.55253894202E+02  0.79765514654E+02 -0.40487448314E+03  0.42408638893E+03  0.80686975545E+02 0.  0.
          6    2    1    2  501    0  0.11087046009E+01 -0.65890115197E+02 -0.34515651002E+03  0.39128829904E+03  0.17213593482E+03 0.  0.
         24    2    5    5    0    0  0.46338310863E+02  0.71460103746E+01 -0.21654717644E+03  0.23655483917E+03  0.82868617661E+02 0.  0.
          5    1    5    5  501    0 -0.45229606262E+02 -0.73036125572E+02 -0.12860933357E+03  0.15473345987E+03  0.47000000000E+01 0. -1.
        -13    1    6    6    0    0 -0.21591827095E+02  0.12712172111E+02 -0.38790485071E+02  0.46179086707E+02  0.00000000000E+00 0.  1.
         14    1    6    6    0    0  0.67930137958E+02 -0.55661617362E+01 -0.17775669137E+03  0.19037575247E+03  0.00000000000E+00 0. -1.
         -5    1    3    3    0  503  0.54145189601E+02 -0.13875399457E+02 -0.24775125290E+03  0.25402165573E+03  0.47000000000E+01 0.  1.
         13    1    4    4    0    0 -0.11161983260E+02  0.61509680558E+02 -0.32567448368E+03  0.33162011397E+03  0.00000000000E+00 0. -1.
        -14    1    4    4    0    0 -0.44091910942E+02  0.18255834096E+02 -0.79199999464E+02  0.92466274956E+02  0.00000000000E+00 0.  1.
</event>
<event>
12    1  0.8344842E-002  0.3034422E+03  0.7818608E-02  0.1083538E+00
         21   -1    0    0  501  502  0.00000000000E+00  0.00000000000E+00  0.48551334626E+02  0.48551334626E+02  0.00000000000E+00 0. -1.
         21   -1    0    0  502  503 -0.00000000000E+00 -0.00000000000E+00 -0.19415360556E+04  0.19415360556E+04  0.00000000000E+00 0.  1.
         -6    2    1    2    0  503 -0.89319370216E+02 -0.23394952099E+03 -0.10984651507E+04  0.11395943048E+04  0.17128678846E+03 0.  0.
        -24    2    3    3    0    0  0.14572115018E+02 -0.99667362027E+02 -0.42861076437E+03  0.44854283939E+03  0.85659569491E+02 0.  0.
          6    2    1    2  501    0  0.89319370216E+02  0.23394952099E+03 -0.79451957024E+03  0.85049308542E+03  0.17136747821E+03 0.  0.
         24    2    5    5    0    0  0.71242690624E+02  0.22091788494E+03 -0.52155345478E+03  0.57657853657E+03  0.80898515365E+02 0.  0.
          5    1    5    5  501    0  0.18076679592E+02  0.13031636051E+02 -0.27296611546E+03  0.27391454885E+03  0.47000000000E+01 0. -1.
        -11    1    6    6    0    0  0.25109195565E+02  0.14274833518E+03 -0.39568815200E+03  0.42139847239E+03  0.00000000000E+00 0.  1.
         12    1    6    6    0    0  0.46133495060E+02  0.78169549757E+02 -0.12586530278E+03  0.15518006419E+03  0.00000000000E+00 0. -1.
         -5    1    3    3    0  503 -0.10389148523E+03 -0.13428215896E+03 -0.66985438637E+03  0.69105146542E+03  0.47000000000E+01 0.  1.
         13    1    4    4    0    0  0.61467450432E+01 -0.86355376331E+02 -0.18318959862E+03  0.20261654064E+03  0.00000000000E+00 0. -1.
        -14    1    4    4    0    0  0.84253699745E+01 -0.13311985696E+02 -0.24542116575E+03  0.24592629875E+03  0.00000000000E+00 0.  1.
</event>
<event>
12    1  0.8344842E-002  0.2887249E+03  0.7818608E-02  0.1091498E+00
         21   -1    0    0  503  502  0.00000000000E+00  0.00000000000E+00  0.67108429607E+03  0.67108429607E+03  0.00000000000E+00 0. -1.
         21   -1    0    0  501  503 -0.00000000000E+00 -0.00000000000E+00 -0.15553176077E+03  0.15553176077E+03  0.00000000000E+00 0.  1.
          6    2    1    2  501    0 -0.19957256209E+03  0.10765829392E+03  0.69051957966E+02  0.29686740153E+03  0.17872483153E+03 0.  0.
         24    2    3    3    0    0 -0.17065108479E+03  0.99464945152E+02 -0.97649086421E+01  0.21238206982E+03  0.77432048184E+02 0.  0.
         -6    2    1    2    0  502  0.19957256209E+03 -0.10765829392E+03  0.44650057734E+03  0.52974865531E+03  0.17277545095E+03 0.  0.
        -24    2    5    5    0    0  0.17797501998E+03 -0.11460554687E+03  0.27167561264E+03  0.35339510011E+03  0.79189135434E+02 0.  0.
          5    1    3    3  501    0 -0.28921477298E+02  0.81933487686E+01  0.78816866608E+02  0.84485331715E+02  0.47000000000E+01 0. -1.
        -11    1    4    4    0    0 -0.99414278845E+02  0.53109159655E+02 -0.43672859057E+02  0.12087638436E+03  0.00000000000E+00 0.  1.
         12    1    4    4    0    0 -0.71236805944E+02  0.46355785497E+02  0.33907950415E+02  0.91505685459E+02  0.00000000000E+00 0. -1.
         -5    1    5    5    0  502  0.21597542110E+02  0.69472529482E+01  0.17482496470E+03  0.17635355520E+03  0.47000000000E+01 0.  1.
         11    1    6    6    0    0  0.79863953485E+02 -0.10039831027E+02  0.12164171215E+03  0.14586211094E+03  0.00000000000E+00 0. -1.
        -12    1    6    6    0    0  0.98111066492E+02 -0.10456571584E+03  0.15003390049E+03  0.20753298917E+03  0.00000000000E+00 0.  1.
</event>
<event>
12    1  0.8344842E-002  0.2168924E+03  0.7818608E-02  0.1136377E+00
         21   -1    0    0  503  502  0.00000000000E+00  0.00000000000E+00  0.98530284596E+03  0.98530284596E+03  0.00000000000E+00 0. -1.
         21   -1    0    0  501  503 -0.00000000000E+00 -0.00000000000E+00 -0.48910984772E+02  0.48910984772E+02  0.00000000000E+00 0.  1.
          6    2    1    2  501    0  0.12303487353E+03  0.45680278265E+02  0.38322992473E+03  0.44034926318E+03  0.17267898092E+03 0.  0.
         24    2    3    3    0    0  0.84959053186E+02  0.69641934896E+02  0.15034357489E+03  0.20311083665E+03  0.81134343156E+02 0.  0.
         -6    2    1    2    0  502 -0.12303487353E+03 -0.45680278265E+02  0.55316193646E+03  0.59386456755E+03  0.17164710517E+03 0.  0.
        -24    2    5    5    0    0 -0.10181517922E+03 -0.18406601758E+02  0.54168953488E+03  0.55715169712E+03  0.79280058646E+02 0.  0.
          5    1    3    3  501    0  0.38075820347E+02 -0.23961656631E+02  0.23288634983E+03  0.23723842653E+03  0.47000000000E+01 0. -1.
        -11    1    4    4    0    0  0.27083561411E+02 -0.13503113390E+02  0.60753914196E+02  0.67874085335E+02  0.00000000000E+00 0.  1.
         12    1    4    4    0    0  0.57875491775E+02  0.83145048287E+02  0.89589660695E+02  0.13523675132E+03  0.00000000000E+00 0. -1.
         -5    1    5    5    0  502 -0.21219694313E+02 -0.27273676507E+02  0.11472401580E+02  0.36712870427E+02  0.47000000000E+01 0.  1.
         11    1    6    6    0    0 -0.83262130177E+01 -0.34391808066E+02  0.13693049546E+03  0.14142872011E+03  0.00000000000E+00 0. -1.
        -12    1    6    6    0    0 -0.93488966203E+02  0.15985206308E+02  0.40475903942E+03  0.41572297701E+03  0.00000000000E+00 0.  1.
</event>
<event>
12    1  0.8344842E-002  0.1726952E+03  0.7818608E-02  0.1175516E+00
         21   -1    0    0  501  502  0.00000000000E+00  0.00000000000E+00  0.46227918851E+03  0.46227918851E+03  0.00000000000E+00 0.  1.
         21   -1    0    0  502  503 -0.00000000000E+00 -0.00000000000E+00 -0.12957256344E+03  0.12957256344E+03  0.00000000000E+00 0.  1.
         -6    2    1    2    0  503 -0.10375657422E+01  0.30074810366E+01 -0.43966477037E+02  0.17820402563E+03  0.17266586855E+03 0.  0.
        -24    2    3    3    0    0 -0.49201661861E+02  0.22257566487E+02  0.15916018137E+02  0.98841886214E+02  0.81241590587E+02 0.  0.
          6    2    1    2  501    0  0.10375657422E+01 -0.30074810366E+01  0.37667310210E+03  0.41364772632E+03  0.17091428892E+03 0.  0.
         24    2    5    5    0    0 -0.59870519721E+02  0.24194460519E+02  0.20490517674E+03  0.22932179032E+03  0.80202874073E+02 0.  0.
          5    1    5    5  501    0  0.60908085463E+02 -0.27201941555E+02  0.17176792536E+03  0.18432593600E+03  0.47000000000E+01 0. -1.
        -11    1    6    6    0    0  0.34472553403E+01 -0.23218387515E+02  0.55733647565E+02  0.60474925044E+02  0.00000000000E+00 0.  1.
         12    1    6    6    0    0 -0.63317775061E+02  0.47412848033E+02  0.14917152917E+03  0.16884686527E+03  0.00000000000E+00 0. -1.
         -5    1    3    3    0  503  0.48164096119E+02 -0.19250085450E+02 -0.59882495174E+02  0.79362139419E+02  0.47000000000E+01 0.  1.
         13    1    4    4    0    0 -0.60108796139E+02 -0.45735407162E+01 -0.86036297895E+01  0.60893407636E+02  0.00000000000E+00 0. -1.
        -14    1    4    4    0    0  0.10907134278E+02  0.26831107203E+02  0.24519647927E+02  0.37948478578E+02  0.00000000000E+00 0.  1.
</event>
<event>
12    1  0.8344842E-002  0.1765466E+03  0.7818608E-02  0.1173601E+00
         21   -1    0    0  503  502  0.00000000000E+00  0.00000000000E+00  0.12511275413E+03  0.12511275413E+03  0.00000000000E+00 0.  1.
         21   -1    0    0  501  503 -0.00000000000E+00 -0.00000000000E+00 -0.24093640120E+03  0.24093640120E+03  0.00000000000E+00 0. -1.
          6    2    1    2  501    0  0.19736506585E+02  0.28323673104E+02 -0.30106031941E+02  0.16979364146E+03  0.16349846290E+03 0.  0.
         24    2    3    3    0    0  0.36335680165E+02 -0.12670132939E+02  0.30692744455E+02  0.94463661310E+02  0.80625832239E+02 0.  0.
         -6    2    1    2    0  502 -0.19736506585E+02 -0.28323673104E+02 -0.85717615131E+02  0.19625551387E+03  0.17313854865E+03 0.  0.
        -24    2    5    5    0    0  0.39294145854E+02 -0.20859315010E+02 -0.10079070905E+03  0.13469560216E+03  0.77491917579E+02 0.  0.
          5    1    3    3  501    0 -0.16599173580E+02  0.40993806043E+02 -0.60798776396E+02  0.75329980145E+02  0.47000000000E+01 0. -1.
        -13    1    4    4    0    0  0.16102456675E+02  0.19108364958E+02  0.47142606280E+02  0.53355824886E+02  0.00000000000E+00 0.  1.
         14    1    4    4    0    0  0.20233223490E+02 -0.31778497898E+02 -0.16449861825E+02  0.41107836425E+02  0.00000000000E+00 0. -1.
         -5    1    5    5    0  502 -0.59030652439E+02 -0.74643580939E+01  0.15073093918E+02  0.61559911707E+02  0.47000000000E+01 0.  1.
         11    1    6    6    0    0  0.58414899129E+01  0.28616977268E+02 -0.27115694379E+02  0.39853673281E+02  0.00000000000E+00 0. -1.
        -12    1    6    6    0    0  0.33452655941E+02 -0.49476292278E+02 -0.73675014670E+02  0.94841928880E+02  0.00000000000E+00 0.  1.
</event>
<event>
12    1  0.8344842E-002  0.1938669E+03  0.7818608E-02  0.1155156E+00
         21   -1    0    0  503  502  0.00000000000E+00  0.00000000000E+00  0.43868506884E+03  0.43868506884E+03  0.00000000000E+00 0.  1.
         21   -1    0    0  501  503 -0.00000000000E+00 -0.00000000000E+00 -0.85861874527E+02  0.85861874527E+02  0.00000000000E+00 0.  1.
          6    2    1    2  501    0  0.40706097551E+02 -0.77846494204E+02  0.19534587690E+03  0.27478008924E+03  0.17212502080E+03 0.  0.
         24    2    3    3    0    0 -0.25453657279E+02 -0.29476156210E+02  0.17113811004E+03  0.18919440859E+03  0.70636669504E+02 0.  0.
         -6    2    1    2    0  502 -0.40706097551E+02  0.77846494204E+02  0.15747731742E+03  0.24976685413E+03  0.17282162157E+03 0.  0.
        -24    2    5    5    0    0 -0.47197213477E+02  0.96804383711E+02  0.17654858924E+03  0.22170728233E+03  0.79912758756E+02 0.  0.
          5    1    3    3  501    0  0.66159754830E+02 -0.48370337994E+02  0.24207766857E+02  0.85585680654E+02  0.47000000000E+01 0. -1.
        -13    1    4    4    0    0 -0.17903135511E+02 -0.49891281412E+02  0.83578457034E+02  0.98969796920E+02  0.00000000000E+00 0.  1.
         14    1    4    4    0    0 -0.75505217683E+01  0.20415125203E+02  0.87559653005E+02  0.90224611667E+02  0.00000000000E+00 0. -1.
         -5    1    5    5    0  502  0.64911159259E+01 -0.18957889507E+02 -0.19071271820E+02  0.28059571796E+02  0.47000000000E+01 0.  1.
         13    1    6    6    0    0 -0.10863877857E+01 -0.84142002206E+01 -0.26141580074E+01  0.88776588052E+01  0.00000000000E+00 0. -1.
        -14    1    6    6    0    0 -0.46110825691E+02  0.10521858393E+03  0.17916274725E+03  0.21282962353E+03  0.00000000000E+00 0.  1.
</event>
<event>
12    1  0.8344842E-002  0.1972547E+03  0.7818608E-02  0.1152872E+00
         21   -1    0    0  501  502  0.00000000000E+00  0.00000000000E+00  0.14191014287E+03  0.14191014287E+03  0.00000000000E+00 0. -1.
         21   -1    0    0  502  503 -0.00000000000E+00 -0.00000000000E+00 -0.31545657733E+03  0.31545657733E+03  0.00000000000E+00 0.  1.
         -6    2    1    2    0  503 -0.91706237189E+02  0.30805476529E+02 -0.17512173338E+03  0.26377461270E+03  0.17190233704E+03 0.  0.
        -24    2    3    3    0    0 -0.59298314371E+02  0.70035509923E+02 -0.16965260538E+03  0.21238132187E+03  0.88896325156E+02 0.  0.
          6    2    1    2  501    0  0.91706237189E+02 -0.30805476529E+02  0.15752989185E+01  0.19359210751E+03  0.16767948950E+03 0.  0.
         24    2    5    5    0    0  0.92886925629E+02  0.32037073940E+02  0.15124773754E+02  0.12912305724E+03  0.82399332949E+02 0.  0.
          5    1    5    5  501    0 -0.11806884397E+01 -0.62842550469E+02 -0.13549474835E+02  0.64469050272E+02  0.47000000000E+01 0. -1.
        -13    1    6    6    0    0 -0.53441761907E+01  0.67977579960E+01 -0.20001617336E+02  0.21790695927E+02  0.00000000000E+00 0.  1.
         14    1    6    6    0    0  0.98231101820E+02  0.25239315944E+02  0.35126391090E+02  0.10733236131E+03  0.00000000000E+00 0. -1.
         -5    1    3    3    0  503 -0.32407922819E+02 -0.39230033394E+02 -0.54691279936E+01  0.51393290832E+02  0.47000000000E+01 0.  1.
         13    1    4    4    0    0  0.59498282674E+01  0.61832162642E+01  0.85760040699E+01  0.12131795646E+02  0.00000000000E+00 0. -1.
        -14    1    4    4    0    0 -0.65248142638E+02  0.63852293659E+02 -0.17822860945E+03  0.20024952622E+03  0.00000000000E+00 0.  1.
</event>
<event>
12    1  0.8344842E-002  0.1830967E+03  0.7818608E-02  0.1164936E+00
         21   -1    0    0  503  502  0.00000000000E+00  0.00000000000E+00  0.73100848975E+03  0.73100848975E+03  0.00000000000E+00 0.  1.
         21   -1    0    0  501  503 -0.00000000000E+00 -0.00000000000E+00 -0.52870092221E+02  0.52870092221E+02  0.00000000000E+00 0.  1.
          6    2    1    2  501    0 -0.50740477185E+01  0.61769309311E+02  0.48315050783E+03  0.51668059065E+03  0.17228820620E+03 0.  0.
         24    2    3    3    0    0  0.56965624338E+02  0.17279406064E+02  0.34627716622E+03  0.35988558421E+03  0.77885156762E+02 0.  0.
         -6    2    1    2    0  502  0.50740477185E+01 -0.61769309311E+02  0.19498788970E+03  0.26719799133E+03  0.17185254117E+03 0.  0.
        -24    2    5    5    0    0  0.34077955120E+02  0.20237815985E+02  0.13809138641E+03  0.16315137999E+03  0.77319244515E+02 0.  0.
          5    1    3    3  501    0 -0.62039672057E+02  0.44489903248E+02  0.13687334161E+03  0.15679500644E+03  0.47000000000E+01 0. -1.
        -13    1    4    4    0    0  0.14953118524E+02  0.83945184402E+01  0.28237645912E+03  0.28289667435E+03  0.00000000000E+00 0.  1.
         14    1    4    4    0    0  0.42012505815E+02  0.88848876234E+01  0.63900707102E+02  0.76988909857E+02  0.00000000000E+00 0. -1.
         -5    1    5    5    0  502 -0.29003907402E+02 -0.82007125296E+02  0.56896503293E+02  0.10404661134E+03  0.47000000000E+01 0.  1.
         11    1    6    6    0    0  0.46861743370E+02 -0.13580956244E+02  0.61896339946E+02  0.78813845630E+02  0.00000000000E+00 0. -1.
        -12    1    6    6    0    0 -0.12783788250E+02  0.33818772229E+02  0.76195046460E+02  0.84337534361E+02  0.00000000000E+00 0.  1.
</event>
<event>
12    1  0.8344842E-002  0.3238268E+03  0.7818608E-02  0.1073980E+00
         21   -1    0    0  501  502  0.00000000000E+00  0.00000000000E+00  0.12737338818E+04  0.12737338818E+04  0.00000000000E+00 0.  1.
         21   -1    0    0  502  503 -0.00000000000E+00 -0.00000000000E+00 -0.36074539062E+03  0.36074539062E+03  0.00000000000E+00 0.  1.
         -6    2    1    2    0  503 -0.18118686157E+03 -0.20816778059E+03 -0.26179892932E+03  0.41587791227E+03  0.16808704543E+03 0.  0.
        -24    2    3    3    0    0 -0.57486903872E+02 -0.15061319232E+03 -0.10497296372E+03  0.20795801508E+03  0.78981865669E+02 0.  0.
          6    2    1    2  501    0  0.18118686157E+03  0.20816778059E+03  0.11747874205E+04  0.12186013602E+04  0.16941454460E+03 0.  0.
         24    2    5    5    0    0  0.10633412916E+03  0.11390064943E+03  0.92039130076E+03  0.93712542991E+03  0.82484058546E+02 0.  0.
          5    1    5    5  501    0  0.74852732404E+02  0.94267131160E+02  0.25439611977E+03  0.28147593027E+03  0.47000000000E+01 0. -1.
        -13    1    6    6    0    0  0.25494526556E+02  0.63483138525E+02  0.22303240750E+03  0.23328852212E+03  0.00000000000E+00 0.  1.
         14    1    6    6    0    0  0.80839602608E+02  0.50417510907E+02  0.69735889326E+03  0.70383690779E+03  0.00000000000E+00 0. -1.
         -5    1    3    3    0  503 -0.12369995770E+03 -0.57554588274E+02 -0.15682596559E+03  0.20791989720E+03  0.47000000000E+01 0.  1.
         13    1    4    4    0    0 -0.12845365180E+02  0.10441879899E+01  0.65814953924E+01  0.14470999162E+02  0.00000000000E+00 0. -1.
        -14    1    4    4    0    0 -0.44641538693E+02 -0.15165738031E+03 -0.11155445912E+03  0.19348701591E+03  0.00000000000E+00 0.  1.
</event>
<event>
12    1  0.8344842E-002  0.1784223E+03  0.7818608E-02  0.1169578E+00
         21   -1    0    0  503  502  0.00000000000E+00  0.00000000000E+00  0.10533470764E+04  0.10533470764E+04  0.00000000000E+00 0. -1.
         21   -1    0    0  501  503 -0.00000000000E+00 -0.00000000000E+00 -0.45172289361E+02  0.45172289361E+02  0.00000000000E+00 0. -1.
          6    2    1    2  501    0  0.44726789080E+02  0.23418071674E+01  0.18544650113E+03  0.25666643195E+03  0.17170114382E+03 0.  0.
         24    2    3    3    0    0 -0.32753961421E+02  0.33165994100E+02  0.92828905581E+02  0.13195273502E+03  0.81372682231E+02 0.  0.
         -6    2    1    2    0  502 -0.44726789080E+02 -0.23418071674E+01  0.82272828595E+03  0.84185293385E+03  0.17270946705E+03 0.  0.
        -24    2    5    5    0    0 -0.64714708186E+02 -0.23843661854E+01  0.81271163824E+03  0.81900688490E+03  0.77964042489E+02 0.  0.
          5    1    3    3  501    0  0.77480750501E+02 -0.30824186933E+02  0.92617595552E+02  0.12471369694E+03  0.47000000000E+01 0. -1.
        -11    1    4    4    0    0 -0.51390126780E+02  0.37257006966E+02  0.93326211186E+02  0.11286634305E+03  0.00000000000E+00 0.  1.
         12    1    4    4    0    0  0.18636165358E+02 -0.40910128659E+01 -0.49730560518E+00  0.19086391969E+02  0.00000000000E+00 0. -1.
         -5    1    5    5    0  502  0.19987919107E+02  0.42559018040E-01  0.10016647714E+02  0.22846048956E+02  0.47000000000E+01 0.  1.
         11    1    6    6    0    0 -0.34009551149E+02 -0.39715330511E+02  0.47102485547E+03  0.47391810634E+03  0.00000000000E+00 0. -1.
        -12    1    6    6    0    0 -0.30705157037E+02  0.37330964326E+02  0.34168678277E+03  0.34508877855E+03  0.00000000000E+00 0.  1.
</event>
<event>
12    1  0.8344842E-002  0.1749070E+03  0.7818608E-02  0.1173501E+00
         21   -1    0    0  501  502  0.00000000000E+00  0.00000000000E+00  0.65007839133E+03  0.65007839133E+03  0.00000000000E+00 0.  1.
         21   -1    0    0  502  503 -0.00000000000E+00 -0.00000000000E+00 -0.46476457430E+02  0.46476457430E+02  0.00000000000E+00 0.  1.
         -6    2    1    2    0  503  0.17703480648E+02  0.22661820935E+02  0.28556681751E+03  0.33487440787E+03  0.17252678176E+03 0.  0.
        -24    2    3    3    0    0 -0.46324870957E+02  0.37811417928E+02  0.11827475965E+03  0.15504709425E+03  0.80467295660E+02 0.  0.
          6    2    1    2  501    0 -0.17703480648E+02 -0.22661820935E+02  0.31803511639E+03  0.36168044089E+03  0.16982177338E+03 0.  0.
         24    2    5    5    0    0 -0.54555938428E+02  0.25049071691E+02  0.25869070540E+03  0.27695569814E+03  0.78611521160E+02 0.  0.
          5    1    5    5  501    0  0.36852457780E+02 -0.47710892627E+02  0.59344410987E+02  0.84724742756E+02  0.47000000000E+01 0. -1.
        -11    1    6    6    0    0 -0.56410675515E+01 -0.16017195525E+02  0.14947282251E+03  0.15043436065E+03  0.00000000000E+00 0.  1.
         12    1    6    6    0    0 -0.48914870877E+02  0.41066267216E+02  0.10921788290E+03  0.12652133749E+03  0.00000000000E+00 0. -1.
         -5    1    3    3    0  503  0.64028351605E+02 -0.15149596993E+02  0.16729205786E+03  0.17982731361E+03  0.47000000000E+01 0.  1.
         13    1    4    4    0    0 -0.57913088130E+02  0.26013331777E+02  0.12250388898E+03  0.13797761421E+03  0.00000000000E+00 0. -1.
        -14    1    4    4    0    0  0.11588217174E+02  0.11798086152E+02 -0.42291293305E+01  0.17069480045E+02  0.00000000000E+00 0.  1.
</event>
<event>
12    1  0.8344842E-002  0.1912757E+03  0.7818608E-02  0.1157504E+00
         21   -1    0    0  503  502  0.00000000000E+00  0.00000000000E+00  0.42413012209E+03  0.42413012209E+03  0.00000000000E+00 0. -1.
         21   -1    0    0  501  503 -0.00000000000E+00 -0.00000000000E+00 -0.88801068438E+02  0.88801068438E+02  0.00000000000E+00 0. -1.
          6    2    1    2  501    0  0.82297527033E+02 -0.23059913556E+01  0.12154130983E+03  0.22662457857E+03  0.17265054029E+03 0.  0.
         24    2    3    3    0    0  0.16521796308E+02 -0.44050988759E+02  0.11612522695E+03  0.14839085493E+03  0.79506717499E+02 0.  0.
         -6    2    1    2    0  502 -0.82297527033E+02  0.23059913556E+01  0.21378774382E+03  0.28630661196E+03  0.17172092503E+03 0.  0.
        -24    2    5    5    0    0 -0.65150701666E+02  0.30681720842E+02  0.22587469183E+03  0.25070633168E+03  0.81537147436E+02 0.  0.
          5    1    3    3  501    0  0.65775730725E+02  0.41744997403E+02  0.54160828790E+01  0.78233723638E+02  0.47000000000E+01 0. -1.
        -13    1    4    4    0    0 -0.13553821788E+02 -0.19223372477E+02  0.10533091241E+03  0.10792518354E+03  0.00000000000E+00 0.  1.
         14    1    4    4    0    0  0.30075618096E+02 -0.24827616281E+02  0.10794314547E+02  0.40465671385E+02  0.00000000000E+00 0. -1.
         -5    1    5    5    0  502 -0.17146825367E+02 -0.28375729487E+02 -0.12086948011E+02  0.35600280284E+02  0.47000000000E+01 0.  1.
         11    1    6    6    0    0 -0.35894004292E+02 -0.73421073955E+01  0.25424856369E+02  0.44594948217E+02  0.00000000000E+00 0. -1.
        -12    1    6    6    0    0 -0.29256697374E+02  0.38023828238E+02  0.20044983546E+03  0.20611138346E+03  0.00000000000E+00 0.  1.
</event>
<event>
12    1  0.8344842E-002  0.1897001E+03  0.7818608E-02  0.1158966E+00
         21   -1    0    0  501  502  0.00000000000E+00  0.00000000000E+00  0.95692884776E+03  0.95692884776E+03  0.00000000000E+00 0.  1.
         21   -1    0    0  502  503 -0.00000000000E+00 -0.00000000000E+00 -0.42477196172E+02  0.42477196172E+02  0.00000000000E+00 0.  1.
         -6    2    1    2    0  503 -0.57056458005E+02  0.56089291581E+02  0.28339524901E+03  0.34045361235E+03  0.17086353317E+03 0.  0.
        -24    2    3    3    0    0  0.13678635223E+01  0.90467861890E+02  0.18305284794E+03  0.21926790818E+03  0.79898468899E+02 0.  0.
          6    2    1    2  501    0  0.57056458005E+02 -0.56089291581E+02  0.63105640258E+03  0.65895243159E+03  0.17200196460E+03 0.  0.
         24    2    5    5    0    0  0.51819461093E+02  0.14448425669E+02  0.50676891547E+03  0.51587040915E+03  0.80084529099E+02 0.  0.
          5    1    5    5  501    0  0.52369969123E+01 -0.70537717250E+02  0.12428748711E+03  0.14308202243E+03  0.47000000000E+01 0. -1.
        -13    1    6    6    0    0  0.12934102936E+02 -0.31076547999E+02  0.24749384551E+03  0.24977238923E+03  0.00000000000E+00 0.  1.
         14    1    6    6    0    0  0.38885358157E+02  0.45524973668E+02  0.25927506996E+03  0.26609801993E+03  0.00000000000E+00 0. -1.
         -5    1    3    3    0  503 -0.58424321528E+02 -0.34378570309E+02  0.10034240107E+03  0.12118570417E+03  0.47000000000E+01 0.  1.
         11    1    4    4    0    0 -0.21125104584E+01 -0.14231982433E+02  0.35539968669E+02  0.38341901327E+02  0.00000000000E+00 0. -1.
        -12    1    4    4    0    0  0.34803739807E+01  0.10469984432E+03  0.14751287927E+03  0.18092600685E+03  0.00000000000E+00 0.  1.
</event>
<event>
12    1  0.8344842E-002  0.2183715E+03  0.7818608E-02  0.1135169E+00
         21   -1    0    0  501  502  0.00000000000E+00  0.00000000000E+00  0.24824650699E+04  0.24824650699E+04  0.00000000000E+00 0. -1.
         21   -1    0    0  502  503 -0.00000000000E+00 -0.00000000000E+00 -0.19469760780E+02  0.19469760780E+02  0.00000000000E+00 0. -1.
         -6    2    1    2    0  503 -0.46795267863E+02  0.12694713436E+03  0.10794324375E+04  0.11012994500E+04  0.17140804931E+03 0.  0.
        -24    2    3    3    0    0  0.31468962219E+02  0.77410466385E+02  0.43434382343E+03  0.44957820497E+03  0.80519125334E+02 0.  0.
          6    2    1    2  501    0  0.46795267863E+02 -0.12694713436E+03  0.13835628716E+04  0.14006353807E+04  0.17096162710E+03 0.  0.
         24    2    5    5    0    0  0.31132297937E+02 -0.18073214310E+01  0.41209606684E+03  0.42100527490E+03  0.80310564715E+02 0.  0.
          5    1    5    5  501    0  0.15662969926E+02 -0.12513981293E+03  0.97146680473E+03  0.97963010575E+03  0.47000000000E+01 0. -1.
        -11    1    6    6    0    0 -0.16551791169E+02 -0.16166369162E+01  0.19958797489E+02  0.25979393816E+02  0.00000000000E+00 0.  1.
         12    1    6    6    0    0  0.47684089105E+02 -0.19068451477E+00  0.39213726935E+03  0.39502588108E+03  0.00000000000E+00 0. -1.
         -5    1    3    3    0  503 -0.78264230082E+02  0.49536667979E+02  0.64508861411E+03  0.65172124505E+03  0.47000000000E+01 0.  1.
         11    1    4    4    0    0 -0.26163906124E+02  0.37863110810E+02  0.16241772239E+03  0.16881256378E+03  0.00000000000E+00 0. -1.
        -12    1    4    4    0    0  0.57632868343E+02  0.39547355575E+02  0.27192610104E+03  0.28076564119E+03  0.00000000000E+00 0.  1.
</event>
<event>
12    1  0.8344842E-002  0.2039379E+03  0.7818608E-02  0.1146500E+00
         21   -1    0    0  503  502  0.00000000000E+00  0.00000000000E+00  0.16855593930E+03  0.16855593930E+03  0.00000000000E+00 0. -1.
         21   -1    0    0  501  503 -0.00000000000E+00 -0.00000000000E+00 -0.64652338519E+03  0.64652338519E+03  0.00000000000E+00 0.  1.
          6    2    1    2  501    0  0.86973380417E+02  0.67812474101E+02 -0.55959592054E+03  0.59559909028E+03  0.17154527540E+03 0.  0.
         24    2    3    3    0    0  0.80824851980E+02  0.11022119288E+03 -0.45976636307E+03  0.48685933501E+03  0.83459783250E+02 0.  0.
         -6    2    1    2    0  502 -0.86973380417E+02 -0.67812474101E+02  0.81628474657E+02  0.21948023421E+03  0.17130518028E+03 0.  0.
        -24    2    5    5    0    0 -0.91790117659E+02 -0.10608779177E+03  0.50323531421E+02  0.16957742496E+03  0.80894993540E+02 0.  0.
          5    1    3    3  501    0  0.61485284371E+01 -0.42408718783E+02 -0.99829557475E+02  0.10873975527E+03  0.47000000000E+01 0. -1.
        -13    1    4    4    0    0  0.73987453604E+02  0.12088430423E+03 -0.37022013117E+03  0.39642162381E+03  0.00000000000E+00 0.  1.
         14    1    4    4    0    0  0.68373983761E+01 -0.10663111348E+02 -0.89546231899E+02  0.90437711202E+02  0.00000000000E+00 0. -1.
         -5    1    5    5    0  502  0.48167372427E+01  0.38275317667E+02  0.31304943236E+02  0.49902809251E+02  0.47000000000E+01 0.  1.
         13    1    6    6    0    0 -0.46591016142E+02 -0.38424908444E+02 -0.18331267027E+02  0.63112849127E+02  0.00000000000E+00 0. -1.
        -14    1    6    6    0    0 -0.45199101517E+02 -0.67662883324E+02  0.68654798448E+02  0.10646457583E+03  0.00000000000E+00 0.  1.
</event>
<event>
12    1  0.8344842E-002  0.1732891E+03  0.7818608E-02  0.1174841E+00
         21   -1    0    0  503  502  0.00000000000E+00  0.00000000000E+00  0.23094416323E+02  0.23094416323E+02  0.00000000000E+00 0.  1.
         21   -1    0    0  501  503 -0.00000000000E+00 -0.00000000000E+00 -0.13059788086E+04  0.13059788086E+04  0.00000000000E+00 0.  1.
          6    2    1    2  501    0  0.23507924536E+02  0.13972564272E+02 -0.71967253786E+03  0.74024162893E+03  0.17111765652E+03 0.  0.
         24    2    3    3    0    0 -0.40846435265E+02  0.45081757642E+02 -0.43497374390E+03  0.44666922078E+03  0.81304604842E+02 0.  0.
         -6    2    1    2    0  502 -0.23507924536E+02 -0.13972564272E+02 -0.56321185440E+03  0.58883159598E+03  0.16960896327E+03 0.  0.
        -24    2    5    5    0    0 -0.57589934335E+02  0.34306817880E+02 -0.44222367981E+03  0.45409960081E+03  0.78428988137E+02 0.  0.
          5    1    3    3  501    0  0.64354359801E+02 -0.31109193369E+02 -0.28469879397E+03  0.29357240814E+03  0.47000000000E+01 0. -1.
        -11    1    4    4    0    0  0.59355764402E+01  0.87362854486E+01 -0.28816188518E+03  0.28835538112E+03  0.00000000000E+00 0.  1.
         12    1    4    4    0    0 -0.46782011705E+02  0.36345472193E+02 -0.14681185871E+03  0.15831383966E+03  0.00000000000E+00 0. -1.
         -5    1    5    5    0  502  0.34082009799E+02 -0.48279382152E+02 -0.12098817458E+03  0.13473199517E+03  0.47000000000E+01 0.  1.
         13    1    6    6    0    0  0.11337768246E+02  0.21486790018E+02 -0.21334143396E+03  0.21472027053E+03  0.00000000000E+00 0. -1.
        -14    1    6    6    0    0 -0.68927702581E+02  0.12820027861E+02 -0.22888224585E+03  0.23937933028E+03  0.00000000000E+00 0.  1.
</event>
<event>
12    1  0.8344842E-002  0.1987442E+03  0.7818608E-02  0.1151091E+00
         21   -1    0    0  501  502  0.00000000000E+00  0.00000000000E+00  0.14756993699E+03  0.14756993699E+03  0.00000000000E+00 0. -1.
         21   -1    0    0  502  503 -0.00000000000E+00 -0.00000000000E+00 -0.31110949806E+03  0.31110949806E+03  0.00000000000E+00 0. -1.
         -6    2    1    2    0  503 -0.79028111900E+02  0.55075882433E+02 -0.16900326366E+03  0.25986012317E+03  0.17229737430E+03 0.  0.
        -24    2    3    3    0    0 -0.32545711769E+02  0.27871963720E+02 -0.18115487984E+03  0.20444876611E+03  0.84534831634E+02 0.  0.
          6    2    1    2  501    0  0.79028111900E+02 -0.55075882433E+02  0.54637025868E+01  0.19881931189E+03  0.17384036193E+03 0.  0.
         24    2    5    5    0    0  0.26542745039E+01  0.25780272959E+02 -0.11053698981E+02  0.86277784183E+02  0.81547557507E+02 0.  0.
          5    1    5    5  501    0  0.76373837396E+02 -0.80856155392E+02  0.16517401568E+02  0.11254152770E+03  0.47000000000E+01 0. -1.
        -11    1    6    6    0    0  0.46265758928E+01  0.44462553033E+02 -0.34331752787E+02  0.56364821264E+02  0.00000000000E+00 0.  1.
         12    1    6    6    0    0 -0.19723013889E+01 -0.18682280074E+02  0.23278053807E+02  0.29912962919E+02  0.00000000000E+00 0. -1.
         -5    1    3    3    0  503 -0.46482400131E+02  0.27203918713E+02  0.12151616178E+02  0.55411357058E+02  0.47000000000E+01 0.  1.
         11    1    4    4    0    0 -0.32158169665E+02  0.46063935985E+02 -0.17711298498E+03  0.18580915888E+03  0.00000000000E+00 0. -1.
        -12    1    4    4    0    0 -0.38754210349E+00 -0.18191972265E+02 -0.40418948588E+01  0.18639607234E+02  0.00000000000E+00 0.  1.
</event>
<event>
12    1  0.8344842E-002  0.2202773E+03  0.7818608E-02  0.1133731E+00
         21   -1    0    0  501  502  0.00000000000E+00  0.00000000000E+00  0.21224995244E+03  0.21224995244E+03  0.00000000000E+00 0.  1.
         21   -1    0    0  502  503 -0.00000000000E+00 -0.00000000000E+00 -0.24265137086E+03  0.24265137086E+03  0.00000000000E+00 0.  1.
         -6    2    1    2    0  503  0.16801447911E+02 -0.13690989620E+03 -0.70496832980E+02  0.23100459026E+03  0.17136717577E+03 0.  0.
        -24    2    3    3    0    0  0.46158320451E+02 -0.36532270515E+02  0.10391789846E+02  0.98707375603E+02  0.78549088897E+02 0.  0.
          6    2    1    2  501    0 -0.16801447911E+02  0.13690989620E+03  0.40095414563E+02  0.22389673304E+03  0.17174252959E+03 0.  0.
         24    2    5    5    0    0 -0.76953814832E+02  0.71753624289E+02  0.29817219990E+02  0.13450222371E+03  0.78302677858E+02 0.  0.
          5    1    5    5  501    0  0.60152366921E+02  0.65156271908E+02  0.10278194572E+02  0.89394509333E+02  0.47000000000E+01 0. -1.
        -13    1    6    6    0    0 -0.76093861248E+02  0.22502416877E+02  0.31096465736E+02  0.85226901071E+02  0.00000000000E+00 0.  1.
         14    1    6    6    0    0 -0.85995358401E+00  0.49251207412E+02 -0.12792457457E+01  0.49275322641E+02  0.00000000000E+00 0. -1.
         -5    1    3    3    0  503 -0.29356872540E+02 -0.10037762568E+03 -0.80888622826E+02  0.13229721466E+03  0.47000000000E+01 0.  1.
         11    1    4    4    0    0 -0.37981555909E+01  0.14515831770E+02 -0.16578048757E+02  0.22359943167E+02  0.00000000000E+00 0. -1.
        -12    1    4    4    0    0  0.49956476042E+02 -0.51048102285E+02  0.26969838603E+02  0.76347432436E+02  0.00000000000E+00 0.  1.
</event>
<event>
12    1  0.8344842E-002  0.1965330E+03  0.7818608E-02  0.1154143E+00
         21   -1    0    0  501  502  0.00000000000E+00  0.00000000000E+00  0.51054153329E+03  0.51054153329E+03  0.00000000000E+00 0. -1.
         21   -1    0    0  502  503 -0.00000000000E+00 -0.00000000000E+00 -0.29018579403E+03  0.29018579403E+03  0.00000000000E+00 0. -1.
         -6    2    1    2    0  503  0.18869673695E+02 -0.78780199402E+02 -0.23653052405E+03  0.30336398516E+03  0.17181569859E+03 0.  0.
        -24    2    3    3    0    0  0.32494774321E+00 -0.20581108494E+02 -0.31421685095E+02  0.89301454904E+02  0.81016911419E+02 0.  0.
          6    2    1    2  501    0 -0.18869673695E+02  0.78780199402E+02  0.45688626331E+03  0.49736334217E+03  0.17906102906E+03 0.  0.
         24    2    5    5    0    0 -0.21735787591E+02  0.50752465504E+02  0.10333537812E+03  0.14266052727E+03  0.81397594886E+02 0.  0.
          5    1    5    5  501    0  0.28661138958E+01  0.28027733898E+02  0.35355088519E+03  0.35470281489E+03  0.47000000000E+01 0. -1.
        -11    1    6    6    0    0  0.60389655151E+01 -0.20206539869E+02  0.31700125125E+02  0.38074549123E+02  0.00000000000E+00 0.  1.
         12    1    6    6    0    0 -0.27774753106E+02  0.70959005373E+02  0.71635252997E+02  0.10458597815E+03  0.00000000000E+00 0. -1.
         -5    1    3    3    0  503  0.18544725952E+02 -0.58199090908E+02 -0.20510883895E+03  0.21406253025E+03  0.47000000000E+01 0.  1.
         13    1    4    4    0    0  0.15350804293E+02 -0.16010082218E+02 -0.55944109861E+02  0.60180672589E+02  0.00000000000E+00 0. -1.
        -14    1    4    4    0    0 -0.15025856549E+02 -0.45710262759E+01  0.24522424766E+02  0.29120782315E+02  0.00000000000E+00 0.  1.
</event>
<event>
12    1  0.8344842E-002  0.2229526E+03  0.7818608E-02  0.1131920E+00
         21   -1    0    0  503  502  0.00000000000E+00  0.00000000000E+00  0.26966840649E+03  0.26966840649E+03  0.00000000000E+00 0.  1.
         21   -1    0    0  501  503 -0.00000000000E+00 -0.00000000000E+00 -0.21283066535E+03  0.21283066535E+03  0.00000000000E+00 0.  1.
          6    2    1    2  501    0  0.35094096940E+01 -0.14020457351E+03 -0.61312186452E+02  0.23122944000E+03  0.17331540995E+03 0.  0.
         24    2    3    3    0    0  0.42660449723E+02 -0.73864245167E+02  0.20525579342E+02  0.11874231625E+03  0.80016233202E+02 0.  0.
         -6    2    1    2    0  502 -0.35094096940E+01  0.14020457351E+03  0.11814992759E+03  0.25126963185E+03  0.17177713500E+03 0.  0.
        -24    2    5    5    0    0 -0.50853813981E+02  0.10905070582E+03  0.34272276272E+02  0.14993056495E+03  0.82622143213E+02 0.  0.
          5    1    3    3  501    0 -0.39151040029E+02 -0.66340328341E+02 -0.81837765794E+02  0.11248712375E+03  0.47000000000E+01 0. -1.
        -13    1    4    4    0    0  0.72289439429E+01 -0.65116474068E+02  0.40613685136E+02  0.77083618531E+02  0.00000000000E+00 0.  1.
         14    1    4    4    0    0  0.35431505780E+02 -0.87477710993E+01 -0.20088105794E+02  0.41658697717E+02  0.00000000000E+00 0. -1.
         -5    1    5    5    0  502  0.47344404287E+02  0.31153867689E+02  0.83877651315E+02  0.10133906690E+03  0.47000000000E+01 0.  1.
         11    1    6    6    0    0 -0.23517426957E+02  0.42934332652E+02  0.56741786649E+02  0.74940353902E+02  0.00000000000E+00 0. -1.
        -12    1    6    6    0    0 -0.27336387024E+02  0.66116373167E+02 -0.22469510377E+02  0.74990211047E+02  0.00000000000E+00 0.  1.
</event>
<event>
12    1  0.8344842E-002  0.2097871E+03  0.7818608E-02  0.1141890E+00
         21   -1    0    0  503  502  0.00000000000E+00  0.00000000000E+00  0.85529358111E+03  0.85529358111E+03  0.00000000000E+00 0.  1.
         21   -1    0    0  501  503 -0.00000000000E+00 -0.00000000000E+00 -0.15716227482E+03  0.15716227482E+03  0.00000000000E+00 0. -1.
          6    2    1    2  501    0 -0.20107162257E+02 -0.11765588419E+03 -0.66686808900E+02  0.21938752173E+03  0.17157082838E+03 0.  0.
         24    2    3    3    0    0  0.14300132741E+02  0.47783289236E+01 -0.36002211545E+02  0.88476739113E+02  0.79401812978E+02 0.  0.
         -6    2    1    2    0  502  0.20107162257E+02  0.11765588419E+03  0.76481811519E+03  0.79306833421E+03  0.17252080553E+03 0.  0.
        -24    2    5    5    0    0 -0.48875629311E+02  0.30017452282E+02  0.38904065997E+03  0.40106080094E+03  0.78786143232E+02 0.  0.
          5    1    3    3  501    0 -0.34407294998E+02 -0.12243421311E+03 -0.30684597355E+02  0.13091078261E+03  0.47000000000E+01 0. -1.
        -13    1    4    4    0    0 -0.27872803201E+02  0.58188958678E+01 -0.36494318325E+02  0.46288097578E+02  0.00000000000E+00 0.  1.
         14    1    4    4    0    0  0.42172935941E+02 -0.10405669442E+01  0.49210677947E+00  0.42188641535E+02  0.00000000000E+00 0. -1.
         -5    1    5    5    0  502  0.68982791568E+02  0.87638431907E+02  0.37577745522E+03  0.39200753326E+03  0.47000000000E+01 0.  1.
         13    1    6    6    0    0 -0.41959970582E+02 -0.14017129753E+02  0.11136514631E+03  0.11983035871E+03  0.00000000000E+00 0. -1.
        -14    1    6    6    0    0 -0.69156587285E+01  0.44034582036E+02  0.27767551366E+03  0.28123044223E+03  0.00000000000E+00 0.  1.
</event>
<event>
12    1  0.8344842E-002  0.2193310E+03  0.7818608E-02  0.1134940E+00
         21   -1    0    0  501  502  0.00000000000E+00  0.00000000000E+00  0.10942755196E+04  0.10942755196E+04  0.00000000000E+00 0. -1.
         21   -1    0    0  502  503 -0.00000000000E+00 -0.00000000000E+00 -0.50883898102E+02  0.50883898102E+02  0.00000000000E+00 0. -1.
         -6    2    1    2    0  503 -0.13072797848E+03  0.37352299526E+02  0.29866528738E+03  0.36880679252E+03  0.16832260005E+03 0.  0.
        -24    2    3    3    0    0 -0.14090246571E+03  0.29544262811E+02  0.31004485855E+03  0.35102842736E+03  0.79792068483E+02 0.  0.
          6    2    1    2  501    0  0.13072797848E+03 -0.37352299526E+02  0.74472633409E+03  0.77635262515E+03  0.17210777803E+03 0.  0.
         24    2    5    5    0    0  0.70269578239E+02  0.27951126786E+02  0.56657775785E+03  0.57715734191E+03  0.79882179002E+02 0.  0.
          5    1    5    5  501    0  0.60458400239E+02 -0.65303426311E+02  0.17814857624E+03  0.19919528323E+03  0.47000000000E+01 0. -1.
        -13    1    6    6    0    0  0.15733733153E+02 -0.20301994662E+02  0.29065220270E+03  0.29178489385E+03  0.00000000000E+00 0.  1.
         14    1    6    6    0    0  0.54535845086E+02  0.48253121447E+02  0.27592555515E+03  0.28537244807E+03  0.00000000000E+00 0. -1.
         -5    1    3    3    0  503  0.10174487230E+02  0.78080367143E+01 -0.11379571173E+02  0.17778365161E+02  0.47000000000E+01 0.  1.
         13    1    4    4    0    0 -0.62813628076E+02 -0.25033953447E+02  0.10437345600E+03  0.12436265121E+03  0.00000000000E+00 0. -1.
        -14    1    4    4    0    0 -0.78088837632E+02  0.54578216258E+02  0.20567140255E+03  0.22666577615E+03  0.00000000000E+00 0.  1.
</event>
<event>
12    1  0.8344842E-002  0.1733402E+03  0.7818608E-02  0.1174583E+00
         21   -1    0    0  503  502  0.00000000000E+00  0.00000000000E+00  0.23756007557E+03  0.23756007557E+03  0.00000000000E+00 0.  1.
         21   -1    0    0  501  503 -0.00000000000E+00 -0.00000000000E+00 -0.14104712657E+03  0.14104712657E+03  0.00000000000E+00 0.  1.
          6    2    1    2  501    0  0.14790401673E+02  0.34488511104E+01 -0.13693906747E+02  0.17319938197E+03  0.17198794225E+03 0.  0.
         24    2    3    3    0    0  0.47788857903E+02 -0.52372500614E+02  0.91143964641E+00  0.10656359905E+03  0.79550714396E+02 0.  0.
         -6    2    1    2    0  502 -0.14790401673E+02 -0.34488511104E+01  0.11020685575E+03  0.20540782016E+03  0.17267359663E+03 0.  0.
        -24    2    5    5    0    0 -0.14773147880E+02  0.43423261713E+02  0.86097264985E+01  0.93420937313E+02  0.80929096016E+02 0.  0.
          5    1    3    3  501    0 -0.32998456230E+02  0.55821351725E+02 -0.14605346394E+02  0.66635782919E+02  0.47000000000E+01 0. -1.
        -13    1    4    4    0    0  0.24703430554E+02 -0.23975328598E+02 -0.39264142413E+02  0.52218279769E+02  0.00000000000E+00 0.  1.
         14    1    4    4    0    0  0.23085427349E+02 -0.28397172016E+02  0.40175582060E+02  0.54345319285E+02  0.00000000000E+00 0. -1.
         -5    1    5    5    0  502 -0.17253793046E-01 -0.46872112824E+02  0.10159712925E+03  0.11198688285E+03  0.47000000000E+01 0.  1.
         11    1    6    6    0    0  0.63851204119E+01 -0.22403597309E+02  0.67433172439E+01  0.24252077489E+02  0.00000000000E+00 0. -1.
        -12    1    6    6    0    0 -0.21158268292E+02  0.65826859022E+02  0.18664092546E+01  0.69168859824E+02  0.00000000000E+00 0.  1.
</event>
<event>
12    1  0.8344842E-002  0.1966782E+03  0.7818608E-02  0.1152912E+00
         21   -1    0    0  501  502  0.00000000000E+00  0.00000000000E+00  0.10714010840E+03  0.10714010840E+03  0.00000000000E+00 0.  1.
         21   -1    0    0  502  503 -0.00000000000E+00 -0.00000000000E+00 -0.45764388639E+03  0.45764388639E+03  0.00000000000E+00 0.  1.
         -6    2    1    2    0  503  0.84778794904E+02  0.35720031618E+02 -0.30635960859E+03  0.36321258456E+03  0.17205756910E+03 0.  0.
        -24    2    3    3    0    0 -0.71669523065E+01  0.37658117248E+02 -0.69907452127E+02  0.10946174436E+03  0.75002150745E+02 0.  0.
          6    2    1    2  501    0 -0.84778794904E+02 -0.35720031618E+02 -0.44144169395E+02  0.20157141023E+03  0.17383601757E+03 0.  0.
         24    2    5    5    0    0 -0.97469014300E+01  0.41390255620E+02 -0.28532350003E+02  0.92752292693E+02  0.77335227777E+02 0.  0.
          5    1    5    5  501    0 -0.75031893474E+02 -0.77110287238E+02 -0.15611819392E+02  0.10881911753E+03  0.47000000000E+01 0. -1.
        -13    1    6    6    0    0 -0.30262471207E+02  0.39951017047E+01 -0.38318784228E+02  0.48990889214E+02  0.00000000000E+00 0.  1.
         14    1    6    6    0    0  0.20515569777E+02  0.37395153915E+02  0.97864342257E+01  0.43761403479E+02  0.00000000000E+00 0. -1.
         -5    1    3    3    0  503  0.91945747210E+02 -0.19380856300E+01 -0.23645215646E+03  0.25375084020E+03  0.47000000000E+01 0.  1.
         13    1    4    4    0    0  0.15741652434E+02  0.45005404415E+02 -0.70834093291E+02  0.85385916990E+02  0.00000000000E+00 0. -1.
        -14    1    4    4    0    0 -0.22908604741E+02 -0.73472871672E+01  0.92664116389E+00  0.24075827374E+02  0.00000000000E+00 0.  1.
</event>
<event>
12    1  0.8344842E-002  0.2415969E+03  0.7818608E-02  0.1118782E+00
         21   -1    0    0  501  502  0.00000000000E+00  0.00000000000E+00  0.25278746834E+03  0.25278746834E+03  0.00000000000E+00 0. -1.
         21   -1    0    0  502  503 -0.00000000000E+00 -0.00000000000E+00 -0.25644424872E+03  0.25644424872E+03  0.00000000000E+00 0. -1.
         -6    2    1    2    0  503  0.17012647728E+03  0.90170823192E+00 -0.82625532867E+02  0.25505633885E+03  0.17112254660E+03 0.  0.
        -24    2    3    3    0    0  0.17169990062E+03  0.45687582013E+02 -0.59976376143E+02  0.20462495525E+03  0.81890143444E+02 0.  0.
          6    2    1    2  501    0 -0.17012647728E+03 -0.90170823192E+00  0.78968752486E+02  0.25417537821E+03  0.17153783160E+03 0.  0.
         24    2    5    5    0    0 -0.12427549824E+03  0.63837558654E+02  0.40309641845E+02  0.16580059792E+03  0.79657627927E+02 0.  0.
          5    1    5    5  501    0 -0.45850979036E+02 -0.64739266886E+02  0.38659110641E+02  0.88374780289E+02  0.47000000000E+01 0. -1.
        -11    1    6    6    0    0  0.37113880036E+01  0.12044544639E+02 -0.12711626159E+02  0.17900583680E+02  0.00000000000E+00 0.  1.
         12    1    6    6    0    0 -0.12798688625E+03  0.51793014016E+02  0.53021268004E+02  0.14790001424E+03  0.00000000000E+00 0. -1.
         -5    1    3    3    0  503 -0.15734233402E+01 -0.44785873781E+02 -0.22649156724E+02  0.50431383598E+02  0.47000000000E+01 0.  1.
         11    1    4    4    0    0  0.14819801842E+03  0.47979283714E+02 -0.78668249646E+02  0.17450890473E+03  0.00000000000E+00 0. -1.
        -12    1    4    4    0    0  0.23501882202E+02 -0.22917017012E+01  0.18691873504E+02  0.30116050518E+02  0.00000000000E+00 0.  1.
</event>
<event>
12    1  0.8344842E-002  0.1791535E+03  0.7818608E-02  0.1168981E+00
         21   -1    0    0  501  502  0.00000000000E+00  0.00000000000E+00  0.23462692897E+02  0.23462692897E+02  0.00000000000E+00 0.  1.
         21   -1    0    0  502  503 -0.00000000000E+00 -0.00000000000E+00 -0.17254844190E+04  0.17254844190E+04  0.00000000000E+00 0. -1.
         -6    2    1    2    0  503  0.17044471263E+02 -0.42793536852E+02 -0.12579197910E+04  0.12706133012E+04  0.17313047084E+03 0.  0.
        -24    2    3    3    0    0  0.15126114777E+02 -0.70582231443E+02 -0.46723416303E+03  0.47942322047E+03  0.79550050200E+02 0.  0.
          6    2    1    2  501    0 -0.17044471263E+02  0.42793536852E+02 -0.44410193518E+03  0.47833381072E+03  0.17162431312E+03 0.  0.
         24    2    5    5    0    0 -0.20257954982E+02  0.28922446740E+02 -0.90798516845E+02  0.12471236196E+03  0.77858268017E+02 0.  0.
          5    1    5    5  501    0  0.32134837188E+01  0.13871090112E+02 -0.35330341833E+03  0.35362144876E+03  0.47000000000E+01 0. -1.
        -11    1    6    6    0    0  0.24069416484E+02  0.25475961304E+02 -0.63526864071E+02  0.72553593108E+02  0.00000000000E+00 0.  1.
         12    1    6    6    0    0 -0.44327371466E+02  0.34464854361E+01 -0.27271652774E+02  0.52158768850E+02  0.00000000000E+00 0. -1.
         -5    1    3    3    0  503  0.19183564857E+01  0.27788694591E+02 -0.79068562794E+03  0.79119008074E+03  0.47000000000E+01 0.  1.
         13    1    4    4    0    0  0.69007810313E+01 -0.37409481681E+02 -0.41660426592E+03  0.41833742898E+03  0.00000000000E+00 0. -1.
        -14    1    4    4    0    0  0.82253337462E+01 -0.33172749762E+02 -0.50629897103E+02  0.61085791496E+02  0.00000000000E+00 0.  1.
</event>
<event>
12    1  0.8344842E-002  0.1788729E+03  0.7818608E-02  0.1168942E+00
         21   -1    0    0  503  502  0.00000000000E+00  0.00000000000E+00  0.51895778380E+02  0.51895778380E+02  0.00000000000E+00 0. -1.
         21   -1    0    0  501  503 -0.00000000000E+00 -0.00000000000E+00 -0.97469245351E+03  0.97469245351E+03  0.00000000000E+00 0. -1.
          6    2    1    2  501    0 -0.32140846201E+02  0.36566733259E+02 -0.77296299279E+03  0.79338975954E+03  0.17212019737E+03 0.  0.
         24    2    3    3    0    0  0.32026122546E+01 -0.14863265550E+02 -0.19065477233E+03  0.20772845943E+03  0.81059837503E+02 0.  0.
         -6    2    1    2    0  502  0.32140846201E+02 -0.36566733259E+02 -0.14983368234E+03  0.23319847235E+03  0.17193381042E+03 0.  0.
        -24    2    5    5    0    0 -0.25040718563E+02 -0.73777416467E+02 -0.99294782741E+02  0.14816532195E+03  0.77610334256E+02 0.  0.
          5    1    3    3  501    0 -0.35343458456E+02  0.51429998809E+02 -0.58230822045E+03  0.58566130010E+03  0.47000000000E+01 0. -1.
        -13    1    4    4    0    0  0.10534648807E+02 -0.55198458991E+01  0.41240281960E+01  0.12587896281E+02  0.00000000000E+00 0.  1.
         14    1    4    4    0    0 -0.73320365519E+01 -0.93434196510E+01 -0.19477880053E+03  0.19514056315E+03  0.00000000000E+00 0. -1.
         -5    1    5    5    0  502  0.57181564764E+02  0.37210683208E+02 -0.50538899600E+02  0.85033150398E+02  0.47000000000E+01 0.  1.
         11    1    6    6    0    0 -0.20380083291E+02 -0.90418626455E+02 -0.83365843613E+02  0.12466250313E+03  0.00000000000E+00 0. -1.
        -12    1    6    6    0    0 -0.46606352727E+01  0.16641209988E+02 -0.15928939128E+02  0.23502818825E+02  0.00000000000E+00 0.  1.
</event>
<event>
12    1  0.8344842E-002  0.1845981E+03  0.7818608E-02  0.1163748E+00
         21   -1    0    0  503  502  0.00000000000E+00  0.00000000000E+00  0.95076788122E+03  0.95076788122E+03  0.00000000000E+00 0. -1.
         21   -1    0    0  501  503 -0.00000000000E+00 -0.00000000000E+00 -0.37956212094E+02  0.37956212094E+02  0.00000000000E+00 0. -1.
          6    2    1    2  501    0 -0.27754364585E+02 -0.60102904573E+02  0.58181724729E+03  0.61039967816E+03  0.17231887291E+03 0.  0.
         24    2    3    3    0    0 -0.95210121412E+01  0.19682674561E+02  0.42964895506E+03  0.43755444988E+03  0.79859969158E+02 0.  0.
         -6    2    1    2    0  502  0.27754364585E+02  0.60102904573E+02  0.33099442184E+03  0.37832441516E+03  0.17084903255E+03 0.  0.
        -24    2    5    5    0    0 -0.36471157224E+02  0.75245128233E+02  0.18752620292E+03  0.22033889548E+03  0.79944840025E+02 0.  0.
          5    1    3    3  501    0 -0.18233352444E+02 -0.79785579135E+02  0.15216829223E+03  0.17284522828E+03  0.47000000000E+01 0. -1.
        -13    1    4    4    0    0  0.23716991064E+02 -0.96637250803E+00  0.32439427005E+03  0.32526154397E+03  0.00000000000E+00 0.  1.
         14    1    4    4    0    0 -0.33238003205E+02  0.20649047069E+02  0.10525468501E+03  0.11229290591E+03  0.00000000000E+00 0. -1.
         -5    1    5    5    0  502  0.64225521809E+02 -0.15142223660E+02  0.14346821892E+03  0.15798551968E+03  0.47000000000E+01 0.  1.
         13    1    6    6    0    0  0.25379635064E+02  0.28311671101E+02  0.59657739459E+02  0.70744063171E+02  0.00000000000E+00 0. -1.
        -14    1    6    6    0    0 -0.61850792288E+02  0.46933457132E+02  0.12786846346E+03  0.14959483231E+03  0.00000000000E+00 0.  1.
</event>
<event>
12    1  0.8344842E-002  0.2430345E+03  0.7818608E-02  0.1117842E+00
         21   -1    0    0  503  502  0.00000000000E+00  0.00000000000E+00  0.19806137501E+03  0.19806137501E+03  0.00000000000E+00 0.  1.
         21   -1    0    0  501  503 -0.00000000000E+00 -0.00000000000E+00 -0.31863941438E+03  0.31863941438E+03  0.00000000000E+00 0. -1.
          6    2    1    2  501    0  0.16775397822E+03  0.35669126990E+02 -0.12629815908E+03  0.27359896006E+03  0.17173084211E+03 0.  0.
         24    2    3    3    0    0  0.16908387061E+03 -0.13582172781E+02 -0.12195572639E+03  0.22391590596E+03  0.80568623098E+02 0.  0.
         -6    2    1    2    0  502 -0.16775397822E+03 -0.35669126990E+02  0.57201197166E+01  0.24310182933E+03  0.17219783919E+03 0.  0.
        -24    2    5    5    0    0 -0.98071829562E+02  0.90045016951E+00  0.65235619766E+02  0.14432369125E+03  0.83395126992E+02 0.  0.
          5    1    3    3  501    0 -0.13298923823E+01  0.49251299771E+02 -0.43424326890E+01  0.49683054099E+02  0.47000000000E+01 0. -1.
        -11    1    4    4    0    0  0.45506322274E+02 -0.15212631854E+02 -0.80212868632E+02  0.93468464356E+02  0.00000000000E+00 0.  1.
         12    1    4    4    0    0  0.12357754833E+03  0.16304590724E+01 -0.41742857758E+02  0.13044744161E+03  0.00000000000E+00 0. -1.
         -5    1    5    5    0  502 -0.69682148661E+02 -0.36569577159E+02 -0.59515500050E+02  0.98778138076E+02  0.47000000000E+01 0.  1.
         11    1    6    6    0    0 -0.28315059931E+02 -0.39024500694E+02  0.21109291994E+02  0.52633226025E+02  0.00000000000E+00 0. -1.
        -12    1    6    6    0    0 -0.69756769632E+02  0.39924950863E+02  0.44126327772E+02  0.91690465227E+02  0.00000000000E+00 0.  1.
</event>
<event>
12    1  0.8344842E-002  0.1952009E+03  0.7818608E-02  0.1154168E+00
         21   -1    0    0  503  502  0.00000000000E+00  0.00000000000E+00  0.20742978919E+03  0.20742978919E+03  0.00000000000E+00 0. -1.
         21   -1    0    0  501  503 -0.00000000000E+00 -0.00000000000E+00 -0.23445112997E+03  0.23445112997E+03  0.00000000000E+00 0.  1.
          6    2    1    2  501    0  0.19801979064E+02  0.91097006265E+02 -0.11763930373E+03  0.22667171960E+03  0.16985370105E+03 0.  0.
         24    2    3    3    0    0 -0.23726243149E+02  0.92878649917E+02 -0.13106828705E+03  0.18084260248E+03  0.79597567650E+02 0.  0.
         -6    2    1    2    0  502 -0.19801979064E+02 -0.91097006265E+02  0.90617962945E+02  0.21520919956E+03  0.17150102461E+03 0.  0.
        -24    2    5    5    0    0 -0.24311951064E+02  0.17117572666E+02  0.48289542447E+02  0.98828272765E+02  0.80938651641E+02 0.  0.
          5    1    3    3  501    0  0.43528222213E+02 -0.17816436516E+01  0.13428983323E+02  0.45829117122E+02  0.47000000000E+01 0. -1.
        -13    1    4    4    0    0 -0.40176243505E+02  0.40347404037E+02 -0.10606826970E+03  0.12038488855E+03  0.00000000000E+00 0.  1.
         14    1    4    4    0    0  0.16450000357E+02  0.52531245880E+02 -0.25000017353E+02  0.60457713925E+02  0.00000000000E+00 0. -1.
         -5    1    5    5    0  502  0.45099719999E+01 -0.10821457893E+03  0.42328420497E+02  0.11638092680E+03  0.47000000000E+01 0.  1.
         13    1    6    6    0    0 -0.36453694633E+02 -0.52424833842E+01  0.60327206540E+02  0.70680459346E+02  0.00000000000E+00 0. -1.
        -14    1    6    6    0    0  0.12141743569E+02  0.22360056050E+02 -0.12037664093E+02  0.28147813419E+02  0.00000000000E+00 0.  1.
</event>
<event>
12    1  0.8344842E-002  0.2050394E+03  0.7818608E-02  0.1145779E+00
         21   -1    0    0  503  502  0.00000000000E+00  0.00000000000E+00  0.14690233801E+03  0.14690233801E+03  0.00000000000E+00 0. -1.
         21   -1    0    0  501  503 -0.00000000000E+00 -0.00000000000E+00 -0.29412535676E+03  0.29412535676E+03  0.00000000000E+00 0. -1.
          6    2    1    2  501    0 -0.89915209327E+00  0.11135985982E+03 -0.11297056750E+03  0.23314702377E+03  0.17086064122E+03 0.  0.
         24    2    3    3    0    0 -0.53788843004E+01 -0.49297835055E+00 -0.87866912554E+02  0.11832799704E+03  0.79067977957E+02 0.  0.
         -6    2    1    2    0  502  0.89915209327E+00 -0.11135985982E+03 -0.34252451255E+02  0.20788067100E+03  0.17216072754E+03 0.  0.
        -24    2    5    5    0    0 -0.39921171333E+01 -0.10303841174E+03  0.38251773456E+02  0.13458589893E+03  0.77571352466E+02 0.  0.
          5    1    3    3  501    0  0.44797322072E+01  0.11185283817E+03 -0.25103654942E+02  0.11481902673E+03  0.47000000000E+01 0. -1.
        -13    1    4    4    0    0 -0.77795146156E+00 -0.22470653885E+01  0.15078521290E+02  0.15264871950E+02  0.00000000000E+00 0.  1.
         14    1    4    4    0    0 -0.46009328389E+01  0.17540870380E+01 -0.10294543384E+03  0.10306312509E+03  0.00000000000E+00 0. -1.
         -5    1    5    5    0  502  0.48912692266E+01 -0.83214480742E+01 -0.72504224711E+02  0.73294772076E+02  0.47000000000E+01 0.  1.
         13    1    6    6    0    0 -0.23642226456E+02 -0.47958828424E+02 -0.14957039175E+02  0.55522221825E+02  0.00000000000E+00 0. -1.
        -14    1    6    6    0    0  0.19650109323E+02 -0.55079583321E+02  0.53208812631E+02  0.79063677102E+02  0.00000000000E+00 0.  1.
</event>
<event>
12    1  0.8344842E-002  0.2216758E+03  0.7818608E-02  0.1133038E+00
         21   -1    0    0  501  502  0.00000000000E+00  0.00000000000E+00  0.31343097346E+03  0.31343097346E+03  0.00000000000E+00 0.  1.
         21   -1    0    0  502  503 -0.00000000000E+00 -0.00000000000E+00 -0.18474526682E+03  0.18474526682E+03  0.00000000000E+00 0.  1.
         -6    2    1    2    0  503  0.29816447444E+02 -0.13748662458E+03  0.16357432573E+03  0.27377177220E+03  0.16853139393E+03 0.  0.
        -24    2    3    3    0    0  0.13217264757E+02 -0.14950881739E+03  0.81880151680E+02  0.18941482785E+03  0.81523218813E+02 0.  0.
          6    2    1    2  501    0 -0.29816447444E+02  0.13748662458E+03 -0.34888619089E+02  0.22440446808E+03  0.17131420570E+03 0.  0.
         24    2    5    5    0    0  0.44654284611E+02  0.10686200960E+03 -0.27267163741E+02  0.14338636172E+03  0.80016600025E+02 0.  0.
          5    1    5    5  501    0 -0.74470732054E+02  0.30624614976E+02 -0.76214553482E+01  0.81018106351E+02  0.47000000000E+01 0. -1.
        -11    1    6    6    0    0  0.24556101214E+02  0.92808392344E+02  0.12349588843E+02  0.96793140981E+02  0.00000000000E+00 0.  1.
         12    1    6    6    0    0  0.20098183397E+02  0.14053617259E+02 -0.39616752584E+02  0.46593220743E+02  0.00000000000E+00 0. -1.
         -5    1    3    3    0  503  0.16599182687E+02  0.12022192811E+02  0.81694174052E+02  0.84356944349E+02  0.47000000000E+01 0.  1.
         11    1    4    4    0    0  0.22415857319E+02 -0.20001016462E+01  0.60625510230E+01  0.23307200408E+02  0.00000000000E+00 0. -1.
        -12    1    4    4    0    0 -0.91985925618E+01 -0.14750871574E+03  0.75817600657E+02  0.16610762744E+03  0.00000000000E+00 0.  1.
</event>
<event>
12    1  0.8344842E-002  0.2003421E+03  0.7818608E-02  0.1151985E+00
         21   -1    0    0  503  502  0.00000000000E+00  0.00000000000E+00  0.46766549944E+03  0.46766549944E+03  0.00000000000E+00 0. -1.
         21   -1    0    0  501  503 -0.00000000000E+00 -0.00000000000E+00 -0.11705179189E+03  0.11705179189E+03  0.00000000000E+00 0.  1.
          6    2    1    2  501    0  0.24375692616E+02  0.80385820659E+02  0.16515673787E+02  0.20102168267E+03  0.18188154077E+03 0.  0.
         24    2    3    3    0    0  0.54723686681E+02  0.27629607036E+02 -0.48843525434E+02  0.11158939688E+03  0.79425603242E+02 0.  0.
         -6    2    1    2    0  502 -0.24375692616E+02 -0.80385820659E+02  0.33409803375E+03  0.38369560866E+03  0.16895197362E+03 0.  0.
        -24    2    5    5    0    0 -0.73892373813E+02 -0.19817852076E+02  0.20659339602E+03  0.23402963664E+03  0.78969673793E+02 0.  0.
          5    1    3    3  501    0 -0.30347994065E+02  0.52756213623E+02  0.65359199221E+02  0.89432285794E+02  0.47000000000E+01 0. -1.
        -13    1    4    4    0    0  0.31268801325E+02 -0.13596075745E+02  0.10447093006E+02  0.35661365148E+02  0.00000000000E+00 0.  1.
         14    1    4    4    0    0  0.23454885356E+02  0.41225682781E+02 -0.59290618440E+02  0.75928031732E+02  0.00000000000E+00 0. -1.
         -5    1    5    5    0  502  0.49516681198E+02 -0.60567968582E+02  0.12750463773E+03  0.14966597201E+03  0.47000000000E+01 0.  1.
         11    1    6    6    0    0 -0.35624086352E+02 -0.44893657123E+02  0.15401342555E+03  0.16433091988E+03  0.00000000000E+00 0. -1.
        -12    1    6    6    0    0 -0.38268287461E+02  0.25075805047E+02  0.52579970471E+02  0.69698716765E+02  0.00000000000E+00 0.  1.
</event>
<event>
12    1  0.8344842E-002  0.1931445E+03  0.7818608E-02  0.1155789E+00
         21   -1    0    0  503  502  0.00000000000E+00  0.00000000000E+00  0.84602196272E+02  0.84602196272E+02  0.00000000000E+00 0.  1.
         21   -1    0    0  501  503 -0.00000000000E+00 -0.00000000000E+00 -0.51520493060E+03  0.51520493060E+03  0.00000000000E+00 0. -1.
          6    2    1    2  501    0  0.75822215542E+02  0.44397015721E+02 -0.33050255058E+03  0.38280114415E+03  0.17200196698E+03 0.  0.
         24    2    3    3    0    0 -0.24843404291E+01  0.53612681050E+02 -0.95661544889E+02  0.13503263697E+03  0.78753986307E+02 0.  0.
         -6    2    1    2    0  502 -0.75822215542E+02 -0.44397015721E+02 -0.10010018375E+03  0.21700598272E+03  0.17132263825E+03 0.  0.
        -24    2    5    5    0    0  0.27108198690E+02 -0.18700363230E+02 -0.46656635443E+02  0.98122464192E+02  0.79791091778E+02 0.  0.
          5    1    3    3  501    0  0.78306555971E+02 -0.92156653281E+01 -0.23484100569E+03  0.24776850718E+03  0.47000000000E+01 0. -1.
        -13    1    4    4    0    0 -0.21703877218E+02  0.67089449966E+02 -0.61385838515E+02  0.93489431238E+02  0.00000000000E+00 0.  1.
         14    1    4    4    0    0  0.19219536789E+02 -0.13476768917E+02 -0.34275706375E+02  0.41543205730E+02  0.00000000000E+00 0. -1.
         -5    1    5    5    0  502 -0.10293041423E+03 -0.25696652491E+02 -0.53443548304E+02  0.11888351853E+03  0.47000000000E+01 0.  1.
         13    1    6    6    0    0 -0.18371837797E+02  0.19107329757E+02 -0.20227649757E+02  0.33343249530E+02  0.00000000000E+00 0. -1.
        -14    1    6    6    0    0  0.45480036487E+02 -0.37807692987E+02 -0.26428985686E+02  0.64779214662E+02  0.00000000000E+00 0.  1.
</event>
<event>
12    1  0.8344842E-002  0.2178778E+03  0.7818608E-02  0.1135684E+00
         21   -1    0    0  503  502  0.00000000000E+00  0.00000000000E+00  0.32583121069E+03  0.32583121069E+03  0.00000000000E+00 0.  1.
         21   -1    0    0  501  503 -0.00000000000E+00 -0.00000000000E+00 -0.15328733896E+03  0.15328733896E+03  0.00000000000E+00 0. -1.
          6    2    1    2  501    0 -0.60828386320E+02 -0.11533260020E+03  0.30204743809E+02  0.21886639559E+03  0.17317179712E+03 0.  0.
         24    2    3    3    0    0 -0.10170441618E+03 -0.76111152753E+02 -0.13077370081E+02  0.14741989015E+03  0.73653992152E+02 0.  0.
         -6    2    1    2    0  502  0.60828386320E+02  0.11533260020E+03  0.14233912792E+03  0.26025215405E+03  0.17455387449E+03 0.  0.
        -24    2    5    5    0    0 -0.20207645465E+02  0.27750458615E+02  0.21242303965E+02  0.90181578275E+02  0.80641457662E+02 0.  0.
          5    1    3    3  501    0  0.40876029858E+02 -0.39221447449E+02  0.43282113890E+02  0.71446505441E+02  0.47000000000E+01 0. -1.
        -13    1    4    4    0    0 -0.28282469590E+02 -0.33981231784E+02  0.29014769623E+02  0.52881745961E+02  0.00000000000E+00 0.  1.
         14    1    4    4    0    0 -0.73421946588E+02 -0.42129920969E+02 -0.42092139704E+02  0.94538144188E+02  0.00000000000E+00 0. -1.
         -5    1    5    5    0  502  0.81036031785E+02  0.87582141587E+02  0.12109682396E+03  0.17007057578E+03  0.47000000000E+01 0.  1.
         11    1    6    6    0    0 -0.33919540715E+01  0.55139844080E+02  0.16763893845E+02  0.57731584895E+02  0.00000000000E+00 0. -1.
        -12    1    6    6    0    0 -0.16815691393E+02 -0.27389385465E+02  0.44784101198E+01  0.32449993381E+02  0.00000000000E+00 0.  1.
</event>
<event>
12    1  0.8344842E-002  0.1728574E+03  0.7818608E-02  0.1174904E+00
         21   -1    0    0  501  502  0.00000000000E+00  0.00000000000E+00  0.66906261034E+02  0.66906261034E+02  0.00000000000E+00 0. -1.
         21   -1    0    0  502  503 -0.00000000000E+00 -0.00000000000E+00 -0.70529766219E+03  0.70529766219E+03  0.00000000000E+00 0. -1.
         -6    2    1    2    0  503  0.18161504402E+02  0.31753144479E+01 -0.55304419464E+03  0.57942469662E+03  0.17185800815E+03 0.  0.
        -24    2    3    3    0    0 -0.23605289095E+02 -0.22368954938E+02 -0.14493822647E+03  0.16836564247E+03  0.79261089168E+02 0.  0.
          6    2    1    2  501    0 -0.18161504402E+02 -0.31753144479E+01 -0.85347206512E+02  0.19277922660E+03  0.17187135214E+03 0.  0.
         24    2    5    5    0    0 -0.73753903067E+02 -0.35125973706E+02 -0.62648203688E+02  0.12459789378E+03  0.70188072076E+02 0.  0.
          5    1    5    5  501    0  0.55592398665E+02  0.31950659258E+02 -0.22699002824E+02  0.68181332823E+02  0.47000000000E+01 0. -1.
        -13    1    6    6    0    0 -0.15995182751E+02 -0.36551569579E+02 -0.52494995019E+02  0.65936238989E+02  0.00000000000E+00 0.  1.
         14    1    6    6    0    0 -0.57758720316E+02  0.14255958734E+01 -0.10153208669E+02  0.58661654788E+02  0.00000000000E+00 0. -1.
         -5    1    3    3    0  503  0.41766793497E+02  0.25544269386E+02 -0.40810596817E+03  0.41105905415E+03  0.47000000000E+01 0.  1.
         11    1    4    4    0    0 -0.41187354173E+01 -0.28926762990E+02 -0.14488839200E+03  0.14780516816E+03  0.00000000000E+00 0. -1.
        -12    1    4    4    0    0 -0.19486553677E+02  0.65578080521E+01 -0.49834470121E-01  0.20560474317E+02  0.00000000000E+00 0.  1.
</event>
<event>
12    1  0.8344842E-002  0.1858875E+03  0.7818608E-02  0.1162643E+00
         21   -1    0    0  501  502  0.00000000000E+00  0.00000000000E+00  0.55805408477E+02  0.55805408477E+02  0.00000000000E+00 0.  1.
         21   -1    0    0  502  503 -0.00000000000E+00 -0.00000000000E+00 -0.65457684771E+03  0.65457684771E+03  0.00000000000E+00 0.  1.
         -6    2    1    2    0  503 -0.24572606171E+02  0.61102639994E+02 -0.38730559299E+03  0.42882944671E+03  0.17190615584E+03 0.  0.
        -24    2    3    3    0    0 -0.55434360100E+01 -0.50387489866E+00 -0.20327222638E+02  0.56200024496E+02  0.52098591156E+02 0.  0.
          6    2    1    2  501    0  0.24572606171E+02 -0.61102639994E+02 -0.21146584624E+03  0.28155280948E+03  0.17382990194E+03 0.  0.
         24    2    5    5    0    0 -0.13962781623E+02 -0.75234524054E+02 -0.21364494388E+03  0.24018223145E+03  0.78664791232E+02 0.  0.
          5    1    5    5  501    0  0.38535387794E+02  0.14131884061E+02  0.21790976365E+01  0.41370578024E+02  0.47000000000E+01 0. -1.
        -11    1    6    6    0    0  0.17379774831E+02 -0.67241303435E+02 -0.18254653467E+03  0.19531176816E+03  0.00000000000E+00 0.  1.
         12    1    6    6    0    0 -0.31342556454E+02 -0.79932206198E+01 -0.31098409211E+02  0.44870463296E+02  0.00000000000E+00 0. -1.
         -5    1    3    3    0  503 -0.19029170161E+02  0.61606514893E+02 -0.36697837035E+03  0.37262942222E+03  0.47000000000E+01 0.  1.
         13    1    4    4    0    0  0.13055519708E+02 -0.20310295306E+02 -0.39209500911E+01  0.24460755096E+02  0.00000000000E+00 0. -1.
        -14    1    4    4    0    0 -0.18598955718E+02  0.19806420407E+02 -0.16406272547E+02  0.31739269400E+02  0.00000000000E+00 0.  1.
</event>
<event>
12    1  0.8344842E-002  0.2566988E+03  0.7818608E-02  0.1109318E+00
         21   -1    0    0  503  502  0.00000000000E+00  0.00000000000E+00  0.47367525237E+03  0.47367525237E+03  0.00000000000E+00 0. -1.
         21   -1    0    0  501  503 -0.00000000000E+00 -0.00000000000E+00 -0.13874759679E+03  0.13874759679E+03  0.00000000000E+00 0. -1.
          6    2    1    2  501    0 -0.18507930422E+03 -0.38760506504E+02  0.18014983871E+03  0.31267218065E+03  0.17191044892E+03 0.  0.
         24    2    3    3    0    0 -0.19165450765E+03 -0.61815650046E+02  0.11983632451E+03  0.24759850748E+03  0.79947803845E+02 0.  0.
         -6    2    1    2    0  502  0.18507930422E+03  0.38760506504E+02  0.15477781686E+03  0.29975066852E+03  0.17360174241E+03 0.  0.
        -24    2    5    5    0    0  0.67352621263E+02 -0.13018486378E+02  0.13032041985E+03  0.16875108740E+03  0.82387262916E+02 0.  0.
          5    1    3    3  501    0  0.65752034367E+01  0.23055143542E+02  0.60313514204E+02  0.65073673169E+02  0.47000000000E+01 0. -1.
        -13    1    4    4    0    0 -0.92250450620E+00 -0.18667095395E+02  0.88656201072E+00  0.18710891407E+02  0.00000000000E+00 0.  1.
         14    1    4    4    0    0 -0.19073200315E+03 -0.43148554652E+02  0.11894976250E+03  0.22888761607E+03  0.00000000000E+00 0. -1.
         -5    1    5    5    0  502  0.11772668295E+03  0.51778992882E+02  0.24457397010E+02  0.13099958111E+03  0.47000000000E+01 0.  1.
         13    1    6    6    0    0  0.86302065593E+02 -0.11261517702E+02  0.11555234341E+03  0.14466240830E+03  0.00000000000E+00 0. -1.
        -14    1    6    6    0    0 -0.18949444329E+02 -0.17569686755E+01  0.14768076442E+02  0.24088679107E+02  0.00000000000E+00 0.  1.
</event>
<event>
12    1  0.8344842E-002  0.1751135E+03  0.7818608E-02  0.1172811E+00
         21   -1    0    0  503  502  0.00000000000E+00  0.00000000000E+00  0.20782574661E+03  0.20782574661E+03  0.00000000000E+00 0.  1.
         21   -1    0    0  501  503 -0.00000000000E+00 -0.00000000000E+00 -0.14720688083E+03  0.14720688083E+03  0.00000000000E+00 0.  1.
          6    2    1    2  501    0 -0.29367144287E+02  0.11826389441E+02  0.38429739612E+02  0.17928078081E+03  0.17222793279E+03 0.  0.
         24    2    3    3    0    0 -0.53462632876E+02 -0.44663039553E+02  0.49191892909E+02  0.11675428961E+03  0.79741341843E+02 0.  0.
         -6    2    1    2    0  502  0.29367144287E+02 -0.11826389441E+02  0.22189126170E+02  0.17575184662E+03  0.17144696446E+03 0.  0.
        -24    2    5    5    0    0 -0.23691844046E+02  0.40960572989E+02 -0.91737884061E+01  0.94465672793E+02  0.81243663929E+02 0.  0.
          5    1    3    3  501    0  0.24095488589E+02  0.56489428993E+02 -0.10762153297E+02  0.62526491201E+02  0.47000000000E+01 0. -1.
        -11    1    4    4    0    0 -0.63322990910E+02 -0.18683578284E+02  0.57711571306E+02  0.87689809773E+02  0.00000000000E+00 0.  1.
         12    1    4    4    0    0  0.98603580348E+01 -0.25979461269E+02 -0.85196783971E+01  0.29064479840E+02  0.00000000000E+00 0. -1.
         -5    1    5    5    0  502  0.53058988333E+02 -0.52786962429E+02  0.31362914576E+02  0.81286173832E+02  0.47000000000E+01 0.  1.
         13    1    6    6    0    0 -0.42641722732E+02  0.60105315244E+01  0.17613946173E+02  0.46526273293E+02  0.00000000000E+00 0. -1.
        -14    1    6    6    0    0  0.18949878686E+02  0.34950041464E+02 -0.26787734579E+02  0.47939399500E+02  0.00000000000E+00 0.  1.
</event>
<event>
12    1  0.8344842E-002  0.2167248E+03  0.7818608E-02  0.1136889E+00
         21   -1    0    0  501  502  0.00000000000E+00  0.00000000000E+00  0.10111317266E+04  0.10111317266E+04  0.00000000000E+00 0.  1.
         21   -1    0    0  502  503 -0.00000000000E+00 -0.00000000000E+00 -0.63280256945E+02  0.63280256945E+02  0.00000000000E+00 0. -1.
         -6    2    1    2    0  503 -0.11735013784E+03  0.46161480703E+02  0.19423605051E+03  0.29102797107E+03  0.17626031736E+03 0.  0.
        -24    2    3    3    0    0 -0.52397748474E+02  0.68618861542E+02  0.18819616099E+03  0.22187801008E+03  0.79736968491E+02 0.  0.
          6    2    1    2  501    0  0.11735013784E+03 -0.46161480703E+02  0.75361541919E+03  0.78338401252E+03  0.17277839529E+03 0.  0.
         24    2    5    5    0    0  0.68652334197E+02 -0.28057105089E+02  0.70022411624E+03  0.70873841166E+03  0.80597636873E+02 0.  0.
          5    1    5    5  501    0  0.48697803647E+02 -0.18104375615E+02  0.53391302951E+02  0.74645600857E+02  0.47000000000E+01 0. -1.
        -13    1    6    6    0    0  0.81586639576E+02 -0.34769577696E+02  0.66046789131E+03  0.66639563229E+03  0.00000000000E+00 0.  1.
         14    1    6    6    0    0 -0.12934305378E+02  0.67124726077E+01  0.39756224928E+02  0.42342779368E+02  0.00000000000E+00 0. -1.
         -5    1    3    3    0  503 -0.64952389370E+02 -0.22457380838E+02  0.60398895253E+01  0.69149960987E+02  0.47000000000E+01 0.  1.
         11    1    4    4    0    0 -0.55740959549E+02  0.42820369657E+02  0.64244841255E+02  0.95226247731E+02  0.00000000000E+00 0. -1.
        -12    1    4    4    0    0  0.33432110749E+01  0.25798491884E+02  0.12395131973E+03  0.12665176235E+03  0.00000000000E+00 0.  1.
</event>
<event>
12    1  0.8344842E-002  0.1859044E+03  0.7818608E-02  0.1162275E+00
         21   -1    0    0  501  502  0.00000000000E+00  0.00000000000E+00  0.22820341472E+02  0.22820341472E+02  0.00000000000E+00 0. -1.
         21   -1    0    0  502  503 -0.00000000000E+00 -0.00000000000E+00 -0.15153645372E+04  0.15153645372E+04  0.00000000000E+00 0. -1.
         -6    2    1    2    0  503 -0.66487654155E+02  0.21802123371E+02 -0.71127858671E+03  0.73517187227E+03  0.17223389077E+03 0.  0.
        -24    2    3    3    0    0 -0.36144477890E+02  0.10013098159E+02 -0.69052628101E+03  0.69628180088E+03  0.81087089297E+02 0.  0.
          6    2    1    2  501    0  0.66487654155E+02 -0.21802123371E+02 -0.78126560905E+03  0.80301300643E+03  0.17192438999E+03 0.  0.
         24    2    5    5    0    0  0.78282159340E+02 -0.18908129212E+01 -0.76731362071E+03  0.77558457930E+03  0.81422205011E+02 0.  0.
          5    1    5    5  501    0 -0.11794505185E+02 -0.19911310450E+02 -0.13951988335E+02  0.27428427131E+02  0.47000000000E+01 0. -1.
        -13    1    6    6    0    0  0.22249230118E+02 -0.39459910440E+02 -0.28571719103E+03  0.28928606261E+03  0.00000000000E+00 0.  1.
         14    1    6    6    0    0  0.56032929222E+02  0.37569097518E+02 -0.48159642969E+03  0.48629851669E+03  0.00000000000E+00 0. -1.
         -5    1    3    3    0  503 -0.30343176265E+02  0.11789025212E+02 -0.20752305702E+02  0.38890071397E+02  0.47000000000E+01 0.  1.
         11    1    4    4    0    0 -0.14011630211E+01  0.29101156678E+02 -0.53466861042E+03  0.53546182267E+03  0.00000000000E+00 0. -1.
        -12    1    4    4    0    0 -0.34743314869E+02 -0.19088058519E+02 -0.15585767059E+03  0.16081997820E+03  0.00000000000E+00 0.  1.
</event>
<event>
12    1  0.8344842E-002  0.2048131E+03  0.7818608E-02  0.1147402E+00
         21   -1    0    0  503  502  0.00000000000E+00  0.00000000000E+00  0.16038800035E+03  0.16038800035E+03  0.00000000000E+00 0. -1.
         21   -1    0    0  501  503 -0.00000000000E+00 -0.00000000000E+00 -0.85596668930E+03  0.85596668930E+03  0.00000000000E+00 0. -1.
          6    2    1    2  501    0 -0.96231590765E+02  0.40567392977E+01  0.81257833915E+02  0.21297223257E+03  0.17168972036E+03 0.  0.
         24    2    3    3    0    0 -0.23679138664E+01  0.47117930364E+02  0.22134467805E+02  0.93882692987E+02  0.78091734515E+02 0.  0.
         -6    2    1    2    0  502  0.96231590765E+02 -0.40567392977E+01 -0.77683652286E+03  0.80338245709E+03  0.18075235243E+03 0.  0.
        -24    2    5    5    0    0  0.48188567845E+02  0.56708015315E+02 -0.28777122631E+03  0.30819820679E+03  0.81461149657E+02 0.  0.
          5    1    3    3  501    0 -0.93863676898E+02 -0.43061191066E+02  0.59123366110E+02  0.11908953958E+03  0.47000000000E+01 0. -1.
        -13    1    4    4    0    0 -0.35094303875E+02  0.40593902866E+02  0.27148982271E+02  0.60137694940E+02  0.00000000000E+00 0.  1.
         14    1    4    4    0    0  0.32726390009E+02  0.65240274982E+01 -0.50145144658E+01  0.33744998046E+02  0.00000000000E+00 0. -1.
         -5    1    5    5    0  502  0.48043022920E+02 -0.60764754612E+02 -0.48906529655E+03  0.49518425030E+03  0.47000000000E+01 0.  1.
         13    1    6    6    0    0  0.23437950846E+01 -0.14206539319E+01 -0.16366928077E+03  0.16369222676E+03  0.00000000000E+00 0. -1.
        -14    1    6    6    0    0  0.45844772760E+02  0.58128669247E+02 -0.12410194554E+03  0.14450598003E+03  0.00000000000E+00 0.  1.
</event>
<event>
12    1  0.8344842E-002  0.2487177E+03  0.7818608E-02  0.1114174E+00
         21   -1    0    0  503  502  0.00000000000E+00  0.00000000000E+00  0.22209657756E+03  0.22209657756E+03  0.00000000000E+00 0. -1.
         21   -1    0    0  501  503 -0.00000000000E+00 -0.00000000000E+00 -0.43396844042E+03  0.43396844042E+03  0.00000000000E+00 0.  1.
          6    2    1    2  501    0 -0.11669051884E+03  0.13423188356E+03 -0.30245928564E+03  0.39136408610E+03  0.17334749109E+03 0.  0.
         24    2    3    3    0    0 -0.11769716474E+03  0.91956406910E+02 -0.30484242522E+03  0.34874955083E+03  0.79929604214E+02 0.  0.
         -6    2    1    2    0  502  0.11669051884E+03 -0.13423188356E+03  0.90587422783E+02  0.26470093187E+03  0.17385518805E+03 0.  0.
        -24    2    5    5    0    0  0.15182554238E+03 -0.10910639889E+03  0.86883115697E+02  0.22109391695E+03  0.79866405475E+02 0.  0.
          5    1    3    3  501    0  0.10066458947E+01  0.42275476655E+02  0.23831395791E+01  0.42614535274E+02  0.47000000000E+01 0. -1.
        -11    1    4    4    0    0 -0.10114165294E+03  0.61956538160E+02 -0.28605908742E+03  0.30967409978E+03  0.00000000000E+00 0.  1.
         12    1    4    4    0    0 -0.16555511793E+02  0.29999868749E+02 -0.18783337808E+02  0.39075451052E+02  0.00000000000E+00 0. -1.
         -5    1    5    5    0  502 -0.35135023536E+02 -0.25125484670E+02  0.37043070862E+01  0.43607014914E+02  0.47000000000E+01 0.  1.
         13    1    6    6    0    0  0.36170657068E+02 -0.65533472589E+02  0.56611524440E+02  0.93849971559E+02  0.00000000000E+00 0. -1.
        -14    1    6    6    0    0  0.11565488531E+03 -0.43572926306E+02  0.30271591257E+02  0.12724394540E+03  0.00000000000E+00 0.  1.
</event>
<event>
12    1  0.8344842E-002  0.1860176E+03  0.7818608E-02  0.1164222E+00
         21   -1    0    0  501  502  0.00000000000E+00  0.00000000000E+00  0.22916385310E+04  0.22916385310E+04  0.00000000000E+00 0. -1.
         21   -1    0    0  502  503 -0.00000000000E+00 -0.00000000000E+00 -0.15542920495E+02  0.15542920495E+02  0.00000000000E+00 0. -1.
         -6    2    1    2    0  503 -0.31925565506E+02 -0.23719389662E+02  0.79747904795E+03  0.81690983816E+03  0.17258910911E+03 0.  0.
        -24    2    3    3    0    0 -0.21793074399E+02 -0.55717608038E+02  0.76016668749E+03  0.76650293785E+03  0.78063890713E+02 0.  0.
          6    2    1    2  501    0  0.31925565506E+02  0.23719389662E+02  0.14786165626E+04  0.14902716134E+04  0.18171596317E+03 0.  0.
         24    2    5    5    0    0 -0.29949416306E+02  0.46000103720E+02  0.11986173518E+04  0.12026145404E+04  0.81149242977E+02 0.  0.
          5    1    5    5  501    0  0.61874981812E+02 -0.22280714057E+02  0.27999921075E+03  0.28765707294E+03  0.47000000000E+01 0. -1.
        -13    1    6    6    0    0 -0.24629915503E+02  0.66019735222E+02  0.10720537339E+04  0.10743669980E+04  0.00000000000E+00 0.  1.
         14    1    6    6    0    0 -0.53195008027E+01 -0.20019631502E+02  0.12656361796E+03  0.12824754238E+03  0.00000000000E+00 0. -1.
         -5    1    3    3    0  503 -0.10132491108E+02  0.31998218376E+02  0.37312360460E+02  0.50406900305E+02  0.47000000000E+01 0.  1.
         13    1    4    4    0    0 -0.50902298384E+02 -0.35968276091E+02  0.43580974254E+03  0.44024412836E+03  0.00000000000E+00 0. -1.
        -14    1    4    4    0    0  0.29109223985E+02 -0.19749331946E+02  0.32435694495E+03  0.32625880949E+03  0.00000000000E+00 0.  1.
</event>
<event>
12    1  0.8344842E-002  0.2114334E+03  0.7818608E-02  0.1140600E+00
         21   -1    0    0  503  502  0.00000000000E+00  0.00000000000E+00  0.35259029447E+03  0.35259029447E+03  0.00000000000E+00 0.  1.
         21   -1    0    0  501  503 -0.00000000000E+00 -0.00000000000E+00 -0.18877233951E+03  0.18877233951E+03  0.00000000000E+00 0.  1.
          6    2    1    2  501    0  0.88673586712E+02 -0.82359756181E+02 -0.73932435976E+02  0.22319704915E+03  0.17235075643E+03 0.  0.
         24    2    3    3    0    0  0.49362631555E+02 -0.12126177081E+03 -0.35253031815E+02  0.15554422775E+03  0.76224301113E+02 0.  0.
         -6    2    1    2    0  502 -0.88673586712E+02  0.82359756181E+02  0.23775039093E+03  0.31816558483E+03  0.17337230622E+03 0.  0.
        -24    2    5    5    0    0 -0.66925607510E+02  0.78404325340E+02  0.25705826610E+03  0.28844178837E+03  0.80581871006E+02 0.  0.
          5    1    3    3  501    0  0.39310955157E+02  0.38902014629E+02 -0.38679404161E+02  0.67652821403E+02  0.47000000000E+01 0. -1.
        -11    1    4    4    0    0  0.60033600440E+02 -0.11311022941E+03 -0.48262648568E+02  0.13684750792E+03  0.00000000000E+00 0.  1.
         12    1    4    4    0    0 -0.10670968885E+02 -0.81515414027E+01  0.13009616753E+02  0.18696719826E+02  0.00000000000E+00 0. -1.
         -5    1    5    5    0  502 -0.21747979203E+02  0.39554308407E+01 -0.19307875169E+02  0.29723796461E+02  0.47000000000E+01 0.  1.
         13    1    6    6    0    0  0.15067797247E+02 -0.22345842638E+01  0.21998483305E+02  0.26757525080E+02  0.00000000000E+00 0. -1.
        -14    1    6    6    0    0 -0.81993404756E+02  0.80638909604E+02  0.23505978280E+03  0.26168426329E+03  0.00000000000E+00 0.  1.
</event>
<event>
12    1  0.8344842E-002  0.1757390E+03  0.7818608E-02  0.1172054E+00
         21   -1    0    0  501  502  0.00000000000E+00  0.00000000000E+00  0.56898164765E+02  0.56898164765E+02  0.00000000000E+00 0. -1.
         21   -1    0    0  502  503 -0.00000000000E+00 -0.00000000000E+00 -0.14363715955E+04  0.14363715955E+04  0.00000000000E+00 0. -1.
         -6    2    1    2    0  503 -0.96984595522E+01 -0.31890323938E+02 -0.12787039803E+04  0.12906897389E+04  0.17229358635E+03 0.  0.
        -24    2    3    3    0    0  0.29476404186E+02 -0.39046188449E+02 -0.11871569555E+04  0.11907456340E+04  0.78358564918E+02 0.  0.
          6    2    1    2  501    0  0.96984595522E+01  0.31890323938E+02 -0.10076945038E+03  0.20258002134E+03  0.17254892071E+03 0.  0.
         24    2    5    5    0    0  0.63001146177E+02  0.37894744603E+02 -0.10636196950E+03  0.14844504430E+03  0.72923977773E+02 0.  0.
          5    1    5    5  501    0 -0.53302686624E+02 -0.60044206654E+01  0.55925191210E+01  0.54134977039E+02  0.47000000000E+01 0. -1.
        -13    1    6    6    0    0 -0.56914776392E+01  0.22594529985E+02 -0.59486174587E+02  0.63886701824E+02  0.00000000000E+00 0.  1.
         14    1    6    6    0    0  0.68692623816E+02  0.15300214618E+02 -0.46875794910E+02  0.84558342477E+02  0.00000000000E+00 0. -1.
         -5    1    3    3    0  503 -0.39174863739E+02  0.71558645107E+01 -0.91547024879E+02  0.99944104929E+02  0.47000000000E+01 0.  1.
         11    1    4    4    0    0  0.54004433772E+01 -0.59200460265E+02 -0.66791079405E+03  0.67055103318E+03  0.00000000000E+00 0. -1.
        -12    1    4    4    0    0  0.24075960809E+02  0.20154271816E+02 -0.51924616142E+03  0.52019460081E+03  0.00000000000E+00 0.  1.
</event>
<event>
12    1  0.8344842E-002  0.1745896E+03  0.7818608E-02  0.1173524E+00
         21   -1    0    0  503  502  0.00000000000E+00  0.00000000000E+00  0.14628520296E+04  0.14628520296E+04  0.00000000000E+00 0.  1.
         21   -1    0    0  501  503 -0.00000000000E+00 -0.00000000000E+00 -0.47693446368E+02  0.47693446368E+02  0.00000000000E+00 0.  1.
          6    2    1    2  501    0 -0.17891015538E+02  0.19642342521E+01  0.14026237130E+03  0.22395327563E+03  0.17365940864E+03 0.  0.
         24    2    3    3    0    0 -0.55255848409E+02  0.50430688939E+02  0.64319401223E+02  0.12630824160E+03  0.78869026576E+02 0.  0.
         -6    2    1    2    0  502  0.17891015538E+02 -0.19642342521E+01  0.12748962120E+04  0.12865922004E+04  0.17214875001E+03 0.  0.
        -24    2    5    5    0    0 -0.32844597420E+02  0.54156589157E+02  0.88195739248E+03  0.88640892348E+03  0.62130779477E+02 0.  0.
          5    1    3    3  501    0  0.37364832870E+02 -0.48466454687E+02  0.75942970077E+02  0.97645034024E+02  0.47000000000E+01 0. -1.
        -13    1    4    4    0    0 -0.41405529428E+02  0.60053428919E+02  0.76348220919E+02  0.10559300654E+03  0.00000000000E+00 0.  1.
         14    1    4    4    0    0 -0.13850318980E+02 -0.96227399797E+01 -0.12028819696E+02  0.20715235066E+02  0.00000000000E+00 0. -1.
         -5    1    5    5    0  502  0.50735612958E+02 -0.56120823410E+02  0.39293881950E+03  0.40018327691E+03  0.47000000000E+01 0.  1.
         11    1    6    6    0    0 -0.28542240884E+01  0.13833084262E+02  0.32136687021E+02  0.35103667444E+02  0.00000000000E+00 0. -1.
        -12    1    6    6    0    0 -0.29990373332E+02  0.40323504896E+02  0.84982070546E+03  0.85130525604E+03  0.00000000000E+00 0.  1.
</event>
<event>
12    1  0.8344842E-002  0.2394638E+03  0.7818608E-02  0.1120207E+00
         21   -1    0    0  503  502  0.00000000000E+00  0.00000000000E+00  0.75129729258E+02  0.75129729258E+02  0.00000000000E+00 0. -1.
         21   -1    0    0  501  503 -0.00000000000E+00 -0.00000000000E+00 -0.77515723311E+03  0.77515723311E+03  0.00000000000E+00 0.  1.
          6    2    1    2  501    0  0.13574712300E+03 -0.94558711537E+02 -0.29524201686E+03  0.38014573607E+03  0.17313087767E+03 0.  0.
         24    2    3    3    0    0  0.14379745315E+03 -0.42625445875E+02 -0.27475367857E+03  0.32354419984E+03  0.81832934649E+02 0.  0.
         -6    2    1    2    0  502 -0.13574712300E+03  0.94558711537E+02 -0.40478548699E+03  0.47014122629E+03  0.17266398250E+03 0.  0.
        -24    2    5    5    0    0 -0.54752125739E+02  0.43742742778E+02 -0.85803755048E+02  0.13710385966E+03  0.80771041434E+02 0.  0.
          5    1    3    3  501    0 -0.80503301486E+01 -0.51933265661E+02 -0.20488338283E+02  0.56601536228E+02  0.47000000000E+01 0. -1.
        -13    1    4    4    0    0  0.12165372989E+03  0.11179066048E+01 -0.20218776314E+03  0.23596773354E+03  0.00000000000E+00 0.  1.
         14    1    4    4    0    0  0.22143723256E+02 -0.43743352480E+02 -0.72565915438E+02  0.87576466298E+02  0.00000000000E+00 0. -1.
         -5    1    5    5    0  502 -0.80994997262E+02  0.50815968759E+02 -0.31898173194E+03  0.33303736664E+03  0.47000000000E+01 0.  1.
         11    1    6    6    0    0 -0.64381790730E+02  0.19454286965E+02 -0.26481158370E+02  0.72282335377E+02  0.00000000000E+00 0. -1.
        -12    1    6    6    0    0  0.96296649909E+01  0.24288455813E+02 -0.59322596678E+02  0.64821524282E+02  0.00000000000E+00 0.  1.
</event>
<event>
12    1  0.8344842E-002  0.1962211E+03  0.7818608E-02  0.1155098E+00
         21   -1    0    0  501  502  0.00000000000E+00  0.00000000000E+00  0.18075098120E+03  0.18075098120E+03  0.00000000000E+00 0. -1.
         21   -1    0    0  502  503 -0.00000000000E+00 -0.00000000000E+00 -0.21915761591E+03  0.21915761591E+03  0.00000000000E+00 0.  1.
         -6    2    1    2    0  503  0.54551018138E+02  0.76777669445E+02 -0.73493542706E+02  0.20057518485E+03  0.16111635501E+03 0.  0.
        -24    2    3    3    0    0  0.90137118527E+02  0.35568768480E+02 -0.25205918834E+02  0.12764831272E+03  0.79176486204E+02 0.  0.
          6    2    1    2  501    0 -0.54551018138E+02 -0.76777669445E+02  0.35086907998E+02  0.19933341226E+03  0.17213975144E+03 0.  0.
         24    2    5    5    0    0 -0.46438517264E+02 -0.91906386711E+01  0.76841889074E+02  0.11933723833E+03  0.78074943549E+02 0.  0.
          5    1    5    5  501    0 -0.81125008736E+01 -0.67587030774E+02 -0.41754981076E+02  0.79996173933E+02  0.47000000000E+01 0. -1.
        -11    1    6    6    0    0 -0.15061833742E+02  0.33634649864E+02  0.41798122266E+02  0.55724604369E+02  0.00000000000E+00 0.  1.
         12    1    6    6    0    0 -0.31376683522E+02 -0.42825288535E+02  0.35043766808E+02  0.63612633958E+02  0.00000000000E+00 0. -1.
         -5    1    3    3    0  503 -0.35586100389E+02  0.41208900965E+02 -0.48287623872E+02  0.72926872131E+02  0.47000000000E+01 0.  1.
         13    1    4    4    0    0  0.25541119586E+02  0.31897312488E+02  0.23066980549E+02  0.46924118802E+02  0.00000000000E+00 0. -1.
        -14    1    4    4    0    0  0.64595998941E+02  0.36714559912E+01 -0.48272899383E+02  0.80724193914E+02  0.00000000000E+00 0.  1.
</event>
<event>
12    1  0.8344842E-002  0.1878793E+03  0.7818608E-02  0.1161308E+00
         21   -1    0    0  503  502  0.00000000000E+00  0.00000000000E+00  0.14974833849E+03  0.14974833849E+03  0.00000000000E+00 0.  1.
         21   -1    0    0  501  503 -0.00000000000E+00 -0.00000000000E+00 -0.23099136909E+03  0.23099136909E+03  0.00000000000E+00 0. -1.
          6    2    1    2  501    0 -0.61333606288E+02  0.20203915509E+02 -0.34148024543E+02  0.18704772108E+03  0.17219393984E+03 0.  0.
         24    2    3    3    0    0 -0.58610240866E+02  0.66043720141E+02 -0.60991293245E+02  0.13364963607E+03  0.79657730737E+02 0.  0.
         -6    2    1    2    0  502  0.61333606288E+02 -0.20203915509E+02 -0.47095006057E+02  0.19369198649E+03  0.17643309376E+03 0.  0.
        -24    2    5    5    0    0  0.64456877271E+02  0.21072699379E+02 -0.86245019310E+02  0.13652270019E+03  0.81249594618E+02 0.  0.
          5    1    3    3  501    0 -0.27233654216E+01 -0.45839804632E+02  0.26843268702E+02  0.53398085009E+02  0.47000000000E+01 0. -1.
        -13    1    4    4    0    0 -0.54151614410E+02  0.29446883655E+01 -0.17895086077E+02  0.57107815914E+02  0.00000000000E+00 0.  1.
         14    1    4    4    0    0 -0.44586264565E+01  0.63099031776E+02 -0.43096207168E+02  0.76541820159E+02  0.00000000000E+00 0. -1.
         -5    1    5    5    0  502 -0.31232709824E+01 -0.41276614888E+02  0.39150013252E+02  0.57169286299E+02  0.47000000000E+01 0.  1.
         11    1    6    6    0    0  0.13412907878E+02 -0.26945632848E+02 -0.48079152740E+02  0.56723700122E+02  0.00000000000E+00 0. -1.
        -12    1    6    6    0    0  0.51043969393E+02  0.48018332227E+02 -0.38165866570E+02  0.79799000071E+02  0.00000000000E+00 0.  1.
</event>
<event>
12    1  0.8344842E-002  0.1859629E+03  0.7818608E-02  0.1162365E+00
         21   -1    0    0  501  502  0.00000000000E+00  0.00000000000E+00  0.10940075420E+04  0.10940075420E+04  0.00000000000E+00 0.  1.
         21   -1    0    0  502  503 -0.00000000000E+00 -0.00000000000E+00 -0.12545398993E+03  0.12545398993E+03  0.00000000000E+00 0.  1.
         -6    2    1    2    0  503  0.59343863037E+02  0.33101488174E+02 -0.43800751799E+02  0.19016884902E+03  0.17212868059E+03 0.  0.
        -24    2    3    3    0    0 -0.14462771852E+02  0.64966923913E+02 -0.32573002148E+02  0.10886092991E+03  0.79748533652E+02 0.  0.
          6    2    1    2  501    0 -0.59343863037E+02 -0.33101488174E+02  0.10123543039E+04  0.10292926829E+04  0.17310340235E+03 0.  0.
         24    2    5    5    0    0 -0.96086750721E+00  0.39000292150E+02  0.57627829066E+03  0.58343214395E+03  0.82307060791E+02 0.  0.
          5    1    5    5  501    0 -0.58382995529E+02 -0.72101780323E+02  0.43607601322E+03  0.44586053896E+03  0.47000000000E+01 0. -1.
        -11    1    6    6    0    0  0.80508319948E+01  0.34592157263E+01  0.48480209792E+03  0.48488128054E+03  0.00000000000E+00 0.  1.
         12    1    6    6    0    0 -0.90116995020E+01  0.35541076424E+02  0.91476192740E+02  0.98550863413E+02  0.00000000000E+00 0. -1.
         -5    1    3    3    0  503  0.73806634888E+02 -0.31865435739E+02 -0.11227749651E+02  0.81307919114E+02  0.47000000000E+01 0.  1.
         11    1    4    4    0    0 -0.42255212342E+02  0.12382873428E+02 -0.93691497340E+01  0.45017990750E+02  0.00000000000E+00 0. -1.
        -12    1    4    4    0    0  0.27792440490E+02  0.52584050485E+02 -0.23203852414E+02  0.63842939161E+02  0.00000000000E+00 0.  1.
</event>
<event>
12    1  0.8344842E-002  0.2269562E+03  0.7818608E-02  0.1130236E+00
         21   -1    0    0  501  502  0.00000000000E+00  0.00000000000E+00  0.12832135070E+03  0.12832135070E+03  0.00000000000E+00 0.  1.
         21   -1    0    0  502  503 -0.00000000000E+00 -0.00000000000E+00 -0.50629472226E+03  0.50629472226E+03  0.00000000000E+00 0. -1.
         -6    2    1    2    0  503 -0.93433445283E+02  0.97947157407E+02 -0.34514831582E+03  0.41308170814E+03  0.18216938092E+03 0.  0.
        -24    2    3    3    0    0  0.10607405856E+02  0.13914783864E+02 -0.18479486060E+03  0.20422467782E+03  0.85161260329E+02 0.  0.
          6    2    1    2  501    0  0.93433445283E+02 -0.97947157407E+02 -0.32825055734E+02  0.22153436482E+03  0.17226879047E+03 0.  0.
         24    2    5    5    0    0  0.84497058303E+02 -0.38922897714E+02 -0.80037574759E+02  0.14527930468E+03  0.77751644141E+02 0.  0.
          5    1    5    5  501    0  0.89363869798E+01 -0.59024259693E+02  0.47212519024E+02  0.76255060141E+02  0.47000000000E+01 0. -1.
        -11    1    6    6    0    0 -0.20739888290E+01  0.30382748496E+01 -0.41468804927E+02  0.41631650530E+02  0.00000000000E+00 0.  1.
         12    1    6    6    0    0  0.86571047133E+02 -0.41961172564E+02 -0.38568769831E+02  0.10364765415E+03  0.00000000000E+00 0. -1.
         -5    1    3    3    0  503 -0.10404085114E+03  0.84032373543E+02 -0.16035345523E+03  0.20885703032E+03  0.47000000000E+01 0.  1.
         13    1    4    4    0    0 -0.30217325666E+02  0.30537393252E+01 -0.26233955095E+02  0.40132686108E+02  0.00000000000E+00 0. -1.
        -14    1    4    4    0    0  0.40824731522E+02  0.10861044538E+02 -0.15856090550E+03  0.16409199172E+03  0.00000000000E+00 0.  1.
</event>
<event>
12    1  0.8344842E-002  0.2013557E+03  0.7818608E-02  0.1148713E+00
         21   -1    0    0  503  502  0.00000000000E+00  0.00000000000E+00  0.93748858135E+02  0.93748858135E+02  0.00000000000E+00 0.  1.
         21   -1    0    0  501  503 -0.00000000000E+00 -0.00000000000E+00 -0.93295326902E+03  0.93295326902E+03  0.00000000000E+00 0. -1.
          6    2    1    2  501    0 -0.57266300353E+02  0.85846297503E+02 -0.79628372279E+03  0.82134761464E+03  0.17290205590E+03 0.  0.
         24    2    3    3    0    0 -0.65329362387E+02  0.95755742775E+01 -0.27136958995E+03  0.29083920467E+03  0.81156462520E+02 0.  0.
         -6    2    1    2    0  502  0.57266300353E+02 -0.85846297503E+02 -0.42920688088E+02  0.20535451251E+03  0.17227673782E+03 0.  0.
        -24    2    5    5    0    0  0.88915826309E+02 -0.32543198444E+02 -0.64817274564E+02  0.13944196923E+03  0.79231936543E+02 0.  0.
          5    1    3    3  501    0  0.80630620335E+01  0.76270723226E+02 -0.52491413284E+03  0.53050840997E+03  0.47000000000E+01 0. -1.
        -13    1    4    4    0    0 -0.94441187519E+00  0.28691065340E+02 -0.35831128833E+02  0.45912296148E+02  0.00000000000E+00 0.  1.
         14    1    4    4    0    0 -0.64384950512E+02 -0.19115491063E+02 -0.23553846112E+03  0.24492690852E+03  0.00000000000E+00 0. -1.
         -5    1    5    5    0  502 -0.31649525955E+02 -0.53303099060E+02  0.21896586476E+02  0.65912543282E+02  0.47000000000E+01 0.  1.
         11    1    6    6    0    0  0.64337601998E+01  0.19481717891E+02  0.28956495019E+01  0.20719927324E+02  0.00000000000E+00 0. -1.
        -12    1    6    6    0    0  0.82482066109E+02 -0.52024916335E+02 -0.67712924066E+02  0.11872204191E+03  0.00000000000E+00 0.  1.
</event>
<event>
12    1  0.8344842E-002  0.2019606E+03  0.7818608E-02  0.1149246E+00
         21   -1    0    0  503  502  0.00000000000E+00  0.00000000000E+00  0.81781243634E+02  0.81781243634E+02  0.00000000000E+00 0. -1.
         21   -1    0    0  501  503 -0.00000000000E+00 -0.00000000000E+00 -0.48901523029E+03  0.48901523029E+03  0.00000000000E+00 0. -1.
          6    2    1    2  501    0 -0.81154022267E+02  0.50900986269E+02 -0.17627661787E+03  0.26399134629E+03  0.17158408777E+03 0.  0.
         24    2    3    3    0    0 -0.32798391892E+01 -0.24531395043E+02 -0.10584034408E+03  0.13461673052E+03  0.79416238972E+02 0.  0.
         -6    2    1    2    0  502  0.81154022267E+02 -0.50900986269E+02 -0.23095736879E+03  0.30680512764E+03  0.17779537231E+03 0.  0.
        -24    2    5    5    0    0  0.69941993909E+02 -0.91298708272E+02 -0.76293321914E+02  0.14649061514E+03  0.49106951756E+02 0.  0.
          5    1    3    3  501    0 -0.77874183078E+02  0.75432381312E+02 -0.70436273792E+02  0.12937461577E+03  0.47000000000E+01 0. -1.
        -11    1    4    4    0    0 -0.40815433894E+02 -0.77242120257E+01 -0.45689699264E+02  0.61750398494E+02  0.00000000000E+00 0.  1.
         12    1    4    4    0    0  0.37535594705E+02 -0.16807183017E+02 -0.60150644815E+02  0.72866332023E+02  0.00000000000E+00 0. -1.
         -5    1    5    5    0  502  0.11212028358E+02  0.40397722003E+02 -0.15466404687E+03  0.16031451250E+03  0.47000000000E+01 0.  1.
         13    1    6    6    0    0  0.23870289402E+02 -0.15689778682E+02 -0.43566222875E+02  0.52095831376E+02  0.00000000000E+00 0. -1.
        -14    1    6    6    0    0  0.46071704507E+02 -0.75608929590E+02 -0.32727099040E+02  0.94394783762E+02  0.00000000000E+00 0.  1.
</event>
<event>
12    1  0.8344842E-002  0.1888152E+03  0.7818608E-02  0.1160200E+00
         21   -1    0    0  503  502  0.00000000000E+00  0.00000000000E+00  0.10090291321E+03  0.10090291321E+03  0.00000000000E+00 0.  1.
         21   -1    0    0  501  503 -0.00000000000E+00 -0.00000000000E+00 -0.36566332399E+03  0.36566332399E+03  0.00000000000E+00 0.  1.
          6    2    1    2  501    0 -0.61043451877E+02 -0.43172895337E+02 -0.18476614502E+03  0.26417743673E+03  0.17338104805E+03 0.  0.
         24    2    3    3    0    0 -0.29537971350E+02 -0.92290530760E+02 -0.14543921043E+03  0.19365201438E+03  0.83417653565E+02 0.  0.
         -6    2    1    2    0  502  0.61043451877E+02  0.43172895337E+02 -0.79994265757E+02  0.20238880046E+03  0.17021146286E+03 0.  0.
        -24    2    5    5    0    0  0.75192157345E+02 -0.26686145173E+02 -0.59462549591E+02  0.12806442508E+03  0.80614460840E+02 0.  0.
          5    1    3    3  501    0 -0.31505480527E+02  0.49117635423E+02 -0.39326934596E+02  0.70525422349E+02  0.47000000000E+01 0. -1.
        -11    1    4    4    0    0  0.28261827485E+02 -0.17167492496E+02 -0.38598952445E+02  0.50826497236E+02  0.00000000000E+00 0.  1.
         12    1    4    4    0    0 -0.57799798835E+02 -0.75123038264E+02 -0.10684025798E+03  0.14282551715E+03  0.00000000000E+00 0. -1.
         -5    1    5    5    0  502 -0.14148705468E+02  0.69859040510E+02 -0.20531716165E+02  0.74324375383E+02  0.47000000000E+01 0.  1.
         11    1    6    6    0    0  0.33877352874E+02 -0.21400633343E+02 -0.73831145764E+02  0.84004167933E+02  0.00000000000E+00 0. -1.
        -12    1    6    6    0    0  0.41314804471E+02 -0.52855118301E+01  0.14368596173E+02  0.44060257146E+02  0.00000000000E+00 0.  1.
</event>
<event>
12    1  0.8344842E-002  0.2238185E+03  0.7818608E-02  0.1131242E+00
         21   -1    0    0  501  502  0.00000000000E+00  0.00000000000E+00  0.81183633657E+03  0.81183633657E+03  0.00000000000E+00 0.  1.
         21   -1    0    0  502  503 -0.00000000000E+00 -0.00000000000E+00 -0.72345846211E+02  0.72345846211E+02  0.00000000000E+00 0. -1.
         -6    2    1    2    0  503  0.41061200086E+02 -0.13640225148E+03  0.19745590522E+03  0.29775554413E+03  0.17139992181E+03 0.  0.
        -24    2    3    3    0    0  0.73761760859E+01 -0.13189828703E+03  0.87336948962E+02  0.18241586724E+03  0.90533087174E+02 0.  0.
          6    2    1    2  501    0 -0.41061200086E+02  0.13640225148E+03  0.54203458514E+03  0.58642663865E+03  0.17263578617E+03 0.  0.
         24    2    5    5    0    0 -0.49132034754E+02  0.13661441655E+02  0.17681166528E+03  0.20101735495E+03  0.80901299036E+02 0.  0.
          5    1    5    5  501    0  0.80708346672E+01  0.12274080982E+03  0.36522291986E+03  0.38540928370E+03  0.47000000000E+01 0. -1.
        -11    1    6    6    0    0 -0.66674607145E+02 -0.55629174434E+01  0.14657262563E+03  0.16112102244E+03  0.00000000000E+00 0.  1.
         12    1    6    6    0    0  0.17542572392E+02  0.19224359098E+02  0.30239039649E+02  0.39896332510E+02  0.00000000000E+00 0. -1.
         -5    1    3    3    0  503  0.33685024000E+02 -0.45039644472E+01  0.11011895626E+03  0.11533967689E+03  0.47000000000E+01 0.  1.
         13    1    4    4    0    0 -0.40114378811E+02 -0.71676349518E+02  0.56806137658E+02  0.99867911479E+02  0.00000000000E+00 0. -1.
        -14    1    4    4    0    0  0.47490554897E+02 -0.60221937512E+02  0.30530811304E+02  0.82547955765E+02  0.00000000000E+00 0.  1.
</event>
<event>
12    1  0.8344842E-002  0.2157500E+03  0.7818608E-02  0.1137445E+00
         21   -1    0    0  501  502  0.00000000000E+00  0.00000000000E+00  0.14945022095E+04  0.14945022095E+04  0.00000000000E+00 0. -1.
         21   -1    0    0  502  503 -0.00000000000E+00 -0.00000000000E+00 -0.32275506162E+02  0.32275506162E+02  0.00000000000E+00 0.  1.
         -6    2    1    2    0  503  0.35248209017E+01 -0.12998531289E+03  0.88679161786E+03  0.91222616696E+03  0.16984875701E+03 0.  0.
        -24    2    3    3    0    0 -0.62160412560E+02 -0.10151627493E+03  0.63111949035E+03  0.64667887776E+03  0.75579685619E+02 0.  0.
          6    2    1    2  501    0 -0.35248209017E+01  0.12998531289E+03  0.57543508549E+03  0.61455154871E+03  0.17216115265E+03 0.  0.
         24    2    5    5    0    0  0.11114408057E+02  0.14526536414E+03  0.33723259076E+03  0.37536479012E+03  0.77119059287E+02 0.  0.
          5    1    5    5  501    0 -0.14639228959E+02 -0.15280051250E+02  0.23820249473E+03  0.23918675859E+03  0.47000000000E+01 0. -1.
        -13    1    6    6    0    0  0.30816014248E+02  0.11902518622E+03  0.20430718973E+03  0.23844925973E+03  0.00000000000E+00 0.  1.
         14    1    6    6    0    0 -0.19701606191E+02  0.26240177919E+02  0.13292540103E+03  0.13691553039E+03  0.00000000000E+00 0. -1.
         -5    1    3    3    0  503  0.65685233462E+02 -0.28469037957E+02  0.25567212750E+03  0.26554728920E+03  0.47000000000E+01 0.  1.
         13    1    4    4    0    0 -0.14528333527E+02 -0.91086904615E+02  0.41056233663E+03  0.42079606572E+03  0.00000000000E+00 0. -1.
        -14    1    4    4    0    0 -0.47632079034E+02 -0.10429370314E+02  0.22055715372E+03  0.22588281204E+03  0.00000000000E+00 0.  1.
</event>
<event>
12    1  0.8344842E-002  0.1942663E+03  0.7818608E-02  0.1154764E+00
         21   -1    0    0  503  502  0.00000000000E+00  0.00000000000E+00  0.27932541919E+03  0.27932541919E+03  0.00000000000E+00 0. -1.
         21   -1    0    0  501  503 -0.00000000000E+00 -0.00000000000E+00 -0.29317274367E+03  0.29317274367E+03  0.00000000000E+00 0. -1.
          6    2    1    2  501    0 -0.59069165847E+02 -0.67539187077E+02 -0.21731028427E+03  0.29148442095E+03  0.17230409125E+03 0.  0.
         24    2    3    3    0    0  0.27866603992E+02 -0.42023702592E+02 -0.15667660564E+03  0.18236338260E+03  0.78525826084E+02 0.  0.
         -6    2    1    2    0  502  0.59069165847E+02  0.67539187077E+02  0.20346295979E+03  0.28101374190E+03  0.17181629430E+03 0.  0.
        -24    2    5    5    0    0  0.10322030874E+01  0.99735023881E+02  0.14459297016E+03  0.19217328585E+03  0.77944238659E+02 0.  0.
          5    1    3    3  501    0 -0.86935769839E+02 -0.25515484485E+02 -0.60633678632E+02  0.10912103835E+03  0.47000000000E+01 0. -1.
        -13    1    4    4    0    0  0.25186611489E+02  0.54385384590E+01 -0.91122725516E+01  0.27330872835E+02  0.00000000000E+00 0.  1.
         14    1    4    4    0    0  0.26799925030E+01 -0.47462241051E+02 -0.14756433309E+03  0.15503250977E+03  0.00000000000E+00 0. -1.
         -5    1    5    5    0  502  0.58036962760E+02 -0.32195836804E+02  0.58869989627E+02  0.88840456058E+02  0.47000000000E+01 0.  1.
         13    1    6    6    0    0 -0.28527341327E+02  0.48739255284E+02  0.11046200114E+03  0.12406118613E+03  0.00000000000E+00 0. -1.
        -14    1    6    6    0    0  0.29559544415E+02  0.50995768598E+02  0.34130969026E+02  0.68112099714E+02  0.00000000000E+00 0.  1.
</event>
<event>
12    1  0.8344842E-002  0.2132463E+03  0.7818608E-02  0.1139060E+00
         21   -1    0    0  503  502  0.00000000000E+00  0.00000000000E+00  0.15287583296E+03  0.15287583296E+03  0.00000000000E+00 0.  1.
         21   -1    0    0  501  503 -0.00000000000E+00 -0.00000000000E+00 -0.29894223596E+03  0.29894223596E+03  0.00000000000E+00 0.  1.
          6    2    1    2  501    0 -0.12626161102E+03  0.48887193257E+01 -0.55625656088E+02  0.22018577165E+03  0.17152745095E+03 0.  0.
         24    2    3    3    0    0 -0.54049788005E+02  0.65306863232E+02 -0.18207958120E+02  0.11876055971E+03  0.81155251436E+02 0.  0.
         -6    2    1    2    0  502  0.12626161102E+03 -0.48887193257E+01 -0.90440746904E+02  0.23163229727E+03  0.17177921424E+03 0.  0.
        -24    2    5    5    0    0  0.10474641459E+02 -0.22912137714E+02 -0.73607063444E+02  0.11315475160E+03  0.82166379086E+02 0.  0.
          5    1    3    3  501    0 -0.72211823011E+02 -0.60418143906E+02 -0.37417697968E+02  0.10142521194E+03  0.47000000000E+01 0. -1.
        -13    1    4    4    0    0 -0.66224010235E+02  0.42776691439E+02 -0.36908952618E+02  0.87050190381E+02  0.00000000000E+00 0.  1.
         14    1    4    4    0    0  0.12174222230E+02  0.22530171794E+02  0.18700994498E+02  0.31710369332E+02  0.00000000000E+00 0. -1.
         -5    1    5    5    0  502  0.11578696956E+03  0.18023418388E+02 -0.16833683460E+02  0.11847754567E+03  0.47000000000E+01 0.  1.
         11    1    6    6    0    0 -0.25170836759E+02  0.51573998692E+01 -0.60807709029E+02  0.66013235596E+02  0.00000000000E+00 0. -1.
        -12    1    6    6    0    0  0.35645478218E+02 -0.28069537583E+02 -0.12799354415E+02  0.47141516002E+02  0.00000000000E+00 0.  1.
</event>
<event>
12    1  0.8344842E-002  0.2003313E+03  0.7818608E-02  0.1149557E+00
         21   -1    0    0  503  502  0.00000000000E+00  0.00000000000E+00  0.19933349280E+03  0.19933349280E+03  0.00000000000E+00 0.  1.
         21   -1    0    0  501  503 -0.00000000000E+00 -0.00000000000E+00 -0.27116561384E+03  0.27116561384E+03  0.00000000000E+00 0. -1.
          6    2    1    2  501    0 -0.34782323932E+02  0.96216552513E+02 -0.15566147563E+03  0.25333561570E+03  0.17170033241E+03 0.  0.
         24    2    3    3    0    0 -0.64243668756E+01 -0.83056818813E+01 -0.10983396456E+03  0.13564397631E+03  0.78902038602E+02 0.  0.
         -6    2    1    2    0  502  0.34782323932E+02 -0.96216552513E+02  0.83829354592E+02  0.21716349094E+03  0.17223584433E+03 0.  0.
        -24    2    5    5    0    0 -0.30954501032E+02 -0.90919173215E+02  0.84938611720E+02  0.15103699977E+03  0.79831888021E+02 0.  0.
          5    1    3    3  501    0 -0.28357957057E+02  0.10452223439E+03 -0.45827511070E+02  0.11769163939E+03  0.47000000000E+01 0. -1.
        -11    1    4    4    0    0 -0.39368757765E+02 -0.45412255447E+01 -0.86355327214E+02  0.95014548126E+02  0.00000000000E+00 0.  1.
         12    1    4    4    0    0  0.32944390890E+02 -0.37644563366E+01 -0.23478637351E+02  0.40629428183E+02  0.00000000000E+00 0. -1.
         -5    1    5    5    0  502  0.65736824964E+02 -0.52973792975E+01 -0.11092571279E+01  0.66126491175E+02  0.47000000000E+01 0.  1.
         13    1    6    6    0    0  0.82393997114E+00  0.13613713478E+02  0.18245559108E+01  0.13760126308E+02  0.00000000000E+00 0. -1.
        -14    1    6    6    0    0 -0.31778441003E+02 -0.10453288669E+03  0.83114055809E+02  0.13727687346E+03  0.00000000000E+00 0.  1.
</event>
<event>
12    1  0.8344842E-002  0.2145153E+03  0.7818608E-02  0.1138424E+00
         21   -1    0    0  501  502  0.00000000000E+00  0.00000000000E+00  0.12426604787E+04  0.12426604787E+04  0.00000000000E+00 0.  1.
         21   -1    0    0  502  503 -0.00000000000E+00 -0.00000000000E+00 -0.44093690916E+02  0.44093690916E+02  0.00000000000E+00 0.  1.
         -6    2    1    2    0  503 -0.11332757968E+03  0.57182349177E+02  0.33330918294E+03  0.39530167355E+03  0.17045656429E+03 0.  0.
        -24    2    3    3    0    0 -0.73661441120E+02  0.92033263192E+02  0.15977855663E+03  0.21385483003E+03  0.79426517795E+02 0.  0.
          6    2    1    2  501    0  0.11332757968E+03 -0.57182349177E+02  0.86525760480E+03  0.89145249602E+03  0.17292735069E+03 0.  0.
         24    2    5    5    0    0  0.99248186297E+02 -0.45527937502E+02  0.86120265279E+03  0.87214997636E+03  0.83979619609E+02 0.  0.
          5    1    5    5  501    0  0.14079393380E+02 -0.11654411675E+02  0.40549520117E+01  0.19302519661E+02  0.47000000000E+01 0. -1.
        -13    1    6    6    0    0 -0.81077090280E+01 -0.19911870075E+02  0.26099338623E+03  0.26187738576E+03  0.00000000000E+00 0.  1.
         14    1    6    6    0    0  0.10735589532E+03 -0.25616067427E+02  0.60020926656E+03  0.61027259060E+03  0.00000000000E+00 0. -1.
         -5    1    3    3    0  503 -0.39666138556E+02 -0.34850914015E+02  0.17353062631E+03  0.18144684352E+03  0.47000000000E+01 0.  1.
         13    1    4    4    0    0 -0.27867878154E+02  0.37229033783E+01  0.84644321026E+02  0.89191589986E+02  0.00000000000E+00 0. -1.
        -14    1    4    4    0    0 -0.45793562966E+02  0.88310359814E+02  0.75134235601E+02  0.12466324005E+03  0.00000000000E+00 0.  1.
</event>
<event>
12    1  0.8344842E-002  0.1724926E+03  0.7818608E-02  0.1175707E+00
         21   -1    0    0  501  502  0.00000000000E+00  0.00000000000E+00  0.37480444353E+03  0.37480444353E+03  0.00000000000E+00 0. -1.
         21   -1    0    0  502  503 -0.00000000000E+00 -0.00000000000E+00 -0.92470105472E+02  0.92470105472E+02  0.00000000000E+00 0. -1.
         -6    2    1    2    0  503  0.80859937102E+01  0.39122589700E+01  0.23220975300E+03  0.28926644620E+03  0.17225858018E+03 0.  0.
        -24    2    3    3    0    0  0.66094308557E+02  0.31417446121E+02  0.14207957798E+03  0.17850978338E+03  0.79521209357E+02 0.  0.
          6    2    1    2  501    0 -0.80859937102E+01 -0.39122589700E+01  0.50124585061E+02  0.17800810280E+03  0.17056881770E+03 0.  0.
         24    2    5    5    0    0 -0.26015125828E+01  0.64090931126E+01  0.10030149539E+03  0.12627395380E+03  0.76399457379E+02 0.  0.
          5    1    5    5  501    0 -0.54844811274E+01 -0.10321352083E+02 -0.50176910334E+02  0.51734149000E+02  0.47000000000E+01 0. -1.
        -11    1    6    6    0    0  0.23769600853E+02 -0.14881376993E+02  0.99199123453E+01  0.29746495035E+02  0.00000000000E+00 0.  1.
         12    1    6    6    0    0 -0.26371113436E+02  0.21290470106E+02  0.90381583050E+02  0.96527458766E+02  0.00000000000E+00 0. -1.
         -5    1    3    3    0  503 -0.58008314847E+02 -0.27505187151E+02  0.90130175016E+02  0.11075666282E+03  0.47000000000E+01 0.  1.
         11    1    4    4    0    0  0.49621607928E+02 -0.17144963597E+02  0.46913596333E+02  0.70406954706E+02  0.00000000000E+00 0. -1.
        -12    1    4    4    0    0  0.16472700629E+02  0.48562409717E+02  0.95165981649E+02  0.10810282867E+03  0.00000000000E+00 0.  1.
</event>
<event>
12    1  0.8344842E-002  0.2553080E+03  0.7818608E-02  0.1110109E+00
         21   -1    0    0  501  502  0.00000000000E+00  0.00000000000E+00  0.66970449715E+03  0.66970449715E+03  0.00000000000E+00 0.  1.
         21   -1    0    0  502  503 -0.00000000000E+00 -0.00000000000E+00 -0.26232570211E+03  0.26232570211E+03  0.00000000000E+00 0. -1.
         -6    2    1    2    0  503 -0.17356684738E+03  0.72915092801E+02 -0.16632089438E+03  0.30408633587E+03  0.17135868372E+03 0.  0.
        -24    2    3    3    0    0 -0.37473640621E+02  0.60056382831E+00 -0.19039646196E+02  0.90862021839E+02  0.80552867529E+02 0.  0.
          6    2    1    2  501    0  0.17356684738E+03 -0.72915092801E+02  0.57369968942E+03  0.62794386340E+03  0.17245318400E+03 0.  0.
         24    2    5    5    0    0  0.55043986703E+02 -0.48436484984E+02  0.41178669577E+03  0.42574401607E+03  0.79459114410E+02 0.  0.
          5    1    5    5  501    0  0.11852286068E+03 -0.24478607817E+02  0.16191299365E+03  0.20219984733E+03  0.47000000000E+01 0. -1.
        -13    1    6    6    0    0  0.36953444640E+02 -0.70385944006E+02  0.31372724553E+03  0.32364258492E+03  0.00000000000E+00 0.  1.
         14    1    6    6    0    0  0.18090542063E+02  0.21949459022E+02  0.98059450233E+02  0.10210143115E+03  0.00000000000E+00 0. -1.
         -5    1    3    3    0  503 -0.13609320676E+03  0.72314528973E+02 -0.14728124818E+03  0.21322431403E+03  0.47000000000E+01 0.  1.
         13    1    4    4    0    0 -0.58803424865E+02  0.12634356690E+01  0.46224359842E+01  0.58998355570E+02  0.00000000000E+00 0. -1.
        -14    1    4    4    0    0  0.21329784245E+02 -0.66287184070E+00 -0.23662082180E+02  0.31863666269E+02  0.00000000000E+00 0.  1.
</event>
<event>
12    1  0.8344842E-002  0.2500743E+03  0.7818608E-02  0.1113546E+00
         21   -1    0    0  503  502  0.00000000000E+00  0.00000000000E+00  0.18150113573E+04  0.18150113573E+04  0.00000000000E+00 0.  1.
         21   -1    0    0  501  503 -0.00000000000E+00 -0.00000000000E+00 -0.35958857692E+02  0.35958857692E+02  0.00000000000E+00 0. -1.
          6    2    1    2  501    0 -0.10308680216E+03  0.14817552563E+03  0.68824112884E+03  0.73226565179E+03  0.17307298514E+03 0.  0.
         24    2    3    3    0    0 -0.10583927078E+03  0.68603218295E+02  0.57296756870E+03  0.59208929200E+03  0.79809411168E+02 0.  0.
         -6    2    1    2    0  502  0.10308680216E+03 -0.14817552563E+03  0.10908113707E+04  0.11187045632E+04  0.17043350011E+03 0.  0.
        -24    2    5    5    0    0  0.98839587174E+02 -0.17343060317E+03  0.85809349884E+03  0.88453463411E+03  0.78927993012E+02 0.  0.
          5    1    3    3  501    0  0.27524686226E+01  0.79572307333E+02  0.11527356014E+03  0.14017635980E+03  0.47000000000E+01 0. -1.
        -11    1    4    4    0    0 -0.85288854079E+02  0.14457656615E+02  0.26620408390E+03  0.27990681798E+03  0.00000000000E+00 0.  1.
         12    1    4    4    0    0 -0.20550416702E+02  0.54145561680E+02  0.30676348480E+03  0.31218247402E+03  0.00000000000E+00 0. -1.
         -5    1    5    5    0  502  0.42472149844E+01  0.25255077542E+02  0.23271787191E+03  0.23416992907E+03  0.47000000000E+01 0.  1.
         11    1    6    6    0    0  0.49548148419E+02 -0.53328427907E+02  0.18067089902E+03  0.19478427552E+03  0.00000000000E+00 0. -1.
        -12    1    6    6    0    0  0.49291438755E+02 -0.12010217526E+03  0.67742259982E+03  0.68975035859E+03  0.00000000000E+00 0.  1.
</event>
<event>
12    1  0.8344842E-002  0.1995526E+03  0.7818608E-02  0.1150133E+00
         21   -1    0    0  503  502  0.00000000000E+00  0.00000000000E+00  0.23851921495E+03  0.23851921495E+03  0.00000000000E+00 0. -1.
         21   -1    0    0  501  503 -0.00000000000E+00 -0.00000000000E+00 -0.16925839284E+03  0.16925839284E+03  0.00000000000E+00 0.  1.
          6    2    1    2  501    0  0.73724112971E+02 -0.68231446181E+02  0.10511116841E+02  0.19982921033E+03  0.17242521464E+03 0.  0.
         24    2    3    3    0    0  0.94556338536E+02 -0.76511552519E+02 -0.33542732953E+02  0.15017668306E+03  0.81443246340E+02 0.  0.
         -6    2    1    2    0  502 -0.73724112971E+02  0.68231446181E+02  0.58749705269E+02  0.20794839746E+03  0.17233755556E+03 0.  0.
        -24    2    5    5    0    0  0.18339276650E+02  0.10032220405E+02  0.58310663505E+02  0.98929590154E+02  0.77135956695E+02 0.  0.
          5    1    3    3  501    0 -0.20832225565E+02  0.82801063379E+01  0.44053849794E+02  0.49652527273E+02  0.47000000000E+01 0. -1.
        -13    1    4    4    0    0  0.18910475482E+02 -0.32110266365E+02 -0.48534635300E+02  0.61190572090E+02  0.00000000000E+00 0.  1.
         14    1    4    4    0    0  0.75645863055E+02 -0.44401286154E+02  0.14991902347E+02  0.88986110969E+02  0.00000000000E+00 0. -1.
         -5    1    5    5    0  502 -0.92063389622E+02  0.58199225776E+02  0.43904176349E+00  0.10901880731E+03  0.47000000000E+01 0.  1.
         13    1    6    6    0    0  0.20332671610E+02 -0.31909542251E+02  0.30014396395E+02  0.48295966834E+02  0.00000000000E+00 0. -1.
        -14    1    6    6    0    0 -0.19933949594E+01  0.41941762656E+02  0.28296267111E+02  0.50633623321E+02  0.00000000000E+00 0.  1.
</event>
<event>
12    1  0.8344842E-002  0.1908946E+03  0.7818608E-02  0.1157786E+00
         21   -1    0    0  503  502  0.00000000000E+00  0.00000000000E+00  0.28025827618E+03  0.28025827618E+03  0.00000000000E+00 0. -1.
         21   -1    0    0  501  503 -0.00000000000E+00 -0.00000000000E+00 -0.17433587807E+03  0.17433587807E+03  0.00000000000E+00 0. -1.
          6    2    1    2  501    0 -0.80126149817E+02 -0.18899664856E+02 -0.62193839921E+02  0.20022467151E+03  0.17159384646E+03 0.  0.
         24    2    3    3    0    0  0.68198359924E+01 -0.63721917249E+00 -0.76281416601E+02  0.11014875249E+03  0.79164240324E+02 0.  0.
         -6    2    1    2    0  502  0.80126149817E+02  0.18899664856E+02  0.16811623803E+03  0.25436948274E+03  0.17223056362E+03 0.  0.
        -24    2    5    5    0    0  0.11964285277E+03 -0.31577082254E+01  0.14413307234E+03  0.20293622739E+03  0.78002477567E+02 0.  0.
          5    1    3    3  501    0 -0.86945985810E+02 -0.18262445683E+02  0.14087576679E+02  0.90075919021E+02  0.47000000000E+01 0. -1.
        -13    1    4    4    0    0  0.31481560534E+02 -0.25237962713E+02 -0.22862940319E+02  0.46376259612E+02  0.00000000000E+00 0.  1.
         14    1    4    4    0    0 -0.24661724542E+02  0.24600743541E+02 -0.53418476281E+02  0.63772492882E+02  0.00000000000E+00 0. -1.
         -5    1    5    5    0  502 -0.39516702951E+02  0.22057373081E+02  0.23983165692E+02  0.51433255351E+02  0.47000000000E+01 0.  1.
         11    1    6    6    0    0  0.93638227937E+02  0.28644297016E+02  0.78480168759E+02  0.12549004092E+03  0.00000000000E+00 0. -1.
        -12    1    6    6    0    0  0.26004624831E+02 -0.31802005241E+02  0.65652903577E+02  0.77446186466E+02  0.00000000000E+00 0.  1.
</event>
<event>
12    1  0.8344842E-002  0.1769640E+03  0.7818608E-02  0.1171220E+00
         21   -1    0    0  501  502  0.00000000000E+00  0.00000000000E+00  0.19484601944E+03  0.19484601944E+03  0.00000000000E+00 0.  1.
         21   -1    0    0  502  503 -0.00000000000E+00 -0.00000000000E+00 -0.15915166481E+03  0.15915166481E+03  0.00000000000E+00 0.  1.
         -6    2    1    2    0  503 -0.39190498636E+02  0.14133254082E+02  0.14712305723E+02  0.17757448443E+03  0.17199012043E+03 0.  0.
        -24    2    3    3    0    0 -0.35489645561E+02  0.60835238647E+02  0.50117849782E+02  0.11866426268E+03  0.81295554420E+02 0.  0.
          6    2    1    2  501    0  0.39190498636E+02 -0.14133254082E+02  0.20982048900E+02  0.17642319982E+03  0.17014480599E+03 0.  0.
         24    2    5    5    0    0  0.80203424449E+02  0.26507158274E+02  0.51063182634E+01  0.11635796842E+03  0.79861652846E+02 0.  0.
          5    1    5    5  501    0 -0.41012925813E+02 -0.40640412356E+02  0.15875730637E+02  0.60065231403E+02  0.47000000000E+01 0. -1.
        -11    1    6    6    0    0  0.38758595543E+02  0.35362973819E+01  0.41287044930E+02  0.56739353245E+02  0.00000000000E+00 0.  1.
         12    1    6    6    0    0  0.41444828906E+02  0.22970860892E+02 -0.36180726666E+02  0.59618615174E+02  0.00000000000E+00 0. -1.
         -5    1    3    3    0  503 -0.37008530749E+01 -0.46701984565E+02 -0.35405544059E+02  0.58910221744E+02  0.47000000000E+01 0.  1.
         13    1    4    4    0    0 -0.41395400452E+02  0.52655077877E+01  0.46772558198E+02  0.62681551921E+02  0.00000000000E+00 0. -1.
        -14    1    4    4    0    0  0.59057548909E+01  0.55569730860E+02  0.33452915836E+01  0.55982710764E+02  0.00000000000E+00 0.  1.
</event>
<event>
12    1  0.8344842E-002  0.2505309E+03  0.7818608E-02  0.1113309E+00
         21   -1    0    0  501  502  0.00000000000E+00  0.00000000000E+00  0.73583867387E+02  0.73583867387E+02  0.00000000000E+00 0.  1.
         21   -1    0    0  502  503 -0.00000000000E+00 -0.00000000000E+00 -0.84622868342E+03  0.84622868342E+03  0.00000000000E+00 0.  1.
         -6    2    1    2    0  503  0.58691283525E+02 -0.17084868565E+03 -0.39617891140E+03  0.46760430307E+03  0.17047613987E+03 0.  0.
        -24    2    3    3    0    0  0.34574081622E+02 -0.10246746388E+03 -0.11299991440E+03  0.17525166454E+03  0.79051989181E+02 0.  0.
          6    2    1    2  501    0 -0.58691283525E+02  0.17084868565E+03 -0.37646590464E+03  0.45220824774E+03  0.17358508524E+03 0.  0.
         24    2    5    5    0    0 -0.10414637982E+03  0.15133315811E+03 -0.28961754944E+03  0.35214952301E+03  0.79892230127E+02 0.  0.
          5    1    5    5  501    0  0.45455096299E+02  0.19515527535E+02 -0.86848355197E+02  0.10005872473E+03  0.47000000000E+01 0. -1.
        -13    1    6    6    0    0 -0.55583778975E+02  0.11676131916E+03 -0.24721767717E+03  0.27899702873E+03  0.00000000000E+00 0.  1.
         14    1    6    6    0    0 -0.48562600850E+02  0.34571838948E+02 -0.42399872274E+02  0.73152494274E+02  0.00000000000E+00 0. -1.
         -5    1    3    3    0  503  0.24117201903E+02 -0.68381221763E+02 -0.28317899700E+03  0.29235263853E+03  0.47000000000E+01 0.  1.
         11    1    4    4    0    0 -0.24183056598E+02 -0.47800313277E+02 -0.49054074854E+02  0.72636027118E+02  0.00000000000E+00 0. -1.
        -12    1    4    4    0    0  0.58757138220E+02 -0.54667150608E+02 -0.63945839546E+02  0.10261563742E+03  0.00000000000E+00 0.  1.
</event>
<event>
12    1  0.8344842E-002  0.2197100E+03  0.7818608E-02  0.1134103E+00
         21   -1    0    0  501  502  0.00000000000E+00  0.00000000000E+00  0.17793970263E+03  0.17793970263E+03  0.00000000000E+00 0. -1.
         21   -1    0    0  502  503 -0.00000000000E+00 -0.00000000000E+00 -0.29773772001E+03  0.29773772001E+03  0.00000000000E+00 0. -1.
         -6    2    1    2    0  503  0.94367178678E+02 -0.98545943517E+02  0.11022305703E+02  0.21998627583E+03  0.17220918366E+03 0.  0.
        -24    2    3    3    0    0  0.40111944796E+02 -0.91420105837E+02 -0.51246954418E+02  0.13695640938E+03  0.78512444030E+02 0.  0.
          6    2    1    2  501    0 -0.94367178678E+02  0.98545943517E+02 -0.13082032308E+03  0.25569114681E+03  0.17218460509E+03 0.  0.
         24    2    5    5    0    0 -0.98609658200E+02  0.37754331881E+02 -0.14140095168E+03  0.19366165076E+03  0.79758081560E+02 0.  0.
          5    1    5    5  501    0  0.42424795227E+01  0.60791611636E+02  0.10580628599E+02  0.62029496043E+02  0.47000000000E+01 0. -1.
        -13    1    6    6    0    0 -0.32692929190E+02 -0.10766301290E+02 -0.91597573216E+02  0.97851194584E+02  0.00000000000E+00 0.  1.
         14    1    6    6    0    0 -0.65916729011E+02  0.48520633171E+02 -0.49803378464E+02  0.95810456179E+02  0.00000000000E+00 0. -1.
         -5    1    3    3    0  503  0.54255233881E+02 -0.71258376798E+01  0.62269260120E+02  0.83029866446E+02  0.47000000000E+01 0.  1.
         13    1    4    4    0    0  0.13269733309E+02 -0.85269001648E+02 -0.93235832420E+01  0.86797567182E+02  0.00000000000E+00 0. -1.
        -14    1    4    4    0    0  0.26842211487E+02 -0.61511041888E+01 -0.41923371176E+02  0.50158842202E+02  0.00000000000E+00 0.  1.
</event>
<event>
12    1  0.8344842E-002  0.1859862E+03  0.7818608E-02  0.1162323E+00
         21   -1    0    0  501  502  0.00000000000E+00  0.00000000000E+00  0.68611215425E+02  0.68611215425E+02  0.00000000000E+00 0.  1.
         21   -1    0    0  502  503 -0.00000000000E+00 -0.00000000000E+00 -0.13006869831E+04  0.13006869831E+04  0.00000000000E+00 0. -1.
         -6    2    1    2    0  503 -0.65338015380E+02  0.21643264121E+02 -0.11520334310E+04  0.11668194501E+04  0.17189856308E+03 0.  0.
        -24    2    3    3    0    0  0.24512677715E+02  0.28228745463E+02 -0.65407272966E+03  0.66075278884E+03  0.85938226887E+02 0.  0.
          6    2    1    2  501    0  0.65338015380E+02 -0.21643264121E+02 -0.80042336729E+02  0.20247874842E+03  0.17278130905E+03 0.  0.
         24    2    5    5    0    0 -0.37703120577E+02  0.34136852528E+01 -0.50772184801E+01  0.72528044825E+02  0.61655174887E+02 0.  0.
          5    1    5    5  501    0  0.10304113596E+03 -0.25056949373E+02 -0.74965118249E+02  0.12995070360E+03  0.47000000000E+01 0. -1.
        -13    1    6    6    0    0  0.98986106670E+01 -0.13118604657E+02  0.10835061843E+02  0.19684482377E+02  0.00000000000E+00 0.  1.
         14    1    6    6    0    0 -0.47601731244E+02  0.16532289910E+02 -0.15912280323E+02  0.52843562448E+02  0.00000000000E+00 0. -1.
         -5    1    3    3    0  503 -0.89850693095E+02 -0.65854813423E+01 -0.49796070130E+03  0.50606666127E+03  0.47000000000E+01 0.  1.
         13    1    4    4    0    0  0.27186531313E+02 -0.26150799259E+02 -0.32853696968E+03  0.33069549776E+03  0.00000000000E+00 0. -1.
        -14    1    4    4    0    0 -0.26738535980E+01  0.54379544721E+02 -0.32553575998E+03  0.33005729109E+03  0.00000000000E+00 0.  1.
</event>
<event>
12    1  0.8344842E-002  0.1873782E+03  0.7818608E-02  0.1162334E+00
         21   -1    0    0  503  502  0.00000000000E+00  0.00000000000E+00  0.31838980780E+02  0.31838980780E+02  0.00000000000E+00 0.  1.
         21   -1    0    0  501  503 -0.00000000000E+00 -0.00000000000E+00 -0.11970280659E+04  0.11970280659E+04  0.00000000000E+00 0.  1.
          6    2    1    2  501    0  0.23611647806E+02 -0.44334689494E+02 -0.77716475886E+03  0.79796860456E+03  0.17391307266E+03 0.  0.
         24    2    3    3    0    0 -0.53967243921E+02 -0.20856810565E+02 -0.40985484542E+03  0.42179263809E+03  0.81120683337E+02 0.  0.
         -6    2    1    2    0  502 -0.23611647806E+02  0.44334689494E+02 -0.38802432625E+03  0.43089844211E+03  0.18052012366E+03 0.  0.
        -24    2    5    5    0    0 -0.80684215111E+02  0.43781638227E+02 -0.19842350989E+03  0.23283748339E+03  0.80091385186E+02 0.  0.
          5    1    3    3  501    0  0.77578891727E+02 -0.23477878928E+02 -0.36730991344E+03  0.37617596647E+03  0.47000000000E+01 0. -1.
        -13    1    4    4    0    0 -0.15115370491E+02 -0.92092002180E+01 -0.34396074200E+03  0.34441584724E+03  0.00000000000E+00 0.  1.
         14    1    4    4    0    0 -0.38851873430E+02 -0.11647610347E+02 -0.65894103424E+02  0.77376790847E+02  0.00000000000E+00 0. -1.
         -5    1    5    5    0  502  0.57072567305E+02  0.55305126630E+00 -0.18960081636E+03  0.19806095872E+03  0.47000000000E+01 0.  1.
         11    1    6    6    0    0 -0.44732327711E+02 -0.87742231207E+01 -0.13691942391E+03  0.14430833925E+03  0.00000000000E+00 0. -1.
        -12    1    6    6    0    0 -0.35951887399E+02  0.52555861348E+02 -0.61504085974E+02  0.88529144134E+02  0.00000000000E+00 0.  1.
</event>
<event>
12    1  0.8344842E-002  0.1750648E+03  0.7818608E-02  0.1173356E+00
         21   -1    0    0  503  502  0.00000000000E+00  0.00000000000E+00  0.12297124551E+04  0.12297124551E+04  0.00000000000E+00 0. -1.
         21   -1    0    0  501  503 -0.00000000000E+00 -0.00000000000E+00 -0.27191376921E+02  0.27191376921E+02  0.00000000000E+00 0. -1.
          6    2    1    2  501    0 -0.13185920643E+02 -0.18414658489E+02  0.80187766154E+03  0.82076516864E+03  0.17359351893E+03 0.  0.
         24    2    3    3    0    0 -0.34861089218E+02 -0.55380504642E+02  0.30129853690E+03  0.31833324614E+03  0.79201966040E+02 0.  0.
         -6    2    1    2    0  502  0.13185920643E+02  0.18414658489E+02  0.40064341661E+03  0.43613866336E+03  0.17084735366E+03 0.  0.
        -24    2    5    5    0    0  0.68879427276E+02  0.38309340688E+02  0.27358296791E+03  0.29591023298E+03  0.80642696939E+02 0.  0.
          5    1    3    3  501    0  0.21675168575E+02  0.36965846153E+02  0.50057912464E+03  0.50243192250E+03  0.47000000000E+01 0. -1.
        -11    1    4    4    0    0  0.80118244534E+01 -0.55066810521E+02  0.21339808651E+03  0.22053409323E+03  0.00000000000E+00 0.  1.
         12    1    4    4    0    0 -0.42872913672E+02 -0.31369412085E+00  0.87900450388E+02  0.97799152906E+02  0.00000000000E+00 0. -1.
         -5    1    5    5    0  502 -0.55693506633E+02 -0.19894682199E+02  0.12706044870E+03  0.14022843038E+03  0.47000000000E+01 0.  1.
         13    1    6    6    0    0  0.50334281683E+02  0.55864287014E+02  0.13090573436E+03  0.15096579005E+03  0.00000000000E+00 0. -1.
        -14    1    6    6    0    0  0.18545145594E+02 -0.17554946326E+02  0.14267723355E+03  0.14494444294E+03  0.00000000000E+00 0.  1.
</event>
<event>
12    1  0.8344842E-002  0.1906349E+03  0.7818608E-02  0.1158008E+00
         21   -1    0    0  503  502  0.00000000000E+00  0.00000000000E+00  0.73461363578E+03  0.73461363578E+03  0.00000000000E+00 0. -1.
         21   -1    0    0  501  503 -0.00000000000E+00 -0.00000000000E+00 -0.57072211398E+02  0.57072211398E+02  0.00000000000E+00 0. -1.
          6    2    1    2  501    0  0.67318469570E+02  0.43974341133E+02  0.19342053867E+03  0.27157538112E+03  0.17284722685E+03 0.  0.
         24    2    3    3    0    0  0.21135420138E+02  0.29039507815E+02  0.20490615140E+03  0.22147615357E+03  0.75994451916E+02 0.  0.
         -6    2    1    2    0  502 -0.67318469570E+02 -0.43974341133E+02  0.48412088571E+03  0.52011046605E+03  0.17226823821E+03 0.  0.
        -24    2    5    5    0    0 -0.16861099206E+02 -0.41952503475E+02  0.11837705640E+03  0.15086708733E+03  0.81874546374E+02 0.  0.
          5    1    3    3  501    0  0.46183049433E+02  0.14934833318E+02 -0.11485612730E+02  0.50099227548E+02  0.47000000000E+01 0. -1.
        -13    1    4    4    0    0  0.15976171715E+02 -0.24176219757E+02  0.93820193520E+02  0.98193464021E+02  0.00000000000E+00 0.  1.
         14    1    4    4    0    0  0.51592484223E+01  0.53215727572E+02  0.11108595788E+03  0.12328268955E+03  0.00000000000E+00 0. -1.
         -5    1    5    5    0  502 -0.50457370364E+02 -0.20218376582E+01  0.36574382931E+03  0.36924337872E+03  0.47000000000E+01 0.  1.
         13    1    6    6    0    0 -0.15777586812E+02 -0.60143155274E+02  0.11711893501E+03  0.13260081565E+03  0.00000000000E+00 0. -1.
        -14    1    6    6    0    0 -0.10835123933E+01  0.18190651799E+02  0.12581213926E+01  0.18266271689E+02  0.00000000000E+00 0.  1.
</event>
<event>
12    1  0.8344842E-002  0.2061514E+03  0.7818608E-02  0.1144854E+00
         21   -1    0    0  503  502  0.00000000000E+00  0.00000000000E+00  0.29437640810E+03  0.29437640810E+03  0.00000000000E+00 0. -1.
         21   -1    0    0  501  503 -0.00000000000E+00 -0.00000000000E+00 -0.15229074586E+03  0.15229074586E+03  0.00000000000E+00 0. -1.
          6    2    1    2  501    0  0.87538106660E+00 -0.11208395104E+03  0.12435282597E+03  0.24075307153E+03  0.17301687129E+03 0.  0.
         24    2    3    3    0    0 -0.64481346748E+02 -0.88181342820E+02  0.89470005047E+02  0.16276757450E+03  0.80960534872E+02 0.  0.
         -6    2    1    2    0  502 -0.87538106660E+00  0.11208395104E+03  0.17732836261E+02  0.20591408243E+03  0.17182135341E+03 0.  0.
        -24    2    5    5    0    0 -0.63988705594E+02  0.69458258304E+02  0.36265999099E+02  0.12739141348E+03  0.77423158342E+02 0.  0.
          5    1    3    3  501    0  0.65356727814E+02 -0.23902608218E+02  0.34882820927E+02  0.77985497024E+02  0.47000000000E+01 0. -1.
        -13    1    4    4    0    0  0.19113802795E+02 -0.14568625169E+02  0.10495753528E+02  0.26224857268E+02  0.00000000000E+00 0.  1.
         14    1    4    4    0    0 -0.83595149543E+02 -0.73612717651E+02  0.78974251519E+02  0.13654271724E+03  0.00000000000E+00 0. -1.
         -5    1    5    5    0  502  0.63113324527E+02  0.42625692734E+02 -0.18533162839E+02  0.78522668948E+02  0.47000000000E+01 0.  1.
         11    1    6    6    0    0 -0.30778382880E+02  0.81000198899E+02  0.21641751279E+02  0.89312409399E+02  0.00000000000E+00 0. -1.
        -12    1    6    6    0    0 -0.33210322714E+02 -0.11541940595E+02  0.14624247821E+02  0.38079004081E+02  0.00000000000E+00 0.  1.
</event>
<event>
12    1  0.8344842E-002  0.2341479E+03  0.7818608E-02  0.1125917E+00
         21   -1    0    0  501  502  0.00000000000E+00  0.00000000000E+00  0.74395319853E+02  0.74395319853E+02  0.00000000000E+00 0.  1.
         21   -1    0    0  502  503 -0.00000000000E+00 -0.00000000000E+00 -0.10003338492E+04  0.10003338492E+04  0.00000000000E+00 0.  1.
         -6    2    1    2    0  503  0.12018956228E+03  0.67976851990E+02 -0.76650662242E+03  0.80147217466E+03  0.18910013551E+03 0.  0.
        -24    2    3    3    0    0  0.14926293299E+03  0.56897338538E+02 -0.73739900684E+03  0.75860773966E+03  0.78814193433E+02 0.  0.
          6    2    1    2  501    0 -0.12018956228E+03 -0.67976851990E+02 -0.15943190694E+03  0.27325699441E+03  0.17373678008E+03 0.  0.
         24    2    5    5    0    0 -0.11233336203E+03 -0.10094966072E+03 -0.84211903060E+02  0.19061883747E+03  0.80213953629E+02 0.  0.
          5    1    5    5  501    0 -0.78562002538E+01  0.32972808732E+02 -0.75220003880E+02  0.82638156936E+02  0.47000000000E+01 0. -1.
        -13    1    6    6    0    0 -0.10397827039E+03 -0.68852478604E+02 -0.93853664746E+02  0.15607900214E+03  0.00000000000E+00 0.  1.
         14    1    6    6    0    0 -0.83550916415E+01 -0.32097182118E+02  0.96417616857E+01  0.34539835330E+02  0.00000000000E+00 0. -1.
         -5    1    3    3    0  503 -0.29073370710E+02  0.11079513452E+02 -0.29107615575E+02  0.42864434993E+02  0.47000000000E+01 0.  1.
         11    1    4    4    0    0 -0.41923793050E+01 -0.17272508312E+01 -0.17819686057E+01  0.48718427502E+01  0.00000000000E+00 0. -1.
        -12    1    4    4    0    0  0.15345531230E+03  0.58624589369E+02 -0.73561703824E+03  0.75373589691E+03  0.00000000000E+00 0.  1.
</event>
<event>
12    1  0.8344842E-002  0.2299036E+03  0.7818608E-02  0.1126853E+00
         21   -1    0    0  501  502  0.00000000000E+00  0.00000000000E+00  0.69517591578E+03  0.69517591578E+03  0.00000000000E+00 0. -1.
         21   -1    0    0  502  503 -0.00000000000E+00 -0.00000000000E+00 -0.92137316050E+02  0.92137316050E+02  0.00000000000E+00 0.  1.
         -6    2    1    2    0  503  0.15082193993E+03 -0.17046212809E+02  0.13510813554E+03  0.26595480807E+03  0.17158065366E+03 0.  0.
        -24    2    3    3    0    0  0.67917123510E+02 -0.67867581654E+02  0.10670074758E+03  0.16453937627E+03  0.80432658180E+02 0.  0.
          6    2    1    2  501    0 -0.15082193993E+03  0.17046212809E+02  0.46793046419E+03  0.52135842377E+03  0.17267847515E+03 0.  0.
         24    2    5    5    0    0 -0.13310037626E+03  0.71921925351E+02  0.32033996655E+03  0.36283258158E+03  0.78366539942E+02 0.  0.
          5    1    5    5  501    0 -0.17721563660E+02 -0.54875712542E+02  0.14759049764E+03  0.15852584218E+03  0.47000000000E+01 0. -1.
        -13    1    6    6    0    0 -0.79024152819E+02 -0.16462701581E+01  0.14495199865E+03  0.16510181358E+03  0.00000000000E+00 0.  1.
         14    1    6    6    0    0 -0.54076223446E+02  0.73568195509E+02  0.17538796789E+03  0.19773076800E+03  0.00000000000E+00 0. -1.
         -5    1    3    3    0  503  0.82904816415E+02  0.50821368846E+02  0.28407387959E+02  0.10141543180E+03  0.47000000000E+01 0.  1.
         13    1    4    4    0    0  0.57235767756E+02 -0.62445072488E+01  0.28024959028E+02  0.64033782568E+02  0.00000000000E+00 0. -1.
        -14    1    4    4    0    0  0.10681355753E+02 -0.61623074406E+02  0.78675788555E+02  0.10050559370E+03  0.00000000000E+00 0.  1.
</event>
<event>
12    1  0.8344842E-002  0.1789992E+03  0.7818608E-02  0.1168912E+00
         21   -1    0    0  503  502  0.00000000000E+00  0.00000000000E+00  0.13588556494E+03  0.13588556494E+03  0.00000000000E+00 0. -1.
         21   -1    0    0  501  503 -0.00000000000E+00 -0.00000000000E+00 -0.44468351422E+03  0.44468351422E+03  0.00000000000E+00 0. -1.
          6    2    1    2  501    0  0.42471262546E+02  0.22185469330E+02 -0.35357818019E+03  0.39605351081E+03  0.17188615630E+03 0.  0.
         24    2    3    3    0    0 -0.39332673897E+02  0.32258086552E+01 -0.13119079974E+03  0.15829399001E+03  0.79300039462E+02 0.  0.
         -6    2    1    2    0  502 -0.42471262546E+02 -0.22185469330E+02  0.44780230914E+02  0.18451556835E+03  0.17246658428E+03 0.  0.
        -24    2    5    5    0    0  0.22395454949E+02 -0.59007547696E+02  0.41469725308E+02  0.10970510156E+03  0.79574016515E+02 0.  0.
          5    1    3    3  501    0  0.81803936444E+02  0.18959660675E+02 -0.22238738044E+03  0.23775952080E+03  0.47000000000E+01 0. -1.
        -13    1    4    4    0    0  0.69705829491E+01  0.20783282523E+02 -0.46502948836E+01  0.22408906747E+02  0.00000000000E+00 0.  1.
         14    1    4    4    0    0 -0.46303256846E+02 -0.17557473868E+02 -0.12654050486E+03  0.13588508326E+03  0.00000000000E+00 0. -1.
         -5    1    5    5    0  502 -0.64866717495E+02  0.36822078366E+02  0.33105056062E+01  0.74810466789E+02  0.47000000000E+01 0.  1.
         13    1    6    6    0    0  0.35526180052E+02  0.41371588122E+01  0.23346554922E+02  0.42711674971E+02  0.00000000000E+00 0. -1.
        -14    1    6    6    0    0 -0.13130725103E+02 -0.63144706509E+02  0.18123170386E+02  0.66993426593E+02  0.00000000000E+00 0.  1.
</event>
<event>
12    1  0.8344842E-002  0.4065126E+03  0.7818608E-02  0.1042190E+00
         21   -1    0    0  503  502  0.00000000000E+00  0.00000000000E+00  0.35631082831E+03  0.35631082831E+03  0.00000000000E+00 0. -1.
         21   -1    0    0  501  503 -0.00000000000E+00 -0.00000000000E+00 -0.47856362374E+03  0.47856362374E+03  0.00000000000E+00 0.  1.
          6    2    1    2  501    0 -0.17802910124E+03  0.32185370733E+03 -0.15267527938E+03  0.42722510793E+03  0.15468478304E+03 0.  0.
         24    2    3    3    0    0 -0.12748375838E+03  0.18744216695E+03 -0.36098303222E+02  0.24220193305E+03  0.77278808718E+02 0.  0.
         -6    2    1    2    0  502  0.17802910124E+03 -0.32185370733E+03  0.30422483946E+02  0.40764934412E+03  0.17311351891E+03 0.  0.
        -24    2    5    5    0    0  0.13048623110E+03 -0.12969076433E+03  0.57037579375E+02  0.20785601474E+03  0.78131213626E+02 0.  0.
          5    1    3    3  501    0 -0.50545342853E+02  0.13441154038E+03 -0.11657697615E+03  0.18502317488E+03  0.47000000000E+01 0. -1.
        -11    1    4    4    0    0 -0.34548888312E+02  0.17131370895E+02 -0.28651643466E+02  0.48041921544E+02  0.00000000000E+00 0.  1.
         12    1    4    4    0    0 -0.92934870073E+02  0.17031079605E+03 -0.74466597558E+01  0.19416001151E+03  0.00000000000E+00 0. -1.
         -5    1    5    5    0  502  0.47542870135E+02 -0.19216294300E+03 -0.26615095429E+02  0.19979332938E+03  0.47000000000E+01 0.  1.
         13    1    6    6    0    0  0.40389202676E+02 -0.61482312055E+02  0.59825183723E+02  0.94817798941E+02  0.00000000000E+00 0. -1.
        -14    1    6    6    0    0  0.90097028426E+02 -0.68208452275E+02 -0.27876043484E+01  0.11303821580E+03  0.00000000000E+00 0.  1.
</event>
<event>
12    1  0.8344842E-002  0.2026928E+03  0.7818608E-02  0.1147538E+00
         21   -1    0    0  501  502  0.00000000000E+00  0.00000000000E+00  0.19576210641E+03  0.19576210641E+03  0.00000000000E+00 0. -1.
         21   -1    0    0  502  503 -0.00000000000E+00 -0.00000000000E+00 -0.22618762076E+03  0.22618762076E+03  0.00000000000E+00 0. -1.
         -6    2    1    2    0  503  0.10450909946E+03 -0.22354206824E+02 -0.72332694927E+02  0.21521241412E+03  0.17222805231E+03 0.  0.
        -24    2    3    3    0    0  0.18434546217E+02  0.45713601661E+02 -0.39626662227E+02  0.10060949163E+03  0.78245968433E+02 0.  0.
          6    2    1    2  501    0 -0.10450909946E+03  0.22354206824E+02  0.41907180571E+02  0.20673731305E+03  0.17193673950E+03 0.  0.
         24    2    5    5    0    0 -0.11631449580E+03  0.29471159779E+02 -0.16940400387E+02  0.14611432907E+03  0.81638280249E+02 0.  0.
          5    1    5    5  501    0  0.11805396338E+02 -0.71169529556E+01  0.58847580958E+02  0.60622983980E+02  0.47000000000E+01 0. -1.
        -11    1    6    6    0    0 -0.21479900735E+02  0.39671685068E+02 -0.22810177094E+02  0.50552278987E+02  0.00000000000E+00 0.  1.
         12    1    6    6    0    0 -0.94834595067E+02 -0.10200525288E+02  0.58697767066E+01  0.95562050084E+02  0.00000000000E+00 0. -1.
         -5    1    3    3    0  503  0.86074553248E+02 -0.68067808484E+02 -0.32706032700E+02  0.11460292249E+03  0.47000000000E+01 0.  1.
         11    1    4    4    0    0  0.42829932777E+02  0.42629226028E+01 -0.10230084422E+02  0.44240595363E+02  0.00000000000E+00 0. -1.
        -12    1    4    4    0    0 -0.24395386560E+02  0.41450679058E+02 -0.29396577805E+02  0.56368896268E+02  0.00000000000E+00 0.  1.
</event>
<event>
12    1  0.8344842E-002  0.2026504E+03  0.7818608E-02  0.1148156E+00
         21   -1    0    0  501  502  0.00000000000E+00  0.00000000000E+00  0.75765689005E+03  0.75765689005E+03  0.00000000000E+00 0.  1.
         21   -1    0    0  502  503 -0.00000000000E+00 -0.00000000000E+00 -0.68803018741E+02  0.68803018741E+02  0.00000000000E+00 0.  1.
         -6    2    1    2    0  503 -0.24169039050E+02  0.98354835315E+02  0.15089155206E+03  0.25265676712E+03  0.17552596791E+03 0.  0.
        -24    2    3    3    0    0 -0.92049527918E+01  0.13808911692E+03  0.11112055773E+03  0.19429103230E+03  0.79043605131E+02 0.  0.
          6    2    1    2  501    0  0.24169039050E+02 -0.98354835315E+02  0.53796231925E+03  0.57380314167E+03  0.17201387264E+03 0.  0.
         24    2    5    5    0    0  0.44177547924E+02 -0.11870221911E+03  0.31715834106E+03  0.35111312565E+03  0.81542265927E+02 0.  0.
          5    1    5    5  501    0 -0.20008508874E+02  0.20347383793E+02  0.22080397818E+03  0.22269001602E+03  0.47000000000E+01 0. -1.
        -11    1    6    6    0    0  0.37491198596E+02 -0.77382363063E+02  0.10923088239E+03  0.13901440844E+03  0.00000000000E+00 0.  1.
         12    1    6    6    0    0  0.66863493277E+01 -0.41319856046E+02  0.20792745868E+03  0.21209871721E+03  0.00000000000E+00 0. -1.
         -5    1    3    3    0  503 -0.14964086259E+02 -0.39734281604E+02  0.39770994330E+02  0.58365734829E+02  0.47000000000E+01 0.  1.
         13    1    4    4    0    0 -0.80324551337E+01  0.37568635997E+02 -0.71418064420E+01  0.39075927953E+02  0.00000000000E+00 0. -1.
        -14    1    4    4    0    0 -0.11724976582E+01  0.10052048092E+03  0.11826236418E+03  0.15521510434E+03  0.00000000000E+00 0.  1.
</event>
<event>
12    1  0.8344842E-002  0.1924298E+03  0.7818608E-02  0.1157629E+00
         21   -1    0    0  503  502  0.00000000000E+00  0.00000000000E+00  0.30191032546E+03  0.30191032546E+03  0.00000000000E+00 0.  1.
         21   -1    0    0  501  503 -0.00000000000E+00 -0.00000000000E+00 -0.30335924929E+03  0.30335924929E+03  0.00000000000E+00 0.  1.
          6    2    1    2  501    0  0.12427076817E+02 -0.70206998094E+02 -0.23670303644E+03  0.30133913664E+03  0.17231799961E+03 0.  0.
         24    2    3    3    0    0  0.71004590525E+02 -0.34401623922E+02 -0.12017068919E+03  0.16600537187E+03  0.83016054732E+02 0.  0.
         -6    2    1    2    0  502 -0.12427076817E+02  0.70206998094E+02  0.23525411261E+03  0.30393043811E+03  0.17873376539E+03 0.  0.
        -24    2    5    5    0    0 -0.66720923649E+02  0.85504969522E+02  0.16085147552E+03  0.21044411751E+03  0.81552118009E+02 0.  0.
          5    1    3    3  501    0 -0.58577513708E+02 -0.35805374172E+02 -0.11653234725E+03  0.13533376477E+03  0.47000000000E+01 0. -1.
        -13    1    4    4    0    0  0.41581558975E+02 -0.52145303032E+02 -0.11252573923E+03  0.13080596571E+03  0.00000000000E+00 0.  1.
         14    1    4    4    0    0  0.29423031550E+02  0.17743679110E+02 -0.76449499597E+01  0.35199406158E+02  0.00000000000E+00 0. -1.
         -5    1    5    5    0  502  0.54293846832E+02 -0.15297971429E+02  0.74402637096E+02  0.93486320606E+02  0.47000000000E+01 0.  1.
         13    1    6    6    0    0 -0.11120583773E+02 -0.15526276683E+02  0.13772917505E+02  0.23546250396E+02  0.00000000000E+00 0. -1.
        -14    1    6    6    0    0 -0.55600339876E+02  0.10103124621E+03  0.14707855801E+03  0.18689786711E+03  0.00000000000E+00 0.  1.
</event>
<event>
12    1  0.8344842E-002  0.1955960E+03  0.7818608E-02  0.1153931E+00
         21   -1    0    0  501  502  0.00000000000E+00  0.00000000000E+00  0.98713427879E+02  0.98713427879E+02  0.00000000000E+00 0. -1.
         21   -1    0    0  502  503 -0.00000000000E+00 -0.00000000000E+00 -0.38438279092E+03  0.38438279092E+03  0.00000000000E+00 0. -1.
         -6    2    1    2    0  503 -0.73311482353E+02 -0.48451364393E+02 -0.13228182008E+03  0.23452924875E+03  0.17257862103E+03 0.  0.
        -24    2    3    3    0    0 -0.90262113646E+02 -0.66546757981E+02 -0.45386033260E+02  0.14404314518E+03  0.78184496556E+02 0.  0.
          6    2    1    2  501    0  0.73311482353E+02  0.48451364393E+02 -0.15338754296E+03  0.24856697005E+03  0.17474464830E+03 0.  0.
         24    2    5    5    0    0  0.68474887251E+02 -0.21147350314E+02 -0.14200650701E+03  0.17772212747E+03  0.79267180783E+02 0.  0.
          5    1    5    5  501    0  0.48365951016E+01  0.69598714707E+02 -0.11381035944E+02  0.70844842580E+02  0.47000000000E+01 0. -1.
        -13    1    6    6    0    0  0.24236321797E+02 -0.47147219976E+02 -0.91347183886E+02  0.10561518664E+03  0.00000000000E+00 0.  1.
         14    1    6    6    0    0  0.44238565454E+02  0.25999869661E+02 -0.50659323127E+02  0.72106940828E+02  0.00000000000E+00 0. -1.
         -5    1    3    3    0  503  0.16950631293E+02  0.18095393589E+02 -0.86895786824E+02  0.90486103564E+02  0.47000000000E+01 0.  1.
         13    1    4    4    0    0 -0.95539494269E+02 -0.43044791309E+02 -0.15930018298E+02  0.10599252100E+03  0.00000000000E+00 0. -1.
        -14    1    4    4    0    0  0.52773806226E+01 -0.23501966672E+02 -0.29456014962E+02  0.38050624189E+02  0.00000000000E+00 0.  1.
</event>
<event>
12    1  0.8344842E-002  0.1739644E+03  0.7818608E-02  0.1174361E+00
         21   -1    0    0  501  502  0.00000000000E+00  0.00000000000E+00  0.13681567968E+03  0.13681567968E+03  0.00000000000E+00 0. -1.
         21   -1    0    0  502  503 -0.00000000000E+00 -0.00000000000E+00 -0.37720937103E+03  0.37720937103E+03  0.00000000000E+00 0. -1.
         -6    2    1    2    0  503  0.83007765531E+00  0.13382882824E+02 -0.28655417237E+03  0.33404060904E+03  0.17114334402E+03 0.  0.
        -24    2    3    3    0    0 -0.66318124104E+02  0.13655860053E+02 -0.17220611044E+03  0.20135102850E+03  0.79389647349E+02 0.  0.
          6    2    1    2  501    0 -0.83007765531E+00 -0.13382882824E+02  0.46160481023E+02  0.17998444168E+03  0.17344687560E+03 0.  0.
         24    2    5    5    0    0 -0.16627522414E+02 -0.12057805934E+02 -0.39265349797E+02  0.92973076553E+02  0.81733469788E+02 0.  0.
          5    1    5    5  501    0  0.15797444758E+02 -0.13250768904E+01  0.85425830821E+02  0.87011365126E+02  0.47000000000E+01 0. -1.
        -13    1    6    6    0    0  0.32806265528E+02 -0.90920906829E+01 -0.10141265571E+02  0.35521295560E+02  0.00000000000E+00 0.  1.
         14    1    6    6    0    0 -0.49433787942E+02 -0.29657152508E+01 -0.29124084227E+02  0.57451780993E+02  0.00000000000E+00 0. -1.
         -5    1    3    3    0  503  0.67148201760E+02 -0.27297722855E+00 -0.11434806193E+03  0.13268958054E+03  0.47000000000E+01 0.  1.
         11    1    4    4    0    0  0.45719170669E+01 -0.37039193513E+00 -0.96800045173E+02  0.96908659888E+02  0.00000000000E+00 0. -1.
        -12    1    4    4    0    0 -0.70890041171E+02  0.14026251988E+02 -0.75406065272E+02  0.10444236861E+03  0.00000000000E+00 0.  1.
</event>
<event>
12    1  0.8344842E-002  0.2153693E+03  0.7818608E-02  0.1137517E+00
         21   -1    0    0  501  502  0.00000000000E+00  0.00000000000E+00  0.65484709445E+02  0.65484709445E+02  0.00000000000E+00 0. -1.
         21   -1    0    0  502  503 -0.00000000000E+00 -0.00000000000E+00 -0.74392989416E+03  0.74392989416E+03  0.00000000000E+00 0. -1.
         -6    2    1    2    0  503  0.79889149059E+02 -0.10509318295E+03 -0.43005865187E+03  0.48065969105E+03  0.16928213526E+03 0.  0.
        -24    2    3    3    0    0  0.15881927388E+02 -0.11637752703E+03 -0.22734411279E+03  0.26772886849E+03  0.78723801881E+02 0.  0.
          6    2    1    2  501    0 -0.79889149059E+02  0.10509318295E+03 -0.24838653285E+03  0.32875491255E+03  0.17016776894E+03 0.  0.
         24    2    5    5    0    0 -0.42061460771E+02  0.32743552985E+01 -0.17740503605E+03  0.19891473944E+03  0.79464702016E+02 0.  0.
          5    1    5    5  501    0 -0.37827688288E+02  0.10181882765E+03 -0.70981496798E+02  0.12984017311E+03  0.47000000000E+01 0. -1.
        -11    1    6    6    0    0  0.96445128561E+01  0.63152458660E+01 -0.12394028657E+03  0.12447527302E+03  0.00000000000E+00 0.  1.
         12    1    6    6    0    0 -0.51705973627E+02 -0.30408905676E+01 -0.53464749482E+02  0.74439466423E+02  0.00000000000E+00 0. -1.
         -5    1    3    3    0  503  0.64007221671E+02  0.11284344084E+02 -0.20271453907E+03  0.21293082257E+03  0.47000000000E+01 0.  1.
         11    1    4    4    0    0  0.46380693277E+02 -0.66704529892E+02 -0.15326450847E+03  0.17346663245E+03  0.00000000000E+00 0. -1.
        -12    1    4    4    0    0 -0.30498765888E+02 -0.49672997142E+02 -0.74079604326E+02  0.94262236038E+02  0.00000000000E+00 0.  1.
</event>
<event>
12    1  0.8344842E-002  0.4486322E+03  0.7818608E-02  0.1028164E+00
         21   -1    0    0  501  502  0.00000000000E+00  0.00000000000E+00  0.10179427491E+04  0.10179427491E+04  0.00000000000E+00 0.  1.
         21   -1    0    0  502  503 -0.00000000000E+00 -0.00000000000E+00 -0.22081170236E+03  0.22081170236E+03  0.00000000000E+00 0. -1.
         -6    2    1    2    0  503  0.38502294455E+03  0.15303953179E+03  0.19760563736E+03  0.49022327438E+03  0.17206715175E+03 0.  0.
        -24    2    3    3    0    0  0.37996885288E+03  0.17390809524E+03  0.18066922369E+03  0.46247488901E+03  0.81371369816E+02 0.  0.
          6    2    1    2  501    0 -0.38502294455E+03 -0.15303953179E+03  0.59952540936E+03  0.74853117706E+03  0.17089306725E+03 0.  0.
         24    2    5    5    0    0 -0.26851815871E+03 -0.15676763361E+03  0.50400820544E+03  0.59775687516E+03  0.81307552852E+02 0.  0.
          5    1    5    5  501    0 -0.11650478584E+03  0.37281018167E+01  0.95517203927E+02  0.15077430190E+03  0.47000000000E+01 0. -1.
        -11    1    6    6    0    0 -0.13076897412E+03 -0.10483321950E+03  0.20766295104E+03  0.26686031878E+03  0.00000000000E+00 0.  1.
         12    1    6    6    0    0 -0.13774918459E+03 -0.51934414108E+02  0.29634525439E+03  0.33089655638E+03  0.00000000000E+00 0. -1.
         -5    1    3    3    0  503  0.50540916718E+01 -0.20868563449E+02  0.16936413665E+02  0.27748385374E+02  0.47000000000E+01 0.  1.
         13    1    4    4    0    0  0.36299616667E+03  0.15224803346E+03  0.14993022973E+03  0.42121817921E+03  0.00000000000E+00 0. -1.
        -14    1    4    4    0    0  0.16972686204E+02  0.21660061783E+02  0.30738993962E+02  0.41256709796E+02  0.00000000000E+00 0.  1.
</event>
<event>
12    1  0.8344842E-002  0.2428420E+03  0.7818608E-02  0.1118262E+00
         21   -1    0    0  501  502  0.00000000000E+00  0.00000000000E+00  0.93072257766E+03  0.93072257766E+03  0.00000000000E+00 0.  1.
         21   -1    0    0  502  503 -0.00000000000E+00 -0.00000000000E+00 -0.69146711293E+02  0.69146711293E+02  0.00000000000E+00 0. -1.
         -6    2    1    2    0  503  0.16983433862E+03  0.21462037092E+02  0.28117960281E+03  0.37152952006E+03  0.17224370418E+03 0.  0.
        -24    2    3    3    0    0  0.16980618293E+03  0.39906712654E+02  0.29270649419E+03  0.34927719267E+03  0.76751417579E+02 0.  0.
          6    2    1    2  501    0 -0.16983433862E+03 -0.21462037092E+02  0.58039626355E+03  0.62833976889E+03  0.16925342188E+03 0.  0.
         24    2    5    5    0    0 -0.13163799697E+03  0.28390265671E+02  0.51774223059E+03  0.53950379390E+03  0.69805134970E+02 0.  0.
          5    1    5    5  501    0 -0.38196341648E+02 -0.49852302763E+02  0.62654032964E+02  0.88835974991E+02  0.47000000000E+01 0. -1.
        -13    1    6    6    0    0 -0.45367460961E+02 -0.62296353208E+01  0.28882084150E+03  0.29242861240E+03  0.00000000000E+00 0.  1.
         14    1    6    6    0    0 -0.86270536007E+02  0.34619900992E+02  0.22892138909E+03  0.24707518150E+03  0.00000000000E+00 0. -1.
         -5    1    3    3    0  503  0.28155682155E-01 -0.18444675563E+02 -0.11526891379E+02  0.22252327389E+02  0.47000000000E+01 0.  1.
         13    1    4    4    0    0  0.72286113651E+02 -0.21215390808E+02  0.10918923226E+03  0.13265618521E+03  0.00000000000E+00 0. -1.
        -14    1    4    4    0    0  0.97520069283E+02  0.61122103463E+02  0.18351726194E+03  0.21662100746E+03  0.00000000000E+00 0.  1.
</event>
<event>
12    1  0.8344842E-002  0.1823610E+03  0.7818608E-02  0.1165983E+00
         21   -1    0    0  503  502  0.00000000000E+00  0.00000000000E+00  0.72758395437E+03  0.72758395437E+03  0.00000000000E+00 0. -1.
         21   -1    0    0  501  503 -0.00000000000E+00 -0.00000000000E+00 -0.51010599783E+02  0.51010599783E+02  0.00000000000E+00 0. -1.
          6    2    1    2  501    0  0.38727691578E+02 -0.47050312932E+02  0.46767135287E+03  0.50129399896E+03  0.16989883181E+03 0.  0.
         24    2    3    3    0    0  0.80838466536E+02  0.84953565461E+01  0.27407781714E+03  0.29548052553E+03  0.74719892704E+02 0.  0.
         -6    2    1    2    0  502 -0.38727691578E+02  0.47050312932E+02  0.20890200171E+03  0.27730055520E+03  0.17187782158E+03 0.  0.
        -24    2    5    5    0    0 -0.57992668322E+02  0.67187562531E+02  0.79482681021E+02  0.14483131832E+03  0.82348625039E+02 0.  0.
          5    1    3    3  501    0 -0.42110774958E+02 -0.55545669479E+02  0.19359353573E+03  0.20581347343E+03  0.47000000000E+01 0. -1.
        -11    1    4    4    0    0  0.13468382276E+02  0.32868161592E+02  0.59923506201E+02  0.69660174871E+02  0.00000000000E+00 0.  1.
         12    1    4    4    0    0  0.67370084260E+02 -0.24372805046E+02  0.21415431094E+03  0.22582035066E+03  0.00000000000E+00 0. -1.
         -5    1    5    5    0  502  0.19264976744E+02 -0.20137249599E+02  0.12941932069E+03  0.13246923688E+03  0.47000000000E+01 0.  1.
         11    1    6    6    0    0 -0.39646541768E+02  0.69121531019E+02  0.92622397857E+02  0.12218241653E+03  0.00000000000E+00 0. -1.
        -12    1    6    6    0    0 -0.18346126555E+02 -0.19339684876E+01 -0.13139716836E+02  0.22648901788E+02  0.00000000000E+00 0.  1.
</event>
<event>
12    1  0.8344842E-002  0.1731229E+03  0.7818608E-02  0.1175189E+00
         21   -1    0    0  501  502  0.00000000000E+00  0.00000000000E+00  0.53107394989E+03  0.53107394989E+03  0.00000000000E+00 0. -1.
         21   -1    0    0  502  503 -0.00000000000E+00 -0.00000000000E+00 -0.56159029014E+02  0.56159029014E+02  0.00000000000E+00 0. -1.
         -6    2    1    2    0  503 -0.31533854253E+01  0.21848511401E+02  0.26173190734E+03  0.31260860286E+03  0.16950883744E+03 0.  0.
        -24    2    3    3    0    0 -0.54059082095E+02  0.32649758174E+02  0.23086318436E+03  0.25192067207E+03  0.78599135208E+02 0.  0.
          6    2    1    2  501    0  0.31533854253E+01 -0.21848511401E+02  0.21318301354E+03  0.27462437605E+03  0.17170978239E+03 0.  0.
         24    2    5    5    0    0 -0.32759201948E+02 -0.20269641844E+02  0.39295177135E+02  0.96997586376E+02  0.79877388063E+02 0.  0.
          5    1    5    5  501    0  0.35912587373E+02 -0.15788695561E+01  0.17388783641E+03  0.17762678968E+03  0.47000000000E+01 0. -1.
        -13    1    6    6    0    0 -0.32834184636E+02 -0.37406871043E+02  0.54698906723E+02  0.73954905711E+02  0.00000000000E+00 0.  1.
         14    1    6    6    0    0  0.74982688530E-01  0.17137229198E+02 -0.15403729588E+02  0.23042680665E+02  0.00000000000E+00 0. -1.
         -5    1    3    3    0  503  0.50905696669E+02 -0.10801246773E+02  0.30868722979E+02  0.60687930790E+02  0.47000000000E+01 0.  1.
         11    1    4    4    0    0 -0.58771079763E+02 -0.26839230242E+01  0.97492623783E+02  0.11386858632E+03  0.00000000000E+00 0. -1.
        -12    1    4    4    0    0  0.47119976685E+01  0.35333681198E+02  0.13337056058E+03  0.13805208574E+03  0.00000000000E+00 0.  1.
</event>
<event>
12    1  0.8344842E-002  0.2005005E+03  0.7818608E-02  0.1149401E+00
         21   -1    0    0  503  502  0.00000000000E+00  0.00000000000E+00  0.24525415979E+03  0.24525415979E+03  0.00000000000E+00 0.  1.
         21   -1    0    0  501  503 -0.00000000000E+00 -0.00000000000E+00 -0.16471660426E+03  0.16471660426E+03  0.00000000000E+00 0.  1.
          6    2    1    2  501    0 -0.79236899922E+02  0.67402157307E+02  0.23336649705E+02  0.20185398844E+03  0.17140273134E+03 0.  0.
         24    2    3    3    0    0 -0.73030598153E+02  0.10270094480E+03 -0.13681434253E+02  0.15011472752E+03  0.80413291467E+02 0.  0.
         -6    2    1    2    0  502  0.79236899922E+02 -0.67402157307E+02  0.57200905826E+02  0.20811677561E+03  0.17093598669E+03 0.  0.
        -24    2    5    5    0    0  0.47127554830E+01 -0.87630038314E+02  0.15714091526E+02  0.12033146343E+03  0.80817663536E+02 0.  0.
          5    1    3    3  501    0 -0.62063017690E+01 -0.35298787496E+02  0.37018083959E+02  0.51739260918E+02  0.47000000000E+01 0. -1.
        -11    1    4    4    0    0 -0.65433385302E+02  0.23853362898E+02  0.47346730682E+00  0.69647218214E+02  0.00000000000E+00 0.  1.
         12    1    4    4    0    0 -0.75972128510E+01  0.78847581906E+02 -0.14154901560E+02  0.80467509305E+02  0.00000000000E+00 0. -1.
         -5    1    5    5    0  502  0.74524144439E+02  0.20227881006E+02  0.41486814299E+02  0.87785312183E+02  0.47000000000E+01 0.  1.
         13    1    6    6    0    0 -0.25680173078E+02 -0.56787262644E+02  0.36578948395E+02  0.72265371746E+02  0.00000000000E+00 0. -1.
        -14    1    6    6    0    0  0.30392928561E+02 -0.30842775670E+02 -0.20864856869E+02  0.48066091683E+02  0.00000000000E+00 0.  1.
</event>
<event>
12    1  0.8344842E-002  0.1837261E+03  0.7818608E-02  0.1165054E+00
         21   -1    0    0  503  502  0.00000000000E+00  0.00000000000E+00  0.27066386384E+03  0.27066386384E+03  0.00000000000E+00 0.  1.
         21   -1    0    0  501  503 -0.00000000000E+00 -0.00000000000E+00 -0.25992102576E+03  0.25992102576E+03  0.00000000000E+00 0.  1.
          6    2    1    2  501    0  0.59092021514E+02 -0.66368521285E+01 -0.18760713512E+03  0.26021848382E+03  0.17023897133E+03 0.  0.
         24    2    3    3    0    0  0.30248849799E+02 -0.47018650085E+02 -0.39505815129E+02  0.10395361526E+03  0.78229779033E+02 0.  0.
         -6    2    1    2    0  502 -0.59092021514E+02  0.66368521285E+01  0.19834997321E+03  0.27036640578E+03  0.17383718443E+03 0.  0.
        -24    2    5    5    0    0 -0.89561034145E+02  0.96347459156E+01  0.72857630796E+02  0.14110788149E+03  0.80555525495E+02 0.  0.
          5    1    3    3  501    0  0.28843171716E+02  0.40381797956E+02 -0.14810131999E+03  0.15626486856E+03  0.47000000000E+01 0. -1.
        -11    1    4    4    0    0  0.56456235584E+02 -0.39391166607E+02 -0.29225067478E+02  0.74786864569E+02  0.00000000000E+00 0.  1.
         12    1    4    4    0    0 -0.26207385785E+02 -0.76274834778E+01 -0.10280747651E+02  0.29166750696E+02  0.00000000000E+00 0. -1.
         -5    1    5    5    0  502  0.30469012631E+02 -0.29978937871E+01  0.12549234241E+03  0.12925852429E+03  0.47000000000E+01 0.  1.
         13    1    6    6    0    0 -0.38667155128E+01  0.77777383624E+00 -0.16511284538E+02  0.16975833944E+02  0.00000000000E+00 0. -1.
        -14    1    6    6    0    0 -0.85694318632E+02  0.88569720793E+01  0.89368915334E+02  0.12413204755E+03  0.00000000000E+00 0.  1.
</event>
<event>
12    1  0.8344842E-002  0.2054333E+03  0.7818608E-02  0.1145298E+00
         21   -1    0    0  501  502  0.00000000000E+00  0.00000000000E+00  0.88796128607E+02  0.88796128607E+02  0.00000000000E+00 0.  1.
         21   -1    0    0  502  503 -0.00000000000E+00 -0.00000000000E+00 -0.52280204718E+03  0.52280204718E+03  0.00000000000E+00 0.  1.
         -6    2    1    2    0  503 -0.10630528326E+02 -0.11074293885E+03 -0.12425919462E+03  0.24008993718E+03  0.17270154559E+03 0.  0.
        -24    2    3    3    0    0 -0.65190473270E+02 -0.36095246334E+02 -0.44282450939E+02  0.11774846784E+03  0.79693799035E+02 0.  0.
          6    2    1    2  501    0  0.10630528326E+02  0.11074293885E+03 -0.30974672395E+03  0.37150823861E+03  0.17233203914E+03 0.  0.
         24    2    5    5    0    0  0.72295483510E+02  0.73539408155E+02 -0.17106822399E+03  0.21517370709E+03  0.80004409088E+02 0.  0.
          5    1    5    5  501    0 -0.61664955184E+02  0.37203530696E+02 -0.13867849996E+03  0.15633453152E+03  0.47000000000E+01 0. -1.
        -13    1    6    6    0    0  0.45822266867E+02  0.81576864579E+02 -0.91241081434E+02  0.13068817818E+03  0.00000000000E+00 0.  1.
         14    1    6    6    0    0  0.26473216643E+02 -0.80374564233E+01 -0.79827142557E+02  0.84485528903E+02  0.00000000000E+00 0. -1.
         -5    1    3    3    0  503  0.54559944944E+02 -0.74647692517E+02 -0.79976743683E+02  0.12234146934E+03  0.47000000000E+01 0.  1.
         13    1    4    4    0    0 -0.50583950517E+01  0.17477458182E+02  0.98706427598E+01  0.20699722063E+02  0.00000000000E+00 0. -1.
        -14    1    4    4    0    0 -0.60132078219E+02 -0.53572704516E+02 -0.54153093699E+02  0.97048745779E+02  0.00000000000E+00 0.  1.
</event>
<event>
12    1  0.8344842E-002  0.1939317E+03  0.7818608E-02  0.1155135E+00
         21   -1    0    0  501  502  0.00000000000E+00  0.00000000000E+00  0.57583615210E+02  0.57583615210E+02  0.00000000000E+00 0.  1.
         21   -1    0    0  502  503 -0.00000000000E+00 -0.00000000000E+00 -0.68338973888E+03  0.68338973888E+03  0.00000000000E+00 0. -1.
         -6    2    1    2    0  503 -0.26809198877E+02  0.82461414582E+02 -0.23100593036E+03  0.30111350819E+03  0.17258906951E+03 0.  0.
        -24    2    3    3    0    0  0.50350883591E+02  0.39836466875E+02 -0.11710571767E+03  0.15700968123E+03  0.82559889282E+02 0.  0.
          6    2    1    2  501    0  0.26809198877E+02 -0.82461414582E+02 -0.39480019331E+03  0.43985984589E+03  0.17346721119E+03 0.  0.
         24    2    5    5    0    0  0.11958646031E+02 -0.87777152086E+02 -0.40368041572E+03  0.42115839314E+03  0.81047371568E+02 0.  0.
          5    1    5    5  501    0  0.14850552846E+02  0.53157375034E+01  0.88802224099E+01  0.18701452753E+02  0.47000000000E+01 0. -1.
        -11    1    6    6    0    0 -0.30922542392E+01 -0.86375127772E+02 -0.21283051370E+03  0.22971080144E+03  0.00000000000E+00 0.  1.
         12    1    6    6    0    0  0.15050900270E+02 -0.14020243144E+01 -0.19084990201E+03  0.19144759171E+03  0.00000000000E+00 0. -1.
         -5    1    3    3    0  503 -0.77160082468E+02  0.42624947708E+02 -0.11390021269E+03  0.14410382696E+03  0.47000000000E+01 0.  1.
         11    1    4    4    0    0 -0.89505856053E+01 -0.13398044453E+02 -0.50951906317E+02  0.53438912181E+02  0.00000000000E+00 0. -1.
        -12    1    4    4    0    0  0.59301469196E+02  0.53234511327E+02 -0.66153811350E+02  0.10357076905E+03  0.00000000000E+00 0.  1.
</event>
<event>
12    1  0.8344842E-002  0.2104511E+03  0.7818608E-02  0.1141397E+00
         21   -1    0    0  501  502  0.00000000000E+00  0.00000000000E+00  0.25703406278E+02  0.25703406278E+02  0.00000000000E+00 0. -1.
         21   -1    0    0  502  503 -0.00000000000E+00 -0.00000000000E+00 -0.19179573596E+04  0.19179573596E+04  0.00000000000E+00 0.  1.
         -6    2    1    2    0  503  0.52731307512E+02  0.11430209194E+03 -0.12600786960E+04  0.12773761293E+04  0.16746909160E+03 0.  0.
        -24    2    3    3    0    0 -0.20006611382E+01  0.12807309016E+03 -0.99965476179E+03  0.10108654461E+04  0.78310843453E+02 0.  0.
          6    2    1    2  501    0 -0.52731307512E+02 -0.11430209194E+03 -0.63217525725E+03  0.66628463648E+03  0.16865379307E+03 0.  0.
         24    2    5    5    0    0 -0.37347272982E+02 -0.13740762614E+03 -0.39112926476E+03  0.42360007842E+03  0.78608206692E+02 0.  0.
          5    1    5    5  501    0 -0.15384034529E+02  0.23105534198E+02 -0.24104599249E+03  0.24268455806E+03  0.47000000000E+01 0. -1.
        -11    1    6    6    0    0 -0.59591957288E+02 -0.99071328210E+02 -0.24521807395E+03  0.27110557582E+03  0.00000000000E+00 0.  1.
         12    1    6    6    0    0  0.22244684306E+02 -0.38336297932E+02 -0.14591119081E+03  0.15249450260E+03  0.00000000000E+00 0. -1.
         -5    1    3    3    0  503  0.54731968650E+02 -0.13770998218E+02 -0.26042393424E+03  0.26651068329E+03  0.47000000000E+01 0.  1.
         13    1    4    4    0    0 -0.22930808450E+01  0.13493348320E+03 -0.81614611959E+03  0.82722837936E+03  0.00000000000E+00 0. -1.
        -14    1    4    4    0    0  0.29241970678E+00 -0.68603930384E+01 -0.18350864220E+03  0.18363706670E+03  0.00000000000E+00 0.  1.
</event>
<event>
12    1  0.8344842E-002  0.1928441E+03  0.7818608E-02  0.1157047E+00
         21   -1    0    0  503  502  0.00000000000E+00  0.00000000000E+00  0.26862921917E+03  0.26862921917E+03  0.00000000000E+00 0. -1.
         21   -1    0    0  501  503 -0.00000000000E+00 -0.00000000000E+00 -0.16145157978E+03  0.16145157978E+03  0.00000000000E+00 0.  1.
          6    2    1    2  501    0  0.28118006390E+02  0.62250814611E+02 -0.33088552859E+02  0.19566224844E+03  0.18034155630E+03 0.  0.
         24    2    3    3    0    0  0.52985574690E+02  0.51018789340E+02 -0.84387803114E+02  0.13736767389E+03  0.79612740968E+02 0.  0.
         -6    2    1    2    0  502 -0.28118006390E+02 -0.62250814611E+02  0.14026619225E+03  0.23441855051E+03  0.17496189852E+03 0.  0.
        -24    2    5    5    0    0  0.42377700419E+02 -0.56635640403E+02  0.52238772428E+02  0.12140487214E+03  0.83706561134E+02 0.  0.
          5    1    3    3  501    0 -0.24867568299E+02  0.11232025271E+02  0.51299250255E+02  0.58294574546E+02  0.47000000000E+01 0. -1.
        -11    1    4    4    0    0 -0.19783671339E+02  0.20365006109E+02 -0.14315857331E+02  0.31797341030E+02  0.00000000000E+00 0.  1.
         12    1    4    4    0    0  0.72769246029E+02  0.30653783231E+02 -0.70071945784E+02  0.10557033286E+03  0.00000000000E+00 0. -1.
         -5    1    5    5    0  502 -0.70495706810E+02 -0.56151742083E+01  0.88027419818E+02  0.11301367837E+03  0.47000000000E+01 0.  1.
         11    1    6    6    0    0 -0.67956754318E+01  0.16995445846E+02  0.20164959854E+02  0.27233288270E+02  0.00000000000E+00 0. -1.
        -12    1    6    6    0    0  0.49173375851E+02 -0.73631086249E+02  0.32073812574E+02  0.94171583866E+02  0.00000000000E+00 0.  1.
</event>
<event>
12    1  0.8344842E-002  0.2936902E+03  0.7818608E-02  0.1088716E+00
         21   -1    0    0  503  502  0.00000000000E+00  0.00000000000E+00  0.69534778637E+03  0.69534778637E+03  0.00000000000E+00 0. -1.
         21   -1    0    0  501  503 -0.00000000000E+00 -0.00000000000E+00 -0.20500709328E+03  0.20500709328E+03  0.00000000000E+00 0.  1.
          6    2    1    2  501    0  0.20487435985E+03 -0.12816301119E+03 -0.38775723011E+02  0.29623895099E+03  0.16689726969E+03 0.  0.
         24    2    3    3    0    0  0.22650959321E+03 -0.11609120367E+03 -0.25703302264E+02  0.26783490122E+03  0.79316525264E+02 0.  0.
         -6    2    1    2    0  502 -0.20487435985E+03  0.12816301119E+03  0.52911641610E+03  0.60411592866E+03  0.16307241555E+03 0.  0.
        -24    2    5    5    0    0 -0.14309263425E+03  0.22566598405E+02  0.27828200801E+03  0.32499664539E+03  0.84836255178E+02 0.  0.
          5    1    3    3  501    0 -0.21635233361E+02 -0.12071807517E+02 -0.13072420746E+02  0.28404049772E+02  0.47000000000E+01 0. -1.
        -11    1    4    4    0    0  0.80593763959E+02 -0.26932819215E+02 -0.44297464703E+02  0.95827954789E+02  0.00000000000E+00 0.  1.
         12    1    4    4    0    0  0.14591582925E+03 -0.89158384456E+02  0.18594162438E+02  0.17200694643E+03  0.00000000000E+00 0. -1.
         -5    1    5    5    0  502 -0.61781725597E+02  0.10559641278E+03  0.25083440809E+03  0.27911928327E+03  0.47000000000E+01 0.  1.
         13    1    6    6    0    0 -0.10378529102E+02  0.25233692723E+02  0.94030453089E+02  0.97909035451E+02  0.00000000000E+00 0. -1.
        -14    1    6    6    0    0 -0.13271410515E+03 -0.26670943178E+01  0.18425155492E+03  0.22708760994E+03  0.00000000000E+00 0.  1.
</event>
<event>
12    1  0.8344842E-002  0.2011102E+03  0.7818608E-02  0.1153846E+00
         21   -1    0    0  501  502  0.00000000000E+00  0.00000000000E+00  0.23431198009E+04  0.23431198009E+04  0.00000000000E+00 0.  1.
         21   -1    0    0  502  503 -0.00000000000E+00 -0.00000000000E+00 -0.28944321195E+02  0.28944321195E+02  0.00000000000E+00 0.  1.
         -6    2    1    2    0  503 -0.86583933175E+02 -0.17969362312E+02  0.20049111082E+04  0.20149724244E+04  0.18062570133E+03 0.  0.
        -24    2    3    3    0    0 -0.99446608439E+02  0.17446897280E+02  0.86926184737E+03  0.87868852792E+03  0.79267569956E+02 0.  0.
          6    2    1    2  501    0  0.86583933175E+02  0.17969362312E+02  0.30926437148E+03  0.35709169763E+03  0.15508176420E+03 0.  0.
         24    2    5    5    0    0  0.15494046281E+02 -0.34423200923E+02  0.12603612337E+03  0.15363793481E+03  0.79337811840E+02 0.  0.
          5    1    5    5  501    0  0.71089886894E+02  0.52392563234E+02  0.18322824811E+03  0.20345376282E+03  0.47000000000E+01 0. -1.
        -13    1    6    6    0    0  0.12776481047E+02 -0.13422740351E+02 -0.63346774668E+01  0.19584089590E+02  0.00000000000E+00 0.  1.
         14    1    6    6    0    0  0.27175652335E+01 -0.21000460572E+02  0.13237080083E+03  0.13405384522E+03  0.00000000000E+00 0. -1.
         -5    1    3    3    0  503  0.12862675264E+02 -0.35416259591E+02  0.11356492608E+04  0.11362838965E+04  0.47000000000E+01 0.  1.
         11    1    4    4    0    0 -0.93083006364E+02  0.39263870989E+01  0.84550702944E+03  0.85062447614E+03  0.00000000000E+00 0. -1.
        -12    1    4    4    0    0 -0.63636020751E+01  0.13520510181E+02  0.23754817936E+02  0.28064051776E+02  0.00000000000E+00 0.  1.
</event>
<event>
12    1  0.8344842E-002  0.1825307E+03  0.7818608E-02  0.1165405E+00
         21   -1    0    0  501  502  0.00000000000E+00  0.00000000000E+00  0.18791103646E+02  0.18791103646E+02  0.00000000000E+00 0.  1.
         21   -1    0    0  502  503 -0.00000000000E+00 -0.00000000000E+00 -0.17977249316E+04  0.17977249316E+04  0.00000000000E+00 0.  1.
         -6    2    1    2    0  503  0.55812349774E+02  0.23117671812E+02 -0.99810615719E+03  0.10146374147E+04  0.17211547635E+03 0.  0.
        -24    2    3    3    0    0  0.68252438454E+02  0.76628029736E+02 -0.66409691081E+03  0.67610768061E+03  0.74609909105E+02 0.  0.
          6    2    1    2  501    0 -0.55812349774E+02 -0.23117671812E+02 -0.78082767081E+03  0.80187862056E+03  0.17224408694E+03 0.  0.
         24    2    5    5    0    0 -0.41265595449E+01  0.16377088327E+02 -0.19953126642E+03  0.21693515599E+03  0.83443981881E+02 0.  0.
          5    1    5    5  501    0 -0.51685790229E+02 -0.39494760139E+02 -0.58129640439E+03  0.58494346457E+03  0.47000000000E+01 0. -1.
        -11    1    6    6    0    0 -0.25110079233E+02  0.58210834426E+01 -0.18974697991E+03  0.19148973204E+03  0.00000000000E+00 0.  1.
         12    1    6    6    0    0  0.20983519688E+02  0.10556004884E+02 -0.97842865025E+01  0.25445423949E+02  0.00000000000E+00 0. -1.
         -5    1    3    3    0  503 -0.12440088680E+02 -0.53510357924E+02 -0.33400924638E+03  0.33852973412E+03  0.47000000000E+01 0.  1.
         13    1    4    4    0    0  0.97481803664E+01  0.62894413300E+02 -0.26647311086E+03  0.27396834317E+03  0.00000000000E+00 0. -1.
        -14    1    4    4    0    0  0.58504258087E+02  0.13733616436E+02 -0.39762379995E+03  0.40213933744E+03  0.00000000000E+00 0.  1.
</event>
<event>
12    1  0.8344842E-002  0.1923914E+03  0.7818608E-02  0.1156398E+00
         21   -1    0    0  501  502  0.00000000000E+00  0.00000000000E+00  0.14844248955E+03  0.14844248955E+03  0.00000000000E+00 0.  1.
         21   -1    0    0  502  503 -0.00000000000E+00 -0.00000000000E+00 -0.25844185961E+03  0.25844185961E+03  0.00000000000E+00 0.  1.
         -6    2    1    2    0  503 -0.25951014854E+02 -0.83274227467E+02 -0.94028209575E+02  0.21383114126E+03  0.17109763483E+03 0.  0.
        -24    2    3    3    0    0  0.16748232714E+02 -0.10950042897E+03 -0.46808238815E+02  0.14481770035E+03  0.80686478852E+02 0.  0.
          6    2    1    2  501    0  0.25951014854E+02  0.83274227467E+02 -0.15971160487E+02  0.19305320790E+03  0.17148297578E+03 0.  0.
         24    2    5    5    0    0  0.54684175151E+02  0.11417588580E+03 -0.20401042443E+02  0.15036572914E+03  0.78531255292E+02 0.  0.
          5    1    5    5  501    0 -0.28733160297E+02 -0.30901658335E+02  0.44298819559E+01  0.42687478757E+02  0.47000000000E+01 0. -1.
        -11    1    6    6    0    0  0.71862048757E+02  0.92720167541E+02 -0.30290460042E+02  0.12115566635E+03  0.00000000000E+00 0.  1.
         12    1    6    6    0    0 -0.17177873606E+02  0.21455718261E+02  0.98894175993E+01  0.29210062789E+02  0.00000000000E+00 0. -1.
         -5    1    3    3    0  503 -0.42699247568E+02  0.26226201503E+02 -0.47219970760E+02  0.69013440913E+02  0.47000000000E+01 0.  1.
         11    1    4    4    0    0  0.32953816942E+02 -0.83068300241E+01 -0.60079710031E+01  0.34511638496E+02  0.00000000000E+00 0. -1.
        -12    1    4    4    0    0 -0.16205584229E+02 -0.10119359895E+03 -0.40800267812E+02  0.11030606185E+03  0.00000000000E+00 0.  1.
</event>
<event>
12    1  0.8344842E-002  0.1737944E+03  0.7818608E-02  0.1174054E+00
         21   -1    0    0  503  502  0.00000000000E+00  0.00000000000E+00  0.11708154416E+03  0.11708154416E+03  0.00000000000E+00 0.  1.
         21   -1    0    0  501  503 -0.00000000000E+00 -0.00000000000E+00 -0.43266368764E+03  0.43266368764E+03  0.00000000000E+00 0.  1.
          6    2    1    2  501    0  0.21693169531E+02 -0.11063924837E+02 -0.33287217185E+03  0.37551083262E+03  0.17207991918E+03 0.  0.
         24    2    3    3    0    0  0.63335003555E+02 -0.29138174646E+02 -0.17258120039E+03  0.20884948023E+03  0.94728447517E+02 0.  0.
         -6    2    1    2    0  502 -0.21693169531E+02  0.11063924837E+02  0.17290028372E+02  0.17423439918E+03  0.17165569242E+03 0.  0.
        -24    2    5    5    0    0  0.42061902354E+02 -0.28466974553E+02  0.26026818210E+02  0.98565233110E+02  0.80362538798E+02 0.  0.
          5    1    3    3  501    0 -0.41641834024E+02  0.18074249810E+02 -0.16029097147E+03  0.16666135239E+03  0.47000000000E+01 0. -1.
        -11    1    4    4    0    0  0.29615228939E+02  0.14212517871E+02 -0.14248574351E+03  0.14622326953E+03  0.00000000000E+00 0.  1.
         12    1    4    4    0    0  0.33719774616E+02 -0.43350692517E+02 -0.30095456877E+02  0.62626210699E+02  0.00000000000E+00 0. -1.
         -5    1    5    5    0  502 -0.63755071885E+02  0.39530899389E+02 -0.87367898380E+01  0.75669166073E+02  0.47000000000E+01 0.  1.
         13    1    6    6    0    0  0.65767282344E+02 -0.25759310588E+02  0.14663880248E+02  0.72138109851E+02  0.00000000000E+00 0. -1.
        -14    1    6    6    0    0 -0.23705379990E+02 -0.27076639650E+01  0.11362937962E+02  0.26427123259E+02  0.00000000000E+00 0.  1.
</event>
<event>
12    1  0.8344842E-002  0.1876767E+03  0.7818608E-02  0.1160889E+00
         21   -1    0    0  501  502  0.00000000000E+00  0.00000000000E+00  0.59736571299E+03  0.59736571299E+03  0.00000000000E+00 0. -1.
         21   -1    0    0  502  503 -0.00000000000E+00 -0.00000000000E+00 -0.77926150498E+02  0.77926150498E+02  0.00000000000E+00 0. -1.
         -6    2    1    2    0  503  0.71709155938E+02 -0.21990382718E+01  0.91996345998E+02  0.20901164672E+03  0.17342289922E+03 0.  0.
        -24    2    3    3    0    0  0.48204954093E+02 -0.44759054278E+02 -0.21974548449E+01  0.10290620584E+03  0.79106054469E+02 0.  0.
          6    2    1    2  501    0 -0.71709155938E+02  0.21990382718E+01  0.42744321649E+03  0.46628021677E+03  0.17193748401E+03 0.  0.
         24    2    5    5    0    0  0.12150470357E+01 -0.12669936372E+02  0.34817650582E+03  0.35744857061E+03  0.79878644163E+02 0.  0.
          5    1    5    5  501    0 -0.72924202974E+02  0.14868974643E+02  0.79266710670E+02  0.10883164616E+03  0.47000000000E+01 0. -1.
        -13    1    6    6    0    0 -0.83436513352E+01 -0.19240747705E+02  0.19719543959E+02  0.28786859916E+02  0.00000000000E+00 0.  1.
         14    1    6    6    0    0  0.95586983709E+01  0.65708113335E+01  0.32845696186E+03  0.32866171069E+03  0.00000000000E+00 0. -1.
         -5    1    3    3    0  503  0.23504201845E+02  0.42560016006E+02  0.94193800843E+02  0.10610544088E+03  0.47000000000E+01 0.  1.
         11    1    4    4    0    0  0.38639073777E+02 -0.24669545833E+01 -0.32050887366E+02  0.50262543391E+02  0.00000000000E+00 0. -1.
        -12    1    4    4    0    0  0.95658803163E+01 -0.42292099694E+02  0.29853432521E+02  0.52643662449E+02  0.00000000000E+00 0.  1.
</event>
<event>
12    1  0.8344842E-002  0.1803338E+03  0.7818608E-02  0.1167962E+00
         21   -1    0    0  501  502  0.00000000000E+00  0.00000000000E+00  0.35699090699E+02  0.35699090699E+02  0.00000000000E+00 0.  1.
         21   -1    0    0  502  503 -0.00000000000E+00 -0.00000000000E+00 -0.11276830302E+04  0.11276830302E+04  0.00000000000E+00 0.  1.
         -6    2    1    2    0  503  0.25750468673E+02  0.40940935572E+02 -0.80440011045E+03  0.82393440877E+03  0.17166573748E+03 0.  0.
        -24    2    3    3    0    0  0.66518924186E+02 -0.41454701095E+00 -0.33252153913E+03  0.34847271844E+03  0.80235418529E+02 0.  0.
          6    2    1    2  501    0 -0.25750468673E+02 -0.40940935572E+02 -0.28758382909E+03  0.33944771217E+03  0.17372692278E+03 0.  0.
         24    2    5    5    0    0 -0.20577408131E+02 -0.47166659961E+02 -0.61988975718E+02  0.11365876632E+03  0.80172055686E+02 0.  0.
          5    1    5    5  501    0 -0.51730605412E+01  0.62257243891E+01 -0.22559485337E+03  0.22578894585E+03  0.47000000000E+01 0. -1.
        -13    1    6    6    0    0  0.26394548921E+02 -0.38809972173E+02 -0.24261271606E+02  0.52834604690E+02  0.00000000000E+00 0.  1.
         14    1    6    6    0    0 -0.46971957052E+02 -0.83566877887E+01 -0.37727704113E+02  0.60824161628E+02  0.00000000000E+00 0. -1.
         -5    1    3    3    0  503 -0.40768455514E+02  0.41355482583E+02 -0.47187857132E+03  0.47546169034E+03  0.47000000000E+01 0.  1.
         13    1    4    4    0    0  0.24112760039E+02 -0.52127797089E+01 -0.27867568139E+03  0.27976549764E+03  0.00000000000E+00 0. -1.
        -14    1    4    4    0    0  0.42406164147E+02  0.47982326979E+01 -0.53845857738E+02  0.68707220801E+02  0.00000000000E+00 0.  1.
</event>
<event>
12    1  0.8344842E-002  0.1901098E+03  0.7818608E-02  0.1160072E+00
         21   -1    0    0  501  502  0.00000000000E+00  0.00000000000E+00  0.86373107415E+03  0.86373107415E+03  0.00000000000E+00 0. -1.
         21   -1    0    0  502  503 -0.00000000000E+00 -0.00000000000E+00 -0.51900851993E+02  0.51900851993E+02  0.00000000000E+00 0. -1.
         -6    2    1    2    0  503  0.50014313812E+02  0.53686085597E+02  0.19507166492E+03  0.27238705122E+03  0.17537994139E+03 0.  0.
        -24    2    3    3    0    0  0.40662962619E+02  0.86487017717E+02  0.72633435151E+02  0.14519994878E+03  0.81694115214E+02 0.  0.
          6    2    1    2  501    0 -0.50014313812E+02 -0.53686085597E+02  0.61675855723E+03  0.64324487492E+03  0.16729980223E+03 0.  0.
         24    2    5    5    0    0 -0.13709328404E+02  0.28306583782E+02  0.20380694322E+03  0.22064343703E+03  0.78466858152E+02 0.  0.
          5    1    5    5  501    0 -0.36304985409E+02 -0.81992669379E+02  0.41295161401E+03  0.42260143789E+03  0.47000000000E+01 0. -1.
        -11    1    6    6    0    0 -0.78864173359E+01  0.59636759584E+00 -0.53693625480E+01  0.95593559865E+01  0.00000000000E+00 0.  1.
         12    1    6    6    0    0 -0.58229110677E+01  0.27710216187E+02  0.20917630577E+03  0.21108408105E+03  0.00000000000E+00 0. -1.
         -5    1    3    3    0  503  0.93513511930E+01 -0.32800932121E+02  0.12243822977E+03  0.12718710244E+03  0.47000000000E+01 0.  1.
         11    1    4    4    0    0 -0.45096570035E+01  0.53418874362E+02  0.14330343666E+00  0.53609082069E+02  0.00000000000E+00 0. -1.
        -12    1    4    4    0    0  0.45172619623E+02  0.33068143356E+02  0.72490131714E+02  0.91590866709E+02  0.00000000000E+00 0.  1.
</event>
<event>
12    1  0.8344842E-002  0.1855046E+03  0.7818608E-02  0.1164528E+00
         21   -1    0    0  501  502  0.00000000000E+00  0.00000000000E+00  0.19391097245E+03  0.19391097245E+03  0.00000000000E+00 0.  1.
         21   -1    0    0  502  503 -0.00000000000E+00 -0.00000000000E+00 -0.22217851156E+03  0.22217851156E+03  0.00000000000E+00 0.  1.
         -6    2    1    2    0  503  0.47425961689E+02 -0.33308718192E+01  0.87175551822E+02  0.19759677194E+03  0.17083498148E+03 0.  0.
        -24    2    3    3    0    0 -0.10446795850E+02 -0.48082967588E+02  0.15155812808E+02  0.94830342849E+02  0.79636599296E+02 0.  0.
          6    2    1    2  501    0 -0.47425961689E+02  0.33308718192E+01 -0.11544309093E+03  0.21849271207E+03  0.17930878795E+03 0.  0.
         24    2    5    5    0    0 -0.25488809380E+02 -0.45726447782E+02 -0.50622464580E+01  0.95635558906E+02  0.79874566400E+02 0.  0.
          5    1    5    5  501    0 -0.21937152309E+02  0.49057319601E+02 -0.11038084447E+03  0.12285715316E+03  0.47000000000E+01 0. -1.
        -13    1    6    6    0    0 -0.87073051464E+00  0.52281055898E+01 -0.32370264069E+02  0.32801299603E+02  0.00000000000E+00 0.  1.
         14    1    6    6    0    0 -0.24618078865E+02 -0.50954553371E+02  0.27308017611E+02  0.62834259303E+02  0.00000000000E+00 0. -1.
         -5    1    3    3    0  503  0.57872757540E+02  0.44752095769E+02  0.72019739014E+02  0.10276642909E+03  0.47000000000E+01 0.  1.
         13    1    4    4    0    0  0.18266323006E+02 -0.47286322794E+02  0.33488279760E+02  0.60754586336E+02  0.00000000000E+00 0. -1.
        -14    1    4    4    0    0 -0.28713118857E+02 -0.79664479426E+00 -0.18332466952E+02  0.34075756514E+02  0.00000000000E+00 0.  1.
</event>
<event>
12    1  0.8344842E-002  0.1955756E+03  0.7818608E-02  0.1154145E+00
         21   -1    0    0  501  502  0.00000000000E+00  0.00000000000E+00  0.10303680553E+03  0.10303680553E+03  0.00000000000E+00 0.  1.
         21   -1    0    0  502  503 -0.00000000000E+00 -0.00000000000E+00 -0.96169141125E+03  0.96169141125E+03  0.00000000000E+00 0.  1.
         -6    2    1    2    0  503 -0.35073725103E+02  0.81205558968E+02 -0.84953976856E+03  0.87176122824E+03  0.17442852889E+03 0.  0.
        -24    2    3    3    0    0 -0.43546317525E+02  0.54825275654E+02 -0.83175862020E+03  0.83850520011E+03  0.79790198056E+02 0.  0.
          6    2    1    2  501    0  0.35073725103E+02 -0.81205558968E+02 -0.91148371535E+01  0.19296698854E+03  0.17125615145E+03 0.  0.
         24    2    5    5    0    0  0.42201664650E+02 -0.10467117150E+03  0.34217776696E+02  0.14295451093E+03  0.80796666464E+02 0.  0.
          5    1    5    5  501    0 -0.71279395469E+01  0.23465612528E+02 -0.43332613849E+02  0.50012477608E+02  0.47000000000E+01 0. -1.
        -11    1    6    6    0    0  0.64889339678E+02 -0.83312435096E+02  0.15849674757E+02  0.10678389596E+03  0.00000000000E+00 0.  1.
         12    1    6    6    0    0 -0.22687675029E+02 -0.21358736401E+02  0.18368101938E+02  0.36170614975E+02  0.00000000000E+00 0. -1.
         -5    1    3    3    0  503  0.84725924227E+01  0.26380283315E+02 -0.17781148361E+02  0.33256028133E+02  0.47000000000E+01 0.  1.
         13    1    4    4    0    0  0.99701898655E+01 -0.14031243941E+02 -0.89416662808E+02  0.91058333392E+02  0.00000000000E+00 0. -1.
        -14    1    4    4    0    0 -0.53516507391E+02  0.68856519595E+02 -0.74234195739E+03  0.74744686671E+03  0.00000000000E+00 0.  1.
</event>
<event>
12    1  0.8344842E-002  0.2733114E+03  0.7818608E-02  0.1099483E+00
         21   -1    0    0  501  502  0.00000000000E+00  0.00000000000E+00  0.85415113108E+02  0.85415113108E+02  0.00000000000E+00 0.  1.
         21   -1    0    0  502  503 -0.00000000000E+00 -0.00000000000E+00 -0.23409739764E+04  0.23409739764E+04  0.00000000000E+00 0.  1.
         -6    2    1    2    0  503  0.14508599580E+03  0.15444952048E+03 -0.20890574461E+04  0.21068602560E+04  0.17261090583E+03 0.  0.
        -24    2    3    3    0    0  0.81442244759E+02  0.67599115344E+02 -0.63828247784E+03  0.65208755267E+03  0.81309133616E+02 0.  0.
          6    2    1    2  501    0 -0.14508599580E+03 -0.15444952048E+03 -0.16650141716E+03  0.31952883344E+03  0.17167222527E+03 0.  0.
         24    2    5    5    0    0 -0.13936318998E+03 -0.81274411358E+02 -0.16775417981E+03  0.24596928942E+03  0.79572594738E+02 0.  0.
          5    1    5    5  501    0 -0.57228058184E+01 -0.73175109122E+02  0.12527626515E+01  0.73559544015E+02  0.47000000000E+01 0. -1.
        -13    1    6    6    0    0 -0.47706596661E+02 -0.32623627414E+02 -0.11690761082E+03  0.13041322747E+03  0.00000000000E+00 0.  1.
         14    1    6    6    0    0 -0.91656593316E+02 -0.48650783944E+02 -0.50846568990E+02  0.11555606196E+03  0.00000000000E+00 0. -1.
         -5    1    3    3    0  503  0.63643751037E+02  0.86850405136E+02 -0.14507749682E+04  0.14547727034E+04  0.47000000000E+01 0.  1.
         11    1    4    4    0    0  0.95085011218E+01  0.10612582946E+02 -0.33312009660E+03  0.33342471004E+03  0.00000000000E+00 0. -1.
        -12    1    4    4    0    0  0.71933743637E+02  0.56986532397E+02 -0.30516238124E+03  0.31866284263E+03  0.00000000000E+00 0.  1.
</event>
<event>
12    1  0.8344842E-002  0.2523625E+03  0.7818608E-02  0.1113260E+00
         21   -1    0    0  501  502  0.00000000000E+00  0.00000000000E+00  0.46596595057E+03  0.46596595057E+03  0.00000000000E+00 0.  1.
         21   -1    0    0  502  503 -0.00000000000E+00 -0.00000000000E+00 -0.42677530205E+03  0.42677530205E+03  0.00000000000E+00 0.  1.
         -6    2    1    2    0  503 -0.11377072154E+03 -0.14335637171E+03 -0.35158000285E+03  0.42756546090E+03  0.16033994686E+03 0.  0.
        -24    2    3    3    0    0 -0.49680923007E+02 -0.12217177849E+02 -0.15657309710E+03  0.18393710924E+03  0.81855188439E+02 0.  0.
          6    2    1    2  501    0  0.11377072154E+03  0.14335637171E+03  0.39077065138E+03  0.46517579172E+03  0.17375842090E+03 0.  0.
         24    2    5    5    0    0  0.97771216535E+02  0.13408667087E+03  0.40266722060E+03  0.44269180024E+03  0.79351706743E+02 0.  0.
          5    1    5    5  501    0  0.15999505002E+02  0.92697008366E+01 -0.11896569217E+02  0.22483991484E+02  0.47000000000E+01 0. -1.
        -13    1    6    6    0    0  0.11767470983E+02  0.60168257306E+02  0.80770723257E+02  0.10140316709E+03  0.00000000000E+00 0.  1.
         14    1    6    6    0    0  0.86003745552E+02  0.73918413564E+02  0.32189649734E+03  0.34128863315E+03  0.00000000000E+00 0. -1.
         -5    1    3    3    0  503 -0.64089798530E+02 -0.13113919386E+03 -0.19500690576E+03  0.24362835166E+03  0.47000000000E+01 0.  1.
         13    1    4    4    0    0 -0.62213312850E+02  0.15420983225E+02 -0.12288056952E+03  0.13859270322E+03  0.00000000000E+00 0. -1.
        -14    1    4    4    0    0  0.12532389843E+02 -0.27638161074E+02 -0.33692527575E+02  0.45344406018E+02  0.00000000000E+00 0.  1.
</event>
<event>
12    1  0.8344842E-002  0.2449887E+03  0.7818608E-02  0.1116590E+00
         21   -1    0    0  503  502  0.00000000000E+00  0.00000000000E+00  0.18254596256E+04  0.18254596256E+04  0.00000000000E+00 0.  1.
         21   -1    0    0  501  503 -0.00000000000E+00 -0.00000000000E+00 -0.40599698318E+02  0.40599698318E+02  0.00000000000E+00 0. -1.
          6    2    1    2  501    0  0.15538146464E+03  0.77483340747E+02  0.48458720154E+03  0.54299560618E+03  0.17283635264E+03 0.  0.
         24    2    3    3    0    0  0.57320862521E+02  0.55282810561E+02  0.12134094959E+03  0.16606235641E+03  0.80692067433E+02 0.  0.
         -6    2    1    2    0  502 -0.15538146464E+03 -0.77483340747E+02  0.13002727257E+04  0.13230637177E+04  0.17216669893E+03 0.  0.
        -24    2    5    5    0    0 -0.15686295686E+03 -0.42728008386E+02  0.12408045687E+04  0.12540080905E+04  0.80676164158E+02 0.  0.
          5    1    3    3  501    0  0.98060602116E+02  0.22200530186E+02  0.36324625195E+03  0.37693324977E+03  0.47000000000E+01 0. -1.
        -11    1    4    4    0    0  0.99543244878E+01 -0.18950707391E+02  0.87493968991E+01  0.23125090978E+02  0.00000000000E+00 0.  1.
         12    1    4    4    0    0  0.47366538034E+02  0.74233517953E+02  0.11259155269E+03  0.14293726544E+03  0.00000000000E+00 0. -1.
         -5    1    5    5    0  502  0.14814922260E+01 -0.34755332360E+02  0.59468157044E+02  0.69055627206E+02  0.47000000000E+01 0.  1.
         13    1    6    6    0    0 -0.57666442421E+02 -0.16223799995E+02  0.21859607049E+03  0.22665584551E+03  0.00000000000E+00 0. -1.
        -14    1    6    6    0    0 -0.99196514443E+02 -0.26504208392E+02  0.10222084982E+04  0.10273522450E+04  0.00000000000E+00 0.  1.
</event>
<event>
12    1  0.8344842E-002  0.2052562E+03  0.7818608E-02  0.1145491E+00
         21   -1    0    0  501  502  0.00000000000E+00  0.00000000000E+00  0.90889343585E+03  0.90889343585E+03  0.00000000000E+00 0. -1.
         21   -1    0    0  502  503 -0.00000000000E+00 -0.00000000000E+00 -0.64261600052E+02  0.64261600052E+02  0.00000000000E+00 0. -1.
         -6    2    1    2    0  503 -0.93924450753E+02  0.58630090854E+02  0.16415640389E+03  0.26239703560E+03  0.17217894572E+03 0.  0.
        -24    2    3    3    0    0 -0.21511109324E+02  0.53665126910E+02  0.16223037355E+03  0.18963617746E+03  0.79375764745E+02 0.  0.
          6    2    1    2  501    0  0.93924450753E+02 -0.58630090854E+02  0.68047543191E+03  0.71075800031E+03  0.17283180136E+03 0.  0.
         24    2    5    5    0    0  0.18458904438E+01 -0.11018881556E+02  0.45898105602E+03  0.46616213552E+03  0.80738489856E+02 0.  0.
          5    1    5    5  501    0  0.92078560309E+02 -0.47611209298E+02  0.22149437589E+03  0.24459586478E+03  0.47000000000E+01 0. -1.
        -11    1    6    6    0    0  0.11244611460E+02  0.33827989603E+02  0.19372944518E+03  0.19698190805E+03  0.00000000000E+00 0.  1.
         12    1    6    6    0    0 -0.93987210164E+01 -0.44846871159E+02  0.26525161084E+03  0.26918022747E+03  0.00000000000E+00 0. -1.
         -5    1    3    3    0  503 -0.72413341429E+02  0.49649639433E+01  0.19260303367E+01  0.72760858136E+02  0.47000000000E+01 0.  1.
         11    1    4    4    0    0 -0.34120461499E+02  0.69122169812E+02  0.11589739209E+03  0.13919154337E+03  0.00000000000E+00 0. -1.
        -12    1    4    4    0    0  0.12609352175E+02 -0.15457042901E+02  0.46332981461E+02  0.50444634091E+02  0.00000000000E+00 0.  1.
</event>
<event>
12    1  0.8344842E-002  0.2098389E+03  0.7818608E-02  0.1141718E+00
         21   -1    0    0  501  502  0.00000000000E+00  0.00000000000E+00  0.27046061165E+03  0.27046061165E+03  0.00000000000E+00 0.  1.
         21   -1    0    0  502  503 -0.00000000000E+00 -0.00000000000E+00 -0.17031673694E+03  0.17031673694E+03  0.00000000000E+00 0.  1.
         -6    2    1    2    0  503 -0.61170963912E+02  0.10440492083E+03  0.34770428286E+01  0.20974308979E+03  0.17128280581E+03 0.  0.
        -24    2    3    3    0    0  0.94362700241E+00  0.10807485099E+03  0.32835550051E+02  0.14078148642E+03  0.84024935140E+02 0.  0.
          6    2    1    2  501    0  0.61170963912E+02 -0.10440492083E+03  0.96666831883E+02  0.23103425881E+03  0.17143534652E+03 0.  0.
         24    2    5    5    0    0  0.52230413864E+01 -0.12953000074E+01  0.76371173433E+02  0.11188826562E+03  0.81593320120E+02 0.  0.
          5    1    5    5  501    0  0.55947922526E+02 -0.10310962082E+03  0.20295658450E+02  0.11914599319E+03  0.47000000000E+01 0. -1.
        -13    1    6    6    0    0  0.11624962628E+02 -0.25968724281E+01 -0.15632211047E+02  0.19653231916E+02  0.00000000000E+00 0.  1.
         14    1    6    6    0    0 -0.64019212419E+01  0.13015724206E+01  0.92003384480E+02  0.92235033703E+02  0.00000000000E+00 0. -1.
         -5    1    3    3    0  503 -0.62114590915E+02 -0.36699301538E+01 -0.29358507222E+02  0.68961603361E+02  0.47000000000E+01 0.  1.
         11    1    4    4    0    0 -0.30243853699E+02  0.87133203360E+02  0.21207525714E+01  0.92257159103E+02  0.00000000000E+00 0. -1.
        -12    1    4    4    0    0  0.31187480701E+02  0.20941647626E+02  0.30714797480E+02  0.48524327321E+02  0.00000000000E+00 0.  1.
</event>
<event>
12    1  0.8344842E-002  0.3086626E+03  0.7818608E-02  0.1081112E+00
         21   -1    0    0  501  502  0.00000000000E+00  0.00000000000E+00  0.20896370651E+03  0.20896370651E+03  0.00000000000E+00 0. -1.
         21   -1    0    0  502  503 -0.00000000000E+00 -0.00000000000E+00 -0.11443935023E+04  0.11443935023E+04  0.00000000000E+00 0.  1.
         -6    2    1    2    0  503  0.15593616417E+03 -0.20288771770E+03 -0.99283220177E+03  0.10394024082E+04  0.17076906049E+03 0.  0.
        -24    2    3    3    0    0  0.17286378928E+03 -0.15321556893E+03 -0.90038874256E+03  0.93299869584E+03  0.80185899586E+02 0.  0.
          6    2    1    2  501    0 -0.15593616417E+03  0.20288771770E+03  0.57402405981E+02  0.31395480061E+03  0.17260668389E+03 0.  0.
         24    2    5    5    0    0 -0.10694664592E+03  0.21807302707E+03  0.37383422361E+02  0.25869707514E+03  0.80828375027E+02 0.  0.
          5    1    5    5  501    0 -0.48989518253E+02 -0.15185309369E+02  0.20018983620E+02  0.55257725473E+02  0.47000000000E+01 0. -1.
        -13    1    6    6    0    0 -0.25152182615E+02  0.12212654130E+03  0.44561838739E+02  0.13241329938E+03  0.00000000000E+00 0.  1.
         14    1    6    6    0    0 -0.81794463305E+02  0.95946485765E+02 -0.71784163778E+01  0.12628377576E+03  0.00000000000E+00 0. -1.
         -5    1    3    3    0  503 -0.16927625111E+02 -0.49672148771E+02 -0.92443459204E+02  0.10640371237E+03  0.47000000000E+01 0.  1.
         13    1    4    4    0    0  0.13008557676E+03 -0.13657969217E+03 -0.59501455982E+03  0.62419435754E+03  0.00000000000E+00 0. -1.
        -14    1    4    4    0    0  0.42778212527E+02 -0.16635876763E+02 -0.30537418274E+03  0.30880433829E+03  0.00000000000E+00 0.  1.
</event>
<event>
12    1  0.8344842E-002  0.2392741E+03  0.7818608E-02  0.1120284E+00
         21   -1    0    0  501  502  0.00000000000E+00  0.00000000000E+00  0.34077448757E+02  0.34077448757E+02  0.00000000000E+00 0.  1.
         21   -1    0    0  502  503 -0.00000000000E+00 -0.00000000000E+00 -0.16822346407E+04  0.16822346407E+04  0.00000000000E+00 0. -1.
         -6    2    1    2    0  503  0.12550270681E+03 -0.10960824001E+03 -0.79132507028E+03  0.82670882129E+03  0.17171841094E+03 0.  0.
        -24    2    3    3    0    0 -0.47491510110E+01 -0.40832867880E+02 -0.28318545181E+03  0.29763079289E+03  0.81854817977E+02 0.  0.
          6    2    1    2  501    0 -0.12550270681E+03  0.10960824001E+03 -0.85683212162E+03  0.88960326812E+03  0.17166186041E+03 0.  0.
         24    2    5    5    0    0 -0.97961161033E+02  0.23625469884E+02 -0.66637195203E+03  0.67877457060E+03  0.80800911703E+02 0.  0.
          5    1    5    5  501    0 -0.27541545778E+02  0.85982770123E+02 -0.19046016959E+03  0.21082869753E+03  0.47000000000E+01 0. -1.
        -13    1    6    6    0    0 -0.59114280232E+02  0.49790899692E+02 -0.31746183438E+03  0.32673482843E+03  0.00000000000E+00 0.  1.
         14    1    6    6    0    0 -0.38846880802E+02 -0.26165429808E+02 -0.34891011765E+03  0.35203974216E+03  0.00000000000E+00 0. -1.
         -5    1    3    3    0  503  0.13025185782E+03 -0.68775372126E+02 -0.50813961847E+03  0.52907802840E+03  0.47000000000E+01 0.  1.
         11    1    4    4    0    0 -0.26673739549E+02 -0.37880452223E+02 -0.26492492895E+03  0.26894541271E+03  0.00000000000E+00 0. -1.
        -12    1    4    4    0    0  0.21924588538E+02 -0.29524156569E+01 -0.18260522863E+02  0.28685380179E+02  0.00000000000E+00 0.  1.
</event>
<event>
12    1  0.8344842E-002  0.3070311E+03  0.7818608E-02  0.1081916E+00
         21   -1    0    0  501  502  0.00000000000E+00  0.00000000000E+00  0.90070457720E+03  0.90070457720E+03  0.00000000000E+00 0.  1.
         21   -1    0    0  502  503 -0.00000000000E+00 -0.00000000000E+00 -0.26682482863E+03  0.26682482863E+03  0.00000000000E+00 0.  1.
         -6    2    1    2    0  503 -0.10398299242E+03  0.23116902402E+03 -0.13892771978E+03  0.33596492471E+03  0.17123066002E+03 0.  0.
        -24    2    3    3    0    0 -0.81665494858E+02  0.68675233892E+02 -0.22236169574E+02  0.13461619634E+03  0.79003368777E+02 0.  0.
          6    2    1    2  501    0  0.10398299242E+03 -0.23116902402E+03  0.77280746836E+03  0.83156448112E+03  0.17325277119E+03 0.  0.
         24    2    5    5    0    0  0.88036829675E+02 -0.25187580390E+03  0.72807610691E+03  0.77954491234E+03  0.80022177729E+02 0.  0.
          5    1    5    5  501    0  0.15946162745E+02  0.20706779875E+02  0.44731361448E+02  0.52019568780E+02  0.47000000000E+01 0. -1.
        -13    1    6    6    0    0  0.82227413305E+01 -0.60964778939E+02  0.92120788756E+02  0.11077254835E+03  0.00000000000E+00 0.  1.
         14    1    6    6    0    0  0.79814088344E+02 -0.19091102496E+03  0.63595531816E+03  0.66877236399E+03  0.00000000000E+00 0. -1.
         -5    1    3    3    0  503 -0.22317497562E+02  0.16249379013E+03 -0.11669155021E+03  0.20134872838E+03  0.47000000000E+01 0.  1.
         11    1    4    4    0    0  0.10826255444E+02  0.30935449451E+02 -0.32839694151E+01  0.32939251582E+02  0.00000000000E+00 0. -1.
        -12    1    4    4    0    0 -0.92491750302E+02  0.37739784441E+02 -0.18952200159E+02  0.10167694475E+03  0.00000000000E+00 0.  1.
</event>
<event>
12    1  0.8344842E-002  0.2025339E+03  0.7818608E-02  0.1148189E+00
         21   -1    0    0  501  502  0.00000000000E+00  0.00000000000E+00  0.28393539050E+03  0.28393539050E+03  0.00000000000E+00 0. -1.
         21   -1    0    0  502  503 -0.00000000000E+00 -0.00000000000E+00 -0.25272603564E+03  0.25272603564E+03  0.00000000000E+00 0. -1.
         -6    2    1    2    0  503  0.63166097504E+01  0.99623185193E+02 -0.16163944561E+03  0.25699975983E+03  0.17308058120E+03 0.  0.
        -24    2    3    3    0    0  0.34182779140E+02  0.12843843143E+03 -0.14840451257E+03  0.21452511723E+03  0.79575332310E+02 0.  0.
          6    2    1    2  501    0 -0.63166097504E+01 -0.99623185193E+02  0.19284880047E+03  0.27966166631E+03  0.17622516612E+03 0.  0.
         24    2    5    5    0    0  0.50139969286E+01  0.16533411769E+02  0.55688850494E+02  0.99507067306E+02  0.80634449862E+02 0.  0.
          5    1    5    5  501    0 -0.11330606679E+02 -0.11615659696E+03  0.13715994998E+03  0.18015459901E+03  0.47000000000E+01 0. -1.
        -13    1    6    6    0    0  0.13279163397E+02 -0.82421515942E+01 -0.16507026449E+02  0.22732161481E+02  0.00000000000E+00 0.  1.
         14    1    6    6    0    0 -0.82651664682E+01  0.24775563364E+02  0.72195876943E+02  0.76774905824E+02  0.00000000000E+00 0. -1.
         -5    1    3    3    0  503 -0.27866169389E+02 -0.28815246234E+02 -0.13234933041E+02  0.42474642606E+02  0.47000000000E+01 0.  1.
         13    1    4    4    0    0  0.95108440464E+01  0.83145194099E+02 -0.13877670996E+03  0.16205725743E+03  0.00000000000E+00 0. -1.
        -14    1    4    4    0    0  0.24671935093E+02  0.45293237328E+02 -0.96278026075E+01  0.52467859800E+02  0.00000000000E+00 0.  1.
</event>
<event>
12    1  0.8344842E-002  0.1861836E+03  0.7818608E-02  0.1161960E+00
         21   -1    0    0  501  502  0.00000000000E+00  0.00000000000E+00  0.29867584280E+03  0.29867584280E+03  0.00000000000E+00 0. -1.
         21   -1    0    0  502  503 -0.00000000000E+00 -0.00000000000E+00 -0.13618774536E+03  0.13618774536E+03  0.00000000000E+00 0. -1.
         -6    2    1    2    0  503  0.71568475817E+02 -0.15461567641E-01  0.16490393658E+03  0.24871193771E+03  0.17187865688E+03 0.  0.
        -24    2    3    3    0    0  0.90222135451E+02  0.48682935233E+02  0.14807541845E+03  0.19371392055E+03  0.71335065425E+02 0.  0.
          6    2    1    2  501    0 -0.71568475817E+02  0.15461567641E-01 -0.24158391459E+01  0.18615165044E+03  0.17182710413E+03 0.  0.
         24    2    5    5    0    0  0.24374273323E+00  0.43561376752E+02  0.22443509831E+02  0.98440085106E+02  0.85376145773E+02 0.  0.
          5    1    5    5  501    0 -0.71812218550E+02 -0.43545915185E+02 -0.24859348977E+02  0.87711565338E+02  0.47000000000E+01 0. -1.
        -13    1    6    6    0    0  0.41589466970E+02  0.26035120514E+02  0.21375714788E+02  0.53520392802E+02  0.00000000000E+00 0.  1.
         14    1    6    6    0    0 -0.41345724237E+02  0.17526256239E+02  0.10677950434E+01  0.44919692304E+02  0.00000000000E+00 0. -1.
         -5    1    3    3    0  503 -0.18653659634E+02 -0.48698396801E+02  0.16828518134E+02  0.54998017158E+02  0.47000000000E+01 0.  1.
         11    1    4    4    0    0 -0.49977284687E+01  0.93372831102E+01  0.51232578240E+02  0.52315764535E+02  0.00000000000E+00 0. -1.
        -12    1    4    4    0    0  0.95219863920E+02  0.39345652123E+02  0.96842840210E+02  0.14139815602E+03  0.00000000000E+00 0.  1.
</event>
<event>
12    1  0.8344842E-002  0.1817653E+03  0.7818608E-02  0.1167366E+00
         21   -1    0    0  501  502  0.00000000000E+00  0.00000000000E+00  0.40790669567E+02  0.40790669567E+02  0.00000000000E+00 0.  1.
         21   -1    0    0  502  503 -0.00000000000E+00 -0.00000000000E+00 -0.78704333713E+03  0.78704333713E+03  0.00000000000E+00 0.  1.
         -6    2    1    2    0  503  0.39358960665E+02 -0.17689033135E+01 -0.37179453926E+03  0.41159185265E+03  0.17211745100E+03 0.  0.
        -24    2    3    3    0    0 -0.18538424188E+02  0.29269622354E+02 -0.10496699528E+03  0.13675640102E+03  0.80522414001E+02 0.  0.
          6    2    1    2  501    0 -0.39358960665E+02  0.17689033135E+01 -0.37445812830E+03  0.41624215404E+03  0.17744403103E+03 0.  0.
         24    2    5    5    0    0 -0.50481078479E+02  0.64545314542E+02 -0.20030058592E+03  0.23072256242E+03  0.79988368982E+02 0.  0.
          5    1    5    5  501    0  0.11122117814E+02 -0.62776411229E+02 -0.17415754238E+03  0.18551959163E+03  0.47000000000E+01 0. -1.
        -11    1    6    6    0    0 -0.24475576348E+02  0.50202012463E+02 -0.19189469156E+03  0.19985712032E+03  0.00000000000E+00 0.  1.
         12    1    6    6    0    0 -0.26005502131E+02  0.14343302079E+02 -0.84058943592E+01  0.30865442093E+02  0.00000000000E+00 0. -1.
         -5    1    3    3    0  503  0.57897384853E+02 -0.31038525667E+02 -0.26682754398E+03  0.27483545163E+03  0.47000000000E+01 0.  1.
         11    1    4    4    0    0  0.21343853810E+01  0.36714724587E+02 -0.10844402379E+03  0.11451040520E+03  0.00000000000E+00 0. -1.
        -12    1    4    4    0    0 -0.20672809569E+02 -0.74451022333E+01  0.34770285099E+01  0.22245995819E+02  0.00000000000E+00 0.  1.
</event>
<event>
12    1  0.8344842E-002  0.1749308E+03  0.7818608E-02  0.1172912E+00
         21   -1    0    0  503  502  0.00000000000E+00  0.00000000000E+00  0.13604909781E+04  0.13604909781E+04  0.00000000000E+00 0.  1.
         21   -1    0    0  501  503 -0.00000000000E+00 -0.00000000000E+00 -0.23450896811E+02  0.23450896811E+02  0.00000000000E+00 0.  1.
          6    2    1    2  501    0  0.32844673214E+02 -0.10878776271E+02  0.81167353762E+03  0.83021739800E+03  0.17102595108E+03 0.  0.
         24    2    3    3    0    0 -0.29970450072E+02  0.10830826373E+02  0.65491604369E+03  0.65988816251E+03  0.74309003897E+02 0.  0.
         -6    2    1    2    0  502 -0.32844673214E+02  0.10878776271E+02  0.52536654369E+03  0.55372447692E+03  0.17147498590E+03 0.  0.
        -24    2    5    5    0    0  0.11512878658E+02 -0.52224093758E+02  0.24207965970E+03  0.26008675242E+03  0.78629859469E+02 0.  0.
          5    1    3    3  501    0  0.62815123286E+02 -0.21709602644E+02  0.15675749393E+03  0.17032923549E+03  0.47000000000E+01 0. -1.
        -13    1    4    4    0    0  0.19470306499E+02 -0.70684749307E+01  0.33848394328E+03  0.33911714205E+03  0.00000000000E+00 0.  1.
         14    1    4    4    0    0 -0.49440756571E+02  0.17899301304E+02  0.31643210041E+03  0.32077102046E+03  0.00000000000E+00 0. -1.
         -5    1    5    5    0  502 -0.44357551872E+02  0.63102870029E+02  0.28328688399E+03  0.29363772451E+03  0.47000000000E+01 0.  1.
         11    1    6    6    0    0  0.79149574171E+01  0.20378523522E+02  0.68392238763E+02  0.71801316804E+02  0.00000000000E+00 0. -1.
        -12    1    6    6    0    0  0.35979212405E+01 -0.72602617280E+02  0.17368742094E+03  0.18828543561E+03  0.00000000000E+00 0.  1.
</event>
<event>
12    1  0.8344842E-002  0.3350485E+03  0.7818608E-02  0.1069089E+00
         21   -1    0    0  503  502  0.00000000000E+00  0.00000000000E+00  0.34355853563E+03  0.34355853563E+03  0.00000000000E+00 0.  1.
         21   -1    0    0  501  503 -0.00000000000E+00 -0.00000000000E+00 -0.38390977410E+03  0.38390977410E+03  0.00000000000E+00 0.  1.
          6    2    1    2  501    0  0.27788518791E+03  0.65016614735E+02  0.12192906817E+03  0.35654479924E+03  0.17552822664E+03 0.  0.
         24    2    3    3    0    0  0.74634455840E+02 -0.19075016994E+02  0.62241151963E+02  0.12858208309E+03  0.82007516857E+02 0.  0.
         -6    2    1    2    0  502 -0.27788518791E+03 -0.65016614735E+02 -0.16228030663E+03  0.37092351049E+03  0.17263260082E+03 0.  0.
        -24    2    5    5    0    0 -0.12030921511E+03 -0.25477817945E+01 -0.11411773226E+02  0.14395226415E+03  0.78174339490E+02 0.  0.
          5    1    3    3  501    0  0.20325073207E+03  0.84091631729E+02  0.59687916206E+02  0.22796271615E+03  0.47000000000E+01 0. -1.
        -13    1    4    4    0    0  0.68980791823E+02  0.19985994320E+02  0.49043913831E+02  0.86966057134E+02  0.00000000000E+00 0.  1.
         14    1    4    4    0    0  0.56536640164E+01 -0.39061011314E+02  0.13197238132E+02  0.41616025952E+02  0.00000000000E+00 0. -1.
         -5    1    5    5    0  502 -0.15757597280E+03 -0.62468832941E+02 -0.15086853341E+03  0.22697124634E+03  0.47000000000E+01 0.  1.
         11    1    6    6    0    0 -0.22474938618E+02  0.26040649539E+02 -0.22986164490E+02  0.41371512569E+02  0.00000000000E+00 0. -1.
        -12    1    6    6    0    0 -0.97834276490E+02 -0.28588431333E+02  0.11574391264E+02  0.10258075158E+03  0.00000000000E+00 0.  1.
</event>
<event>
12    1  0.8344842E-002  0.1901263E+03  0.7818608E-02  0.1158432E+00
         21   -1    0    0  501  502  0.00000000000E+00  0.00000000000E+00  0.41404398156E+03  0.41404398156E+03  0.00000000000E+00 0.  1.
         21   -1    0    0  502  503 -0.00000000000E+00 -0.00000000000E+00 -0.11274569566E+03  0.11274569566E+03  0.00000000000E+00 0.  1.
         -6    2    1    2    0  503  0.79686904967E+02  0.11331766684E+02  0.24991404093E+02  0.19138914583E+03  0.17183370770E+03 0.  0.
        -24    2    3    3    0    0  0.32623197802E+02  0.60315872838E+02  0.50061870769E+02  0.11882845753E+03  0.83136838176E+02 0.  0.
          6    2    1    2  501    0 -0.79686904967E+02 -0.11331766684E+02  0.27630688181E+03  0.33540053139E+03  0.17224869161E+03 0.  0.
         24    2    5    5    0    0 -0.95840467994E+02  0.37406691126E+02  0.15152894595E+03  0.20038942760E+03  0.81303415591E+02 0.  0.
          5    1    5    5  501    0  0.16153563027E+02 -0.48738457810E+02  0.12477793587E+03  0.13501110379E+03  0.47000000000E+01 0. -1.
        -11    1    6    6    0    0 -0.68145686487E+02 -0.10257432608E+02  0.11561971851E+03  0.13459928982E+03  0.00000000000E+00 0.  1.
         12    1    6    6    0    0 -0.27694781507E+02  0.47664123734E+02  0.35909227432E+02  0.65790137778E+02  0.00000000000E+00 0. -1.
         -5    1    3    3    0  503  0.47063707166E+02 -0.48984106153E+02 -0.25070466676E+02  0.72560688304E+02  0.47000000000E+01 0.  1.
         11    1    4    4    0    0 -0.27627870845E+02  0.26475442265E+02  0.22787806703E+02  0.44536865907E+02  0.00000000000E+00 0. -1.
        -12    1    4    4    0    0  0.60251068647E+02  0.33840430573E+02  0.27274064066E+02  0.74291591618E+02  0.00000000000E+00 0.  1.
</event>
<event>
12    1  0.8344842E-002  0.2649967E+03  0.7818608E-02  0.1104219E+00
         21   -1    0    0  501  502  0.00000000000E+00  0.00000000000E+00  0.46493355857E+03  0.46493355857E+03  0.00000000000E+00 0.  1.
         21   -1    0    0  502  503 -0.00000000000E+00 -0.00000000000E+00 -0.17284309782E+03  0.17284309782E+03  0.00000000000E+00 0. -1.
         -6    2    1    2    0  503 -0.20227606509E+03  0.71860701105E+01  0.32437621032E+02  0.26697467242E+03  0.17104394272E+03 0.  0.
        -24    2    3    3    0    0 -0.98276199329E+02 -0.53273514970E+01  0.82588252302E+02  0.15074329277E+03  0.78842430628E+02 0.  0.
          6    2    1    2  501    0  0.20227606509E+03 -0.71860701105E+01  0.25965283973E+03  0.37080198397E+03  0.17060852273E+03 0.  0.
         24    2    5    5    0    0  0.12943930542E+03  0.38286850643E+02  0.86985067453E+02  0.17790504345E+03  0.76572748452E+02 0.  0.
          5    1    5    5  501    0  0.72836759669E+02 -0.45472920753E+02  0.17266777227E+03  0.19289694052E+03  0.47000000000E+01 0. -1.
        -13    1    6    6    0    0  0.77727466751E+02  0.13775859996E+02  0.91085276947E+02  0.12053157712E+03  0.00000000000E+00 0.  1.
         14    1    6    6    0    0  0.51711838669E+02  0.24510990647E+02 -0.41002094942E+01  0.57373466332E+02  0.00000000000E+00 0. -1.
         -5    1    3    3    0  503 -0.10399986576E+03  0.12513421607E+02 -0.50150631270E+02  0.11623137965E+03  0.47000000000E+01 0.  1.
         13    1    4    4    0    0  0.19130058485E+01 -0.24031290549E+02  0.13736718990E+02  0.27746350489E+02  0.00000000000E+00 0. -1.
        -14    1    4    4    0    0 -0.10018920518E+03  0.18703939052E+02  0.68851533312E+02  0.12299694228E+03  0.00000000000E+00 0.  1.
</event>
<event>
12    1  0.8344842E-002  0.1868129E+03  0.7818608E-02  0.1161465E+00
         21   -1    0    0  503  502  0.00000000000E+00  0.00000000000E+00  0.25813324720E+04  0.25813324720E+04  0.00000000000E+00 0.  1.
         21   -1    0    0  501  503 -0.00000000000E+00 -0.00000000000E+00 -0.17333251328E+02  0.17333251328E+02  0.00000000000E+00 0.  1.
          6    2    1    2  501    0 -0.61598924789E+02  0.38156424741E+02  0.66899400846E+03  0.69447460765E+03  0.17173135134E+03 0.  0.
         24    2    3    3    0    0 -0.89453831887E+02  0.45584672705E+02  0.32984319966E+03  0.35406832712E+03  0.80547461050E+02 0.  0.
         -6    2    1    2    0  502  0.61598924789E+02 -0.38156424741E+02  0.18950052122E+04  0.19041911157E+04  0.17218800895E+03 0.  0.
        -24    2    5    5    0    0  0.39014465956E+02 -0.12560488506E+02  0.18142516134E+04  0.18163933739E+04  0.78077383150E+02 0.  0.
          5    1    3    3  501    0  0.27854907098E+02 -0.74282479636E+01  0.33915080880E+03  0.34040628054E+03  0.47000000000E+01 0. -1.
        -11    1    4    4    0    0  0.38107972477E+01  0.12613665606E+02  0.43512009330E+01  0.13876587665E+02  0.00000000000E+00 0.  1.
         12    1    4    4    0    0 -0.93264629135E+02  0.32971007099E+02  0.32549199873E+03  0.34019173945E+03  0.00000000000E+00 0. -1.
         -5    1    5    5    0  502  0.22584458834E+02 -0.25595936235E+02  0.80753598843E+02  0.87797741763E+02  0.47000000000E+01 0.  1.
         11    1    6    6    0    0  0.15259984043E+02  0.30635963514E+02  0.47329132993E+03  0.47452725144E+03  0.00000000000E+00 0. -1.
        -12    1    6    6    0    0  0.23754481913E+02 -0.43196452020E+02  0.13409602835E+04  0.13418661225E+04  0.00000000000E+00 0.  1.
</event>
<event>
12    1  0.8344842E-002  0.1843112E+03  0.7818608E-02  0.1163771E+00
         21   -1    0    0  503  502  0.00000000000E+00  0.00000000000E+00  0.57727029548E+03  0.57727029548E+03  0.00000000000E+00 0.  1.
         21   -1    0    0  501  503 -0.00000000000E+00 -0.00000000000E+00 -0.66805885615E+02  0.66805885615E+02  0.00000000000E+00 0.  1.
          6    2    1    2  501    0  0.25840438361E+02  0.61642740750E+02  0.14316060754E+03  0.23312278825E+03  0.17141679938E+03 0.  0.
         24    2    3    3    0    0 -0.23402075967E+02  0.80916574415E+02  0.51866288231E+02  0.12751479320E+03  0.80465902437E+02 0.  0.
         -6    2    1    2    0  502 -0.25840438361E+02 -0.61642740750E+02  0.36730380233E+03  0.41095339285E+03  0.17176452527E+03 0.  0.
        -24    2    5    5    0    0 -0.36556577626E+02 -0.99214024223E+02  0.19300902421E+03  0.23227156203E+03  0.74281822355E+02 0.  0.
          5    1    3    3  501    0  0.49242514328E+02 -0.19273833665E+02  0.91294319307E+02  0.10560799505E+03  0.47000000000E+01 0. -1.
        -13    1    4    4    0    0 -0.17548678408E+02  0.63814578922E+02  0.73775446678E+02  0.99111417754E+02  0.00000000000E+00 0.  1.
         14    1    4    4    0    0 -0.58533975595E+01  0.17101995493E+02 -0.21909158446E+02  0.28403375445E+02  0.00000000000E+00 0. -1.
         -5    1    5    5    0  502  0.10716139265E+02  0.37571283473E+02  0.17429477812E+03  0.17868183081E+03  0.47000000000E+01 0.  1.
         13    1    6    6    0    0 -0.17895988619E+02 -0.19428753535E+02  0.45947298651E+01  0.26811460518E+02  0.00000000000E+00 0. -1.
        -14    1    6    6    0    0 -0.18660589007E+02 -0.79785270688E+02  0.18841429434E+03  0.20546010151E+03  0.00000000000E+00 0.  1.
</event>
<event>
12    1  0.8344842E-002  0.2447465E+03  0.7818608E-02  0.1117278E+00
         21   -1    0    0  503  502  0.00000000000E+00  0.00000000000E+00  0.30012249882E+03  0.30012249882E+03  0.00000000000E+00 0.  1.
         21   -1    0    0  501  503 -0.00000000000E+00 -0.00000000000E+00 -0.39431732237E+03  0.39431732237E+03  0.00000000000E+00 0. -1.
          6    2    1    2  501    0  0.15257255134E+03  0.74846118228E+02 -0.29315904181E+03  0.38189405615E+03  0.17612643610E+03 0.  0.
         24    2    3    3    0    0  0.69222727074E+02  0.65518081776E+02 -0.26877487585E+03  0.29442472999E+03  0.73222829492E+02 0.  0.
         -6    2    1    2    0  502 -0.15257255134E+03 -0.74846118228E+02  0.19896421826E+03  0.31254576504E+03  0.17093206330E+03 0.  0.
        -24    2    5    5    0    0 -0.12270342931E+03 -0.82339147179E+01  0.74984267123E+02  0.16859275746E+03  0.87618198092E+02 0.  0.
          5    1    3    3  501    0  0.83349824266E+02  0.93280364524E+01 -0.24384165956E+02  0.87469326158E+02  0.47000000000E+01 0. -1.
        -13    1    4    4    0    0  0.17314207307E+02  0.40419430774E+02 -0.19952953799E+03  0.20431727457E+03  0.00000000000E+00 0.  1.
         14    1    4    4    0    0  0.51908519767E+02  0.25098651002E+02 -0.69245337863E+02  0.90107455420E+02  0.00000000000E+00 0. -1.
         -5    1    5    5    0  502 -0.29869122028E+02 -0.66612203511E+02  0.12397995114E+03  0.14395300758E+03  0.47000000000E+01 0.  1.
         11    1    6    6    0    0 -0.32755995547E+01 -0.29260570088E+02  0.18894115516E+02  0.34984255250E+02  0.00000000000E+00 0. -1.
        -12    1    6    6    0    0 -0.11942782976E+03  0.21026655370E+02  0.56090151607E+02  0.13360850221E+03  0.00000000000E+00 0.  1.
</event>
<event>
12    1  0.8344842E-002  0.1787738E+03  0.7818608E-02  0.1169096E+00
         21   -1    0    0  503  502  0.00000000000E+00  0.00000000000E+00  0.58017449703E+03  0.58017449703E+03  0.00000000000E+00 0.  1.
         21   -1    0    0  501  503 -0.00000000000E+00 -0.00000000000E+00 -0.12980290120E+03  0.12980290120E+03  0.00000000000E+00 0.  1.
          6    2    1    2  501    0 -0.55000677535E+01 -0.46787356891E+02 -0.44259855127E+02  0.18417112466E+03  0.17245509813E+03 0.  0.
         24    2    3    3    0    0 -0.27070218169E+02  0.17390283678E+02  0.23920105795E+02  0.87970095508E+02  0.78302921812E+02 0.  0.
         -6    2    1    2    0  502  0.55000677535E+01  0.46787356891E+02  0.49463145095E+03  0.52580627358E+03  0.17202516547E+03 0.  0.
        -24    2    5    5    0    0  0.19466938609E+02 -0.37839243604E+01  0.44271551730E+03  0.45184762205E+03  0.88181429522E+02 0.  0.
          5    1    3    3  501    0  0.21570150416E+02 -0.64177640568E+02 -0.68179960921E+02  0.96201029148E+02  0.47000000000E+01 0. -1.
        -11    1    4    4    0    0 -0.45192024963E+02  0.38183613220E+01  0.39780107218E+02  0.60327074633E+02  0.00000000000E+00 0.  1.
         12    1    4    4    0    0  0.18121806794E+02  0.13571922356E+02 -0.15860001424E+02  0.27643020875E+02  0.00000000000E+00 0. -1.
         -5    1    5    5    0  502 -0.13966870855E+02  0.50571281251E+02  0.51915933651E+02  0.73958651527E+02  0.47000000000E+01 0.  1.
         11    1    6    6    0    0 -0.18835111517E+02  0.95086761303E+01  0.27520712928E+02  0.34678033215E+02  0.00000000000E+00 0. -1.
        -12    1    6    6    0    0  0.38302050126E+02 -0.13292600491E+02  0.41519480437E+03  0.41716958884E+03  0.00000000000E+00 0.  1.
</event>
<event>
12    1  0.8344842E-002  0.1862706E+03  0.7818608E-02  0.1162030E+00
         21   -1    0    0  503  502  0.00000000000E+00  0.00000000000E+00  0.52791130542E+03  0.52791130542E+03  0.00000000000E+00 0. -1.
         21   -1    0    0  501  503 -0.00000000000E+00 -0.00000000000E+00 -0.39659400000E+03  0.39659400000E+03  0.00000000000E+00 0.  1.
          6    2    1    2  501    0  0.72312682083E+02 -0.83837056724E+01 -0.35673361641E+03  0.40211615440E+03  0.17070183960E+03 0.  0.
         24    2    3    3    0    0  0.87703570279E+02 -0.57045719493E+02 -0.19789617480E+03  0.23521410562E+03  0.72226374210E+02 0.  0.
         -6    2    1    2    0  502 -0.72312682083E+02  0.83837056724E+01  0.48805092183E+03  0.52238915102E+03  0.17145644429E+03 0.  0.
        -24    2    5    5    0    0 -0.10801424323E+03 -0.26128702724E+01  0.26549463876E+03  0.29667048700E+03  0.76498828837E+02 0.  0.
          5    1    3    3  501    0 -0.15390888196E+02  0.48662013821E+02 -0.15883744162E+03  0.16690204878E+03  0.47000000000E+01 0. -1.
        -11    1    4    4    0    0  0.85595244224E+02 -0.21615806786E+02 -0.11452238293E+03  0.14460001773E+03  0.00000000000E+00 0.  1.
         12    1    4    4    0    0  0.21083260548E+01 -0.35429912707E+02 -0.83373791869E+02  0.90614087888E+02  0.00000000000E+00 0. -1.
         -5    1    5    5    0  502  0.35701561152E+02  0.10996575945E+02  0.22255628307E+03  0.22571866402E+03  0.47000000000E+01 0.  1.
         11    1    6    6    0    0 -0.23678781499E+02  0.22871569549E+02  0.13681841916E+03  0.14072339255E+03  0.00000000000E+00 0. -1.
        -12    1    6    6    0    0 -0.84335461735E+02 -0.25484439822E+02  0.12867621960E+03  0.15594709446E+03  0.00000000000E+00 0.  1.
</event>
<event>
12    1  0.8344842E-002  0.1794921E+03  0.7818608E-02  0.1168347E+00
         21   -1    0    0  503  502  0.00000000000E+00  0.00000000000E+00  0.35939204760E+03  0.35939204760E+03  0.00000000000E+00 0. -1.
         21   -1    0    0  501  503 -0.00000000000E+00 -0.00000000000E+00 -0.93390992527E+02  0.93390992527E+02  0.00000000000E+00 0. -1.
          6    2    1    2  501    0 -0.32296806068E+02  0.38686536137E+02  0.87093880147E+02  0.19950632728E+03  0.17227216521E+03 0.  0.
         24    2    3    3    0    0  0.13455466359E+02 -0.24151398875E+02  0.22681515970E+01  0.84356986277E+02  0.79665657467E+02 0.  0.
         -6    2    1    2    0  502  0.32296806068E+02 -0.38686536137E+02  0.17890717493E+03  0.25327671285E+03  0.17205110948E+03 0.  0.
        -24    2    5    5    0    0  0.14208986955E+02 -0.91200527928E+02  0.13717829321E+03  0.18364713506E+03  0.79930935707E+02 0.  0.
          5    1    3    3  501    0 -0.45752272427E+02  0.62837935012E+02  0.84825728550E+02  0.11514934100E+03  0.47000000000E+01 0. -1.
        -13    1    4    4    0    0 -0.12078150365E+02 -0.44162272308E+02 -0.14253332567E+02  0.47951491122E+02  0.00000000000E+00 0.  1.
         14    1    4    4    0    0  0.25533616723E+02  0.20010873432E+02  0.16521484164E+02  0.36405495155E+02  0.00000000000E+00 0. -1.
         -5    1    5    5    0  502  0.18087819113E+02  0.52513991791E+02  0.41728881719E+02  0.69629577793E+02  0.47000000000E+01 0.  1.
         13    1    6    6    0    0  0.31686324980E+02 -0.87115849283E+02  0.13734139801E+03  0.16569808084E+03  0.00000000000E+00 0. -1.
        -14    1    6    6    0    0 -0.17477338025E+02 -0.40846786453E+01 -0.16310480304E+00  0.17949054216E+02  0.00000000000E+00 0.  1.
</event>
<event>
12    1  0.8344842E-002  0.2887796E+03  0.7818608E-02  0.1091068E+00
         21   -1    0    0  503  502  0.00000000000E+00  0.00000000000E+00  0.79003168302E+03  0.79003168302E+03  0.00000000000E+00 0. -1.
         21   -1    0    0  501  503 -0.00000000000E+00 -0.00000000000E+00 -0.20801894344E+03  0.20801894344E+03  0.00000000000E+00 0.  1.
          6    2    1    2  501    0  0.12055218033E+03 -0.19736857424E+03 -0.59755866685E+02  0.29430309690E+03  0.17191965263E+03 0.  0.
         24    2    3    3    0    0  0.11902062778E+03 -0.20595721596E+03 -0.86303271668E+02  0.26596645752E+03  0.81887832928E+02 0.  0.
         -6    2    1    2    0  502 -0.12055218033E+03  0.19736857424E+03  0.64176860626E+03  0.70374752956E+03  0.17293484063E+03 0.  0.
        -24    2    5    5    0    0 -0.12932464978E+03  0.14631233583E+03  0.60372427195E+03  0.63930253694E+03  0.78054932842E+02 0.  0.
          5    1    3    3  501    0  0.15315525468E+01  0.85886417190E+01  0.26547404982E+02  0.28336639375E+02  0.47000000000E+01 0. -1.
        -11    1    4    4    0    0  0.22205118273E+02 -0.69729544360E+02  0.87485399541E+01  0.73700838432E+02  0.00000000000E+00 0.  1.
         12    1    4    4    0    0  0.96815509511E+02 -0.13622767160E+03 -0.95051811622E+02  0.19226561909E+03  0.00000000000E+00 0. -1.
         -5    1    5    5    0  502  0.87724694456E+01  0.51056238415E+02  0.38044334311E+02  0.64444992625E+02  0.47000000000E+01 0.  1.
         13    1    6    6    0    0 -0.23965606339E+02  0.83999052568E+02  0.27421880918E+03  0.28779532037E+03  0.00000000000E+00 0. -1.
        -14    1    6    6    0    0 -0.10535904344E+03  0.62313283262E+02  0.32950546277E+03  0.35150721657E+03  0.00000000000E+00 0.  1.
</event>
<event>
12    1  0.8344842E-002  0.2183937E+03  0.7818608E-02  0.1135280E+00
         21   -1    0    0  501  502  0.00000000000E+00  0.00000000000E+00  0.81307582352E+02  0.81307582352E+02  0.00000000000E+00 0.  1.
         21   -1    0    0  502  503 -0.00000000000E+00 -0.00000000000E+00 -0.67819948427E+03  0.67819948427E+03  0.00000000000E+00 0.  1.
         -6    2    1    2    0  503 -0.57901084722E+02 -0.12115768914E+03 -0.43947922202E+03  0.49029606465E+03  0.17092841533E+03 0.  0.
        -24    2    3    3    0    0 -0.79728304695E+02 -0.60195226413E+02 -0.38481321261E+03  0.40542373713E+03  0.79417442487E+02 0.  0.
          6    2    1    2  501    0  0.57901084722E+02  0.12115768914E+03 -0.15741267990E+03  0.26921100198E+03  0.17223266398E+03 0.  0.
         24    2    5    5    0    0  0.93098687929E+02  0.69261997884E+02 -0.61348166612E+02  0.15439586902E+03  0.81301271699E+02 0.  0.
          5    1    5    5  501    0 -0.35197603207E+02  0.51895691259E+02 -0.96064513283E+02  0.11481513295E+03  0.47000000000E+01 0. -1.
        -13    1    6    6    0    0  0.78496623525E+02  0.16481687738E+02 -0.59021243448E+02  0.99583498199E+02  0.00000000000E+00 0.  1.
         14    1    6    6    0    0  0.14602064404E+02  0.52780310146E+02 -0.23269231640E+01  0.54812370824E+02  0.00000000000E+00 0. -1.
         -5    1    3    3    0  503  0.21827219973E+02 -0.60962462729E+02 -0.54666009412E+02  0.84872327521E+02  0.47000000000E+01 0.  1.
         11    1    4    4    0    0 -0.20530059742E+01 -0.12910302801E+02 -0.18981061019E+03  0.19026023887E+03  0.00000000000E+00 0. -1.
        -12    1    4    4    0    0 -0.77675298721E+02 -0.47284923612E+02 -0.19500260242E+03  0.21516349826E+03  0.00000000000E+00 0.  1.
</event>
<event>
12    1  0.8344842E-002  0.1737163E+03  0.7818608E-02  0.1174167E+00
         21   -1    0    0  501  502  0.00000000000E+00  0.00000000000E+00  0.17423192637E+03  0.17423192637E+03  0.00000000000E+00 0.  1.
         21   -1    0    0  502  503 -0.00000000000E+00 -0.00000000000E+00 -0.26545382402E+03  0.26545382402E+03  0.00000000000E+00 0.  1.
         -6    2    1    2    0  503  0.21552708329E+02  0.36970161993E+01 -0.17555025737E+03  0.24658307817E+03  0.17177640820E+03 0.  0.
        -24    2    3    3    0    0  0.69311438963E+02  0.25295241997E+02 -0.70496925569E+02  0.12908553679E+03  0.79052732108E+02 0.  0.
          6    2    1    2  501    0 -0.21552708329E+02 -0.36970161993E+01  0.84328359719E+02  0.19310267222E+03  0.17233450787E+03 0.  0.
         24    2    5    5    0    0 -0.16530616613E+02 -0.68315645176E+02  0.71994541360E+02  0.12695887666E+03  0.77427732215E+02 0.  0.
          5    1    5    5  501    0 -0.50220917159E+01  0.64618628977E+02  0.12333818359E+02  0.66143795562E+02  0.47000000000E+01 0. -1.
        -11    1    6    6    0    0 -0.21551897302E+02 -0.21876137802E+02 -0.10250833979E+02  0.32374824783E+02  0.00000000000E+00 0.  1.
         12    1    6    6    0    0  0.50212806888E+01 -0.46439507374E+02  0.82245375340E+02  0.94584051878E+02  0.00000000000E+00 0. -1.
         -5    1    3    3    0  503 -0.47758730634E+02 -0.21598225798E+02 -0.10505333180E+03  0.11749754138E+03  0.47000000000E+01 0.  1.
         13    1    4    4    0    0  0.30514840245E+01 -0.20184389025E+02  0.24366425460E+01  0.20558656132E+02  0.00000000000E+00 0. -1.
        -14    1    4    4    0    0  0.66259954938E+02  0.45479631022E+02 -0.72933568115E+02  0.10852688065E+03  0.00000000000E+00 0.  1.
</event>
<event>
12    1  0.8344842E-002  0.3168916E+03  0.7818608E-02  0.1077094E+00
         21   -1    0    0  503  502  0.00000000000E+00  0.00000000000E+00  0.15831337348E+03  0.15831337348E+03  0.00000000000E+00 0.  1.
         21   -1    0    0  501  503 -0.00000000000E+00 -0.00000000000E+00 -0.64859965765E+03  0.64859965765E+03  0.00000000000E+00 0. -1.
          6    2    1    2  501    0 -0.26520298208E+03  0.13760914226E+02 -0.30522490395E+03  0.43998011421E+03  0.17291117501E+03 0.  0.
         24    2    3    3    0    0 -0.87451750623E+02  0.60015134176E+02 -0.13395361905E+03  0.18880110199E+03  0.80328444766E+02 0.  0.
         -6    2    1    2    0  502  0.26520298208E+03 -0.13760914226E+02 -0.18506138023E+03  0.36693291692E+03  0.17282958834E+03 0.  0.
        -24    2    5    5    0    0  0.27440419714E+03 -0.15256318247E+02 -0.13565774638E+03  0.31643828721E+03  0.78738470942E+02 0.  0.
          5    1    3    3  501    0 -0.17775123146E+03 -0.46254219950E+02 -0.17127128490E+03  0.25117901222E+03  0.47000000000E+01 0. -1.
        -13    1    4    4    0    0  0.13481985296E+02 -0.29514456787E+01 -0.17933159535E+02  0.22629033785E+02  0.00000000000E+00 0.  1.
         14    1    4    4    0    0 -0.10093373592E+03  0.62966579855E+02 -0.11602045952E+03  0.16617206820E+03  0.00000000000E+00 0. -1.
         -5    1    5    5    0  502 -0.92012150614E+01  0.14954040210E+01 -0.49403633854E+02  0.50494629712E+02  0.47000000000E+01 0.  1.
         11    1    6    6    0    0  0.14770052375E+03 -0.19241859335E+01 -0.11537343518E+03  0.18743045845E+03  0.00000000000E+00 0. -1.
        -12    1    6    6    0    0  0.12670367339E+03 -0.13332132313E+02 -0.20284311198E+02  0.12900782877E+03  0.00000000000E+00 0.  1.
</event>
<event>
12    1  0.8344842E-002  0.1918007E+03  0.7818608E-02  0.1157415E+00
         21   -1    0    0  501  502  0.00000000000E+00  0.00000000000E+00  0.14008153595E+03  0.14008153595E+03  0.00000000000E+00 0.  1.
         21   -1    0    0  502  503 -0.00000000000E+00 -0.00000000000E+00 -0.25923350373E+03  0.25923350373E+03  0.00000000000E+00 0.  1.
         -6    2    1    2    0  503  0.96113680340E+01 -0.84064564303E+02 -0.55779799075E+02  0.19731615410E+03  0.16930165184E+03 0.  0.
        -24    2    3    3    0    0  0.32202688742E+02  0.56810898315E+01  0.29112997282E+01  0.87628482564E+02  0.81246460517E+02 0.  0.
          6    2    1    2  501    0 -0.96113680340E+01  0.84064564303E+02 -0.63372168707E+02  0.20199888559E+03  0.17212869791E+03 0.  0.
         24    2    5    5    0    0  0.46872501678E+02  0.83507843060E+02 -0.10489322385E+02  0.12447841789E+03  0.78830573835E+02 0.  0.
          5    1    5    5  501    0 -0.56483869712E+02  0.55672124263E+00 -0.52882846323E+02  0.77520467693E+02  0.47000000000E+01 0. -1.
        -11    1    6    6    0    0 -0.32350874709E+01  0.65358622708E+02 -0.23655354114E+02  0.69582980185E+02  0.00000000000E+00 0.  1.
         12    1    6    6    0    0  0.50107589149E+02  0.18149220352E+02  0.13166031729E+02  0.54895437708E+02  0.00000000000E+00 0. -1.
         -5    1    3    3    0  503 -0.22591320708E+02 -0.89745654134E+02 -0.58691098803E+02  0.10968767153E+03  0.47000000000E+01 0.  1.
         11    1    4    4    0    0  0.29465777783E+02  0.41916003288E+02  0.21842616290E+01  0.51283080941E+02  0.00000000000E+00 0. -1.
        -12    1    4    4    0    0  0.27369109588E+01 -0.36234913456E+02  0.72703809923E+00  0.36345401623E+02  0.00000000000E+00 0.  1.
</event>
<event>
12    1  0.8344842E-002  0.2097231E+03  0.7818608E-02  0.1141875E+00
         21   -1    0    0  501  502  0.00000000000E+00  0.00000000000E+00  0.18881594349E+02  0.18881594349E+02  0.00000000000E+00 0.  1.
         21   -1    0    0  502  503 -0.00000000000E+00 -0.00000000000E+00 -0.24362500746E+04  0.24362500746E+04  0.00000000000E+00 0.  1.
         -6    2    1    2    0  503  0.11668371376E+03  0.22343584255E+02 -0.14704297446E+04  0.14852467454E+04  0.17227865813E+03 0.  0.
        -24    2    3    3    0    0  0.10042856917E+03 -0.42945744975E+02 -0.80484498391E+03  0.81625340468E+03  0.81018133857E+02 0.  0.
          6    2    1    2  501    0 -0.11668371376E+03 -0.22343584255E+02 -0.94693873573E+03  0.96988492364E+03  0.17282786545E+03 0.  0.
         24    2    5    5    0    0 -0.54289276568E+02  0.25161291271E+02 -0.26678154760E+03  0.28520567790E+03  0.81175540884E+02 0.  0.
          5    1    5    5  501    0 -0.62394437195E+02 -0.47504875526E+02 -0.68015718813E+03  0.68467924574E+03  0.47000000000E+01 0. -1.
        -13    1    6    6    0    0  0.87308166079E+01  0.32077384064E+02 -0.13404402562E+03  0.13810498373E+03  0.00000000000E+00 0.  1.
         14    1    6    6    0    0 -0.63020093176E+02 -0.69160927927E+01 -0.13273752198E+03  0.14710069417E+03  0.00000000000E+00 0. -1.
         -5    1    3    3    0  503  0.16255144592E+02  0.65289329230E+02 -0.66558476066E+03  0.66899334067E+03  0.47000000000E+01 0.  1.
         13    1    4    4    0    0 -0.12453430861E+02  0.48879291914E+01 -0.75488838153E+02  0.76665145129E+02  0.00000000000E+00 0. -1.
        -14    1    4    4    0    0  0.11288200003E+03 -0.47833674167E+02 -0.72935614576E+03  0.73958825955E+03  0.00000000000E+00 0.  1.
</event>
<event>
12    1  0.8344842E-002  0.1919735E+03  0.7818608E-02  0.1156798E+00
         21   -1    0    0  501  502  0.00000000000E+00  0.00000000000E+00  0.14403529020E+04  0.14403529020E+04  0.00000000000E+00 0.  1.
         21   -1    0    0  502  503 -0.00000000000E+00 -0.00000000000E+00 -0.31381582620E+02  0.31381582620E+02  0.00000000000E+00 0.  1.
         -6    2    1    2    0  503 -0.84390967469E+02 -0.13486696867E+02  0.10216996069E+04  0.10394924064E+04  0.17137867394E+03 0.  0.
        -24    2    3    3    0    0  0.16862152686E+02  0.22519579265E+02  0.27158663701E+03  0.28170602236E+03  0.69336267494E+02 0.  0.
          6    2    1    2  501    0  0.84390967469E+02  0.13486696867E+02  0.38727171246E+03  0.43224207818E+03  0.17190144995E+03 0.  0.
         24    2    5    5    0    0  0.10756100031E+03 -0.34516664867E+02  0.27279791051E+03  0.30587944726E+03  0.79892223266E+02 0.  0.
          5    1    5    5  501    0 -0.23170032838E+02  0.48003361734E+02  0.11447380195E+03  0.12636263092E+03  0.47000000000E+01 0. -1.
        -13    1    6    6    0    0  0.41445983189E+02  0.18748339886E+02  0.50747446702E+02  0.68151105037E+02  0.00000000000E+00 0.  1.
         14    1    6    6    0    0  0.66115017118E+02 -0.53265004753E+02  0.22205046381E+03  0.23772834222E+03  0.00000000000E+00 0. -1.
         -5    1    3    3    0  503 -0.10125312016E+03 -0.36006276132E+02  0.75011296987E+03  0.75778638404E+03  0.47000000000E+01 0.  1.
         11    1    4    4    0    0  0.27457062182E+02  0.22570484447E+02  0.26825509491E+03  0.27059954356E+03  0.00000000000E+00 0. -1.
        -12    1    4    4    0    0 -0.10594909496E+02 -0.50905182586E-01  0.33315420998E+01  0.11106478800E+02  0.00000000000E+00 0.  1.
</event>
<event>
12    1  0.8344842E-002  0.1935887E+03  0.7818608E-02  0.1156442E+00
         21   -1    0    0  501  502  0.00000000000E+00  0.00000000000E+00  0.27194332170E+03  0.27194332170E+03  0.00000000000E+00 0. -1.
         21   -1    0    0  502  503 -0.00000000000E+00 -0.00000000000E+00 -0.29815127840E+03  0.29815127840E+03  0.00000000000E+00 0. -1.
         -6    2    1    2    0  503  0.76342672321E+02 -0.19946834135E+02 -0.22463010948E+03  0.29653880728E+03  0.17677810479E+03 0.  0.
        -24    2    3    3    0    0  0.26757820953E+02 -0.84325851886E+01 -0.22940107470E+02  0.88471072343E+02  0.80708070449E+02 0.  0.
          6    2    1    2  501    0 -0.76342672321E+02  0.19946834135E+02  0.19842215277E+03  0.27355579281E+03  0.17098345318E+03 0.  0.
         24    2    5    5    0    0 -0.10725104194E+03  0.29895135432E+02  0.99335343883E+02  0.16917867987E+03  0.79733368533E+02 0.  0.
          5    1    5    5  501    0  0.30908369620E+02 -0.99483012976E+01  0.99086808889E+02  0.10437711295E+03  0.47000000000E+01 0. -1.
        -13    1    6    6    0    0  0.70626376649E+01 -0.12207637739E+02  0.17257694291E+02  0.22287558910E+02  0.00000000000E+00 0.  1.
         14    1    6    6    0    0 -0.11431367961E+03  0.42102773171E+02  0.82077649592E+02  0.14689112096E+03  0.00000000000E+00 0. -1.
         -5    1    3    3    0  503  0.49584851368E+02 -0.11514248946E+02 -0.20169000201E+03  0.20806773494E+03  0.47000000000E+01 0.  1.
         13    1    4    4    0    0 -0.27282237738E+02 -0.56413273953E+00 -0.19905867468E+02  0.33776949261E+02  0.00000000000E+00 0. -1.
        -14    1    4    4    0    0  0.54040058691E+02 -0.78684524491E+01 -0.30342400016E+01  0.54694123081E+02  0.00000000000E+00 0.  1.
</event>
<event>
12    1  0.8344842E-002  0.1794788E+03  0.7818608E-02  0.1170747E+00
         21   -1    0    0  503  502  0.00000000000E+00  0.00000000000E+00  0.10421049120E+03  0.10421049120E+03  0.00000000000E+00 0. -1.
         21   -1    0    0  501  503 -0.00000000000E+00 -0.00000000000E+00 -0.42679297266E+03  0.42679297266E+03  0.00000000000E+00 0. -1.
          6    2    1    2  501    0  0.44467303955E+02 -0.81044229694E+01 -0.31323818219E+03  0.36101356405E+03  0.17369401790E+03 0.  0.
         24    2    3    3    0    0 -0.42364206730E+02 -0.18002612131E+02 -0.15323273801E+03  0.17863615984E+03  0.79446746637E+02 0.  0.
         -6    2    1    2    0  502 -0.44467303955E+02  0.81044229694E+01 -0.93442992653E+01  0.16998989981E+03  0.16360387317E+03 0.  0.
        -24    2    5    5    0    0 -0.37314306804E+01 -0.38026618075E+02  0.39460199494E+02  0.91304110638E+02  0.72934121082E+02 0.  0.
          5    1    3    3  501    0  0.86831510685E+02  0.98981891612E+01 -0.16000544419E+03  0.18237740421E+03  0.47000000000E+01 0. -1.
        -11    1    4    4    0    0  0.98739687353E+01  0.17333052485E+01  0.47363234956E+01  0.11087486908E+02  0.00000000000E+00 0.  1.
         12    1    4    4    0    0 -0.52238175465E+02 -0.19735917379E+02 -0.15796906150E+03  0.16754867294E+03  0.00000000000E+00 0. -1.
         -5    1    5    5    0  502 -0.40735873275E+02  0.46131041044E+02 -0.48804498759E+02  0.78685789177E+02  0.47000000000E+01 0.  1.
         11    1    6    6    0    0  0.27681213005E+02 -0.28780482512E+02 -0.12297459539E+00  0.39932203167E+02  0.00000000000E+00 0. -1.
        -12    1    6    6    0    0 -0.31412643685E+02 -0.92461355633E+01  0.39583174089E+02  0.51371907470E+02  0.00000000000E+00 0.  1.
</event>
<event>
12    1  0.8344842E-002  0.2057032E+03  0.7818608E-02  0.1146770E+00
         21   -1    0    0  501  502  0.00000000000E+00  0.00000000000E+00  0.36970444278E+02  0.36970444278E+02  0.00000000000E+00 0. -1.
         21   -1    0    0  502  503 -0.00000000000E+00 -0.00000000000E+00 -0.11089612408E+04  0.11089612408E+04  0.00000000000E+00 0. -1.
         -6    2    1    2    0  503 -0.62468116753E+02  0.72065543605E+02 -0.58172698423E+03  0.61426223843E+03  0.17267340615E+03 0.  0.
        -24    2    3    3    0    0 -0.29508146334E+02  0.32977771340E+02 -0.54145943247E+03  0.54901057703E+03  0.79221414878E+02 0.  0.
          6    2    1    2  501    0  0.62468116753E+02 -0.72065543605E+02 -0.49026381228E+03  0.53166944664E+03  0.18225829658E+03 0.  0.
         24    2    5    5    0    0 -0.22508997074E+02  0.17481169313E+02 -0.17889477210E+03  0.19668811455E+03  0.76620027985E+02 0.  0.
          5    1    5    5  501    0  0.84977113827E+02 -0.89546712917E+02 -0.31136904018E+03  0.33498133209E+03  0.47000000000E+01 0. -1.
        -11    1    6    6    0    0 -0.10519414977E+02  0.45083192745E+02 -0.14034404313E+03  0.14778228176E+03  0.00000000000E+00 0.  1.
         12    1    6    6    0    0 -0.11989582097E+02 -0.27602023432E+02 -0.38550728970E+02  0.48905832786E+02  0.00000000000E+00 0. -1.
         -5    1    3    3    0  503 -0.32959970419E+02  0.39087772265E+02 -0.40267551757E+02  0.65251661398E+02  0.47000000000E+01 0.  1.
         11    1    4    4    0    0 -0.13201811502E+02  0.39554589898E+02 -0.11738205203E+03  0.12456885464E+03  0.00000000000E+00 0. -1.
        -12    1    4    4    0    0 -0.16306334832E+02 -0.65768185578E+01 -0.42407738045E+03  0.42444172239E+03  0.00000000000E+00 0.  1.
</event>
<event>
12    1  0.8344842E-002  0.2567047E+03  0.7818608E-02  0.1109326E+00
         21   -1    0    0  503  502  0.00000000000E+00  0.00000000000E+00  0.19962731401E+03  0.19962731401E+03  0.00000000000E+00 0. -1.
         21   -1    0    0  501  503 -0.00000000000E+00 -0.00000000000E+00 -0.34050051026E+03  0.34050051026E+03  0.00000000000E+00 0. -1.
          6    2    1    2  501    0  0.17209074370E+03  0.80467374132E+02 -0.19980486964E+02  0.25748113694E+03  0.17264731000E+03 0.  0.
         24    2    3    3    0    0  0.10844272410E+03  0.21075014923E+02 -0.74871348457E+02  0.15445871507E+03  0.77767571499E+02 0.  0.
         -6    2    1    2    0  502 -0.17209074370E+03 -0.80467374132E+02 -0.12089270928E+03  0.28264668733E+03  0.17083290179E+03 0.  0.
        -24    2    5    5    0    0 -0.10253182371E+03 -0.81502126292E+02 -0.14279434863E+03  0.20956258599E+03  0.79817792390E+02 0.  0.
          5    1    3    3  501    0  0.63648019601E+02  0.59392359209E+02  0.54890861494E+02  0.10302242187E+03  0.47000000000E+01 0. -1.
        -11    1    4    4    0    0 -0.97924204629E+01 -0.75913532071E+01 -0.17456884099E+01  0.12512696355E+02  0.00000000000E+00 0.  1.
         12    1    4    4    0    0  0.11823514457E+03  0.28666368130E+02 -0.73125660047E+02  0.14194601872E+03  0.00000000000E+00 0. -1.
         -5    1    5    5    0  502 -0.69558919994E+02  0.10347521601E+01  0.21901639354E+02  0.73084101343E+02  0.47000000000E+01 0.  1.
         11    1    6    6    0    0 -0.52777830423E+02 -0.13850051307E+01 -0.24301785163E+02  0.58120516046E+02  0.00000000000E+00 0. -1.
        -12    1    6    6    0    0 -0.49753993288E+02 -0.80117121161E+02 -0.11849256347E+03  0.15144206994E+03  0.00000000000E+00 0.  1.
</event>
<event>
12    1  0.8344842E-002  0.1816774E+03  0.7818608E-02  0.1166483E+00
         21   -1    0    0  501  502  0.00000000000E+00  0.00000000000E+00  0.23492611240E+03  0.23492611240E+03  0.00000000000E+00 0. -1.
         21   -1    0    0  502  503 -0.00000000000E+00 -0.00000000000E+00 -0.17435896429E+03  0.17435896429E+03  0.00000000000E+00 0. -1.
         -6    2    1    2    0  503 -0.31009626633E+02  0.46760088649E+02 -0.61067255692E+02  0.19166611931E+03  0.17279637942E+03 0.  0.
        -24    2    3    3    0    0 -0.42268431956E+02  0.78834837947E+02  0.16643718388E+01  0.12016159265E+03  0.80215249181E+02 0.  0.
          6    2    1    2  501    0  0.31009626633E+02 -0.46760088649E+02  0.12163440380E+03  0.21761895738E+03  0.17150795780E+03 0.  0.
         24    2    5    5    0    0 -0.67102684057E+01  0.34559273285E+02  0.36936519218E+02  0.94203193559E+02  0.79186893819E+02 0.  0.
          5    1    5    5  501    0  0.37719895039E+02 -0.81319361933E+02  0.84697884582E+02  0.12341576382E+03  0.47000000000E+01 0. -1.
        -11    1    6    6    0    0 -0.36786612562E+02  0.29373474966E+02  0.10407929205E+01  0.47086507041E+02  0.00000000000E+00 0.  1.
         12    1    6    6    0    0  0.30076344156E+02  0.51857983187E+01  0.35895726298E+02  0.47116686518E+02  0.00000000000E+00 0. -1.
         -5    1    3    3    0  503  0.11258805324E+02 -0.32074749299E+02 -0.62731627531E+02  0.71504526658E+02  0.47000000000E+01 0.  1.
         13    1    4    4    0    0 -0.18926121209E+02  0.56855996706E+02 -0.36618762692E+02  0.70226321323E+02  0.00000000000E+00 0. -1.
        -14    1    4    4    0    0 -0.23342310747E+02  0.21978841241E+02  0.38283134531E+02  0.49935271330E+02  0.00000000000E+00 0.  1.
</event>
<event>
12    1  0.8344842E-002  0.2157289E+03  0.7818608E-02  0.1137419E+00
         21   -1    0    0  503  502  0.00000000000E+00  0.00000000000E+00  0.25603269332E+02  0.25603269332E+02  0.00000000000E+00 0.  1.
         21   -1    0    0  501  503 -0.00000000000E+00 -0.00000000000E+00 -0.19123224899E+04  0.19123224899E+04  0.00000000000E+00 0.  1.
          6    2    1    2  501    0  0.51318291669E+02  0.11750750697E+03 -0.11705338445E+04  0.11899548686E+04  0.17146873417E+03 0.  0.
         24    2    3    3    0    0  0.20557307211E+02  0.78560921080E+02 -0.34937617557E+03  0.36728538329E+03  0.78996326023E+02 0.  0.
         -6    2    1    2    0  502 -0.51318291669E+02 -0.11750750697E+03 -0.71618537604E+03  0.74797089066E+03  0.17348596245E+03 0.  0.
        -24    2    5    5    0    0  0.30046877482E+02 -0.10265142167E+03 -0.42283820511E+03  0.44315021106E+03  0.78420868662E+02 0.  0.
          5    1    3    3  501    0  0.30760984458E+02  0.38946585891E+02 -0.82115766895E+03  0.82266948527E+03  0.47000000000E+01 0. -1.
        -13    1    4    4    0    0  0.38214175425E+02  0.85194862394E+02 -0.30735344234E+03  0.32122363907E+03  0.00000000000E+00 0.  1.
         14    1    4    4    0    0 -0.17656868215E+02 -0.66339413136E+01 -0.42022733227E+02  0.46061744217E+02  0.00000000000E+00 0. -1.
         -5    1    5    5    0  502 -0.81365169151E+02 -0.14856085304E+02 -0.29334717092E+03  0.30482067960E+03  0.47000000000E+01 0.  1.
         13    1    6    6    0    0  0.23113812068E+02 -0.43274291830E+02 -0.32359479899E+03  0.32729269252E+03  0.00000000000E+00 0. -1.
        -14    1    6    6    0    0  0.69330654148E+01 -0.59377129837E+02 -0.99243406120E+02  0.11585751854E+03  0.00000000000E+00 0.  1.
</event>
<event>
12    1  0.8344842E-002  0.1745385E+03  0.7818608E-02  0.1174034E+00
         21   -1    0    0  503  502  0.00000000000E+00  0.00000000000E+00  0.33759262900E+03  0.33759262900E+03  0.00000000000E+00 0.  1.
         21   -1    0    0  501  503 -0.00000000000E+00 -0.00000000000E+00 -0.11898238800E+03  0.11898238800E+03  0.00000000000E+00 0.  1.
          6    2    1    2  501    0  0.22015729219E+02  0.16219882347E+02 -0.69328039756E+01  0.17138498267E+03  0.16904724665E+03 0.  0.
         24    2    3    3    0    0 -0.22978133598E+02 -0.39068309980E+02 -0.36826676611E+02  0.93944905691E+02  0.73587456313E+02 0.  0.
         -6    2    1    2    0  502 -0.22015729219E+02 -0.16219882347E+02  0.22554304498E+03  0.28519003433E+03  0.17238304333E+03 0.  0.
        -24    2    5    5    0    0 -0.30278714479E+02 -0.12266408367E+02  0.31650779164E+02  0.91024621281E+02  0.78844432479E+02 0.  0.
          5    1    3    3  501    0  0.44993862816E+02  0.55288192327E+02  0.29893872635E+02  0.77440076982E+02  0.47000000000E+01 0. -1.
        -11    1    4    4    0    0 -0.26126185783E+02  0.16140170148E+02 -0.17624177769E+02  0.35407546061E+02  0.00000000000E+00 0.  1.
         12    1    4    4    0    0  0.31480521858E+01 -0.55208480129E+02 -0.19202498841E+02  0.58537359630E+02  0.00000000000E+00 0. -1.
         -5    1    5    5    0  502  0.82629852598E+01 -0.39534739791E+01  0.19389226581E+03  0.19416541305E+03  0.47000000000E+01 0.  1.
         13    1    6    6    0    0  0.22947074355E+02 -0.15120341948E+02  0.25285475474E+02  0.37343650492E+02  0.00000000000E+00 0. -1.
        -14    1    6    6    0    0 -0.53225788834E+02  0.28539335810E+01  0.63653036908E+01  0.53680970790E+02  0.00000000000E+00 0.  1.
</event>
<event>
12    1  0.8344842E-002  0.2048109E+03  0.7818608E-02  0.1145781E+00
         21   -1    0    0  503  502  0.00000000000E+00  0.00000000000E+00  0.12171824938E+04  0.12171824938E+04  0.00000000000E+00 0. -1.
         21   -1    0    0  501  503 -0.00000000000E+00 -0.00000000000E+00 -0.55257104757E+02  0.55257104757E+02  0.00000000000E+00 0. -1.
          6    2    1    2  501    0 -0.11040346428E+03 -0.15468035580E+02  0.19054484834E+03  0.27974067346E+03  0.17181187417E+03 0.  0.
         24    2    3    3    0    0 -0.36814561091E+01 -0.26782875075E+02  0.37854170538E+02  0.93048023067E+02  0.80586108314E+02 0.  0.
         -6    2    1    2    0  502  0.11040346428E+03  0.15468035580E+02  0.97138054066E+03  0.99269892506E+03  0.17158909053E+03 0.  0.
        -24    2    5    5    0    0  0.34418555610E+01  0.17871206632E+02  0.22719454991E+03  0.24084691848E+03  0.77837319040E+02 0.  0.
          5    1    3    3  501    0 -0.10672200817E+03  0.11314839495E+02  0.15269067781E+03  0.18669265039E+03  0.47000000000E+01 0. -1.
        -11    1    4    4    0    0 -0.23080253232E+02  0.65789819691E+01  0.47544303603E+02  0.53258256619E+02  0.00000000000E+00 0.  1.
         12    1    4    4    0    0  0.19398797123E+02 -0.33361857044E+02 -0.96901330645E+01  0.39789766448E+02  0.00000000000E+00 0. -1.
         -5    1    5    5    0  502  0.10696160872E+03 -0.24031710523E+01  0.74418599075E+03  0.75185200658E+03  0.47000000000E+01 0.  1.
         11    1    6    6    0    0  0.28409282346E+02  0.14758331479E+02  0.20441347747E+03  0.20690520883E+03  0.00000000000E+00 0. -1.
        -12    1    6    6    0    0 -0.24967426785E+02  0.31128751529E+01  0.22781072439E+02  0.33941709642E+02  0.00000000000E+00 0.  1.
</event>
<event>
12    1  0.8344842E-002  0.2943287E+03  0.7818608E-02  0.1088252E+00
         21   -1    0    0  501  502  0.00000000000E+00  0.00000000000E+00  0.40063029463E+02  0.40063029463E+02  0.00000000000E+00 0.  1.
         21   -1    0    0  502  503 -0.00000000000E+00 -0.00000000000E+00 -0.21688652491E+04  0.21688652491E+04  0.00000000000E+00 0.  1.
         -6    2    1    2    0  503  0.19947355268E+03 -0.12786520993E+03 -0.11571906619E+04  0.11940350027E+04  0.17461428801E+03 0.  0.
        -24    2    3    3    0    0  0.54260485808E+02 -0.30438412545E+01 -0.25718363247E+03  0.27387091305E+03  0.76866058288E+02 0.  0.
          6    2    1    2  501    0 -0.19947355268E+03  0.12786520993E+03 -0.97161155778E+03  0.10148932759E+04  0.17274296546E+03 0.  0.
         24    2    5    5    0    0 -0.11435986850E+03  0.10946559790E+03 -0.82718427971E+03  0.84617986917E+03  0.82010010010E+02 0.  0.
          5    1    5    5  501    0 -0.85113684184E+02  0.18399612031E+02 -0.14442727807E+03  0.16871340672E+03  0.47000000000E+01 0. -1.
        -11    1    6    6    0    0 -0.91014705137E+02  0.62925597159E+02 -0.70094459248E+03  0.70962428726E+03  0.00000000000E+00 0.  1.
         12    1    6    6    0    0 -0.23345163361E+02  0.46540000738E+02 -0.12623968722E+03  0.13655558191E+03  0.00000000000E+00 0. -1.
         -5    1    3    3    0  503  0.14521306687E+03 -0.12482136867E+03 -0.90000702940E+03  0.92016408963E+03  0.47000000000E+01 0.  1.
         11    1    4    4    0    0  0.36845653002E+02 -0.25948557341E+02 -0.62391276647E+02  0.76964934709E+02  0.00000000000E+00 0. -1.
        -12    1    4    4    0    0  0.17414832806E+02  0.22904716086E+02 -0.19479235582E+03  0.19690597834E+03  0.00000000000E+00 0.  1.
</event>
<event>
12    1  0.8344842E-002  0.2353977E+03  0.7818608E-02  0.1122955E+00
         21   -1    0    0  501  502  0.00000000000E+00  0.00000000000E+00  0.20854356287E+03  0.20854356287E+03  0.00000000000E+00 0. -1.
         21   -1    0    0  502  503 -0.00000000000E+00 -0.00000000000E+00 -0.27446223416E+03  0.27446223416E+03  0.00000000000E+00 0. -1.
         -6    2    1    2    0  503  0.76067761923E+02  0.14388200393E+03 -0.77044804765E+02  0.24768523038E+03  0.17006979728E+03 0.  0.
        -24    2    3    3    0    0 -0.24740913849E+02  0.75455474847E+02 -0.26413771796E+02  0.11566185937E+03  0.79839444325E+02 0.  0.
          6    2    1    2  501    0 -0.76067761923E+02 -0.14388200393E+03  0.11126133476E+02  0.23532056665E+03  0.16959847517E+03 0.  0.
         24    2    5    5    0    0 -0.83471173171E+02 -0.33447440880E+02  0.26290490383E+02  0.12350531306E+03  0.80474868229E+02 0.  0.
          5    1    5    5  501    0  0.74034112474E+01 -0.11043456305E+03 -0.15164356907E+02  0.11181525359E+03  0.47000000000E+01 0. -1.
        -13    1    6    6    0    0  0.47402193362E+01  0.17492028825E+02  0.88189736925E+01  0.20154777318E+02  0.00000000000E+00 0.  1.
         14    1    6    6    0    0 -0.88211392507E+02 -0.50939469704E+02  0.17471516690E+02  0.10335053574E+03  0.00000000000E+00 0. -1.
         -5    1    3    3    0  503  0.10080867577E+03  0.68426529087E+02 -0.50631032969E+02  0.13202337101E+03  0.47000000000E+01 0.  1.
         11    1    4    4    0    0 -0.36556765832E+02  0.54909671025E+01 -0.25121332344E+02  0.44694845190E+02  0.00000000000E+00 0. -1.
        -12    1    4    4    0    0  0.11815851983E+02  0.69964507744E+02 -0.12924394521E+01  0.70967014180E+02  0.00000000000E+00 0.  1.
</event>
<event>
12    1  0.8344842E-002  0.2060198E+03  0.7818608E-02  0.1145024E+00
         21   -1    0    0  501  502  0.00000000000E+00  0.00000000000E+00  0.26265862686E+03  0.26265862686E+03  0.00000000000E+00 0. -1.
         21   -1    0    0  502  503 -0.00000000000E+00 -0.00000000000E+00 -0.16770514585E+03  0.16770514585E+03  0.00000000000E+00 0. -1.
         -6    2    1    2    0  503 -0.94379624940E+02 -0.60377361711E+02  0.29435856830E+01  0.20473134756E+03  0.17132810792E+03 0.  0.
        -24    2    3    3    0    0 -0.32207533139E+02 -0.98024669497E+02 -0.19176846439E+02  0.12861241233E+03  0.74345411057E+02 0.  0.
          6    2    1    2  501    0  0.94379624940E+02  0.60377361711E+02  0.92009895324E+02  0.22563242515E+03  0.17289080667E+03 0.  0.
         24    2    5    5    0    0  0.12526575995E+03  0.65384262382E+02  0.10241419359E+03  0.19232534163E+03  0.80831662108E+02 0.  0.
          5    1    5    5  501    0 -0.30886135014E+02 -0.50069006707E+01 -0.10404298267E+02  0.33307083524E+02  0.47000000000E+01 0. -1.
        -11    1    6    6    0    0 -0.64540947459E+01  0.21514305386E+02  0.58465032412E+01  0.23209960693E+02  0.00000000000E+00 0.  1.
         12    1    6    6    0    0  0.13171985470E+03  0.43869956996E+02  0.96567690350E+02  0.16911538093E+03  0.00000000000E+00 0. -1.
         -5    1    3    3    0  503 -0.62172091801E+02  0.37647307786E+02  0.22120432122E+02  0.76118935225E+02  0.47000000000E+01 0.  1.
         11    1    4    4    0    0 -0.18830597890E+02 -0.22178430727E+02  0.26259037153E+02  0.39191979263E+02  0.00000000000E+00 0. -1.
        -12    1    4    4    0    0 -0.13376935249E+02 -0.75846238771E+02 -0.45435883591E+02  0.89420433068E+02  0.00000000000E+00 0.  1.
</event>
<event>
12    1  0.8344842E-002  0.1884783E+03  0.7818608E-02  0.1160327E+00
         21   -1    0    0  503  502  0.00000000000E+00  0.00000000000E+00  0.22112625897E+03  0.22112625897E+03  0.00000000000E+00 0. -1.
         21   -1    0    0  501  503 -0.00000000000E+00 -0.00000000000E+00 -0.19190185655E+04  0.19190185655E+04  0.00000000000E+00 0. -1.
          6    2    1    2  501    0  0.41225435319E+02 -0.64782525268E+02 -0.18733751885E+04  0.18826214067E+04  0.16980121321E+03 0.  0.
         24    2    3    3    0    0  0.11546330350E+02  0.25027395303E+02 -0.11435715649E+04  0.11466987952E+04  0.80015714761E+02 0.  0.
         -6    2    1    2    0  502 -0.41225435319E+02  0.64782525268E+02  0.17548288193E+03  0.25752341780E+03  0.17212715290E+03 0.  0.
        -24    2    5    5    0    0  0.21718908250E+02  0.76609283109E+02  0.16245427160E+03  0.19199710800E+03  0.64271345749E+02 0.  0.
          5    1    3    3  501    0  0.29679104969E+02 -0.89809920571E+02 -0.72980362356E+03  0.73592261147E+03  0.47000000000E+01 0. -1.
        -11    1    4    4    0    0  0.23209093514E+02  0.13294240810E+02 -0.11798277319E+03  0.12097658299E+03  0.00000000000E+00 0.  1.
         12    1    4    4    0    0 -0.11662763163E+02  0.11733154493E+02 -0.10255887918E+04  0.10257222123E+04  0.00000000000E+00 0. -1.
         -5    1    5    5    0  502 -0.62944343570E+02 -0.11826757840E+02  0.13028610333E+02  0.65526309797E+02  0.47000000000E+01 0.  1.
         13    1    6    6    0    0  0.21913862076E+02 -0.30091565932E+01  0.44380581691E+02  0.49587381518E+02  0.00000000000E+00 0. -1.
        -14    1    6    6    0    0 -0.19495382603E+00  0.79618439702E+02  0.11807368991E+03  0.14240972648E+03  0.00000000000E+00 0.  1.
</event>
<event>
12    1  0.8344842E-002  0.1827068E+03  0.7818608E-02  0.1165387E+00
         21   -1    0    0  503  502  0.00000000000E+00  0.00000000000E+00  0.13905052590E+03  0.13905052590E+03  0.00000000000E+00 0. -1.
         21   -1    0    0  501  503 -0.00000000000E+00 -0.00000000000E+00 -0.25104906711E+03  0.25104906711E+03  0.00000000000E+00 0.  1.
          6    2    1    2  501    0 -0.53860554104E+02 -0.27720897272E+02 -0.13526679120E+02  0.18320679997E+03  0.17237271558E+03 0.  0.
         24    2    3    3    0    0 -0.69953796917E+02  0.14035571541E+02 -0.54359166351E+02  0.12244515775E+03  0.83350865138E+02 0.  0.
         -6    2    1    2    0  502  0.53860554104E+02  0.27720897272E+02 -0.98471862085E+02  0.20689279304E+03  0.17157655071E+03 0.  0.
        -24    2    5    5    0    0 -0.31057489920E+02 -0.57821289911E+01 -0.29749309084E+02  0.92531933208E+02  0.81725984708E+02 0.  0.
          5    1    3    3  501    0  0.16093242813E+02 -0.41756468813E+02  0.40832487231E+02  0.60761642222E+02  0.47000000000E+01 0. -1.
        -13    1    4    4    0    0  0.29650248303E+01 -0.20066715720E+02 -0.33705559462E+02  0.39338647545E+02  0.00000000000E+00 0.  1.
         14    1    4    4    0    0 -0.72918821748E+02  0.34102287261E+02 -0.20653606889E+02  0.83106510208E+02  0.00000000000E+00 0. -1.
         -5    1    5    5    0  502  0.84918044024E+02  0.33503026264E+02 -0.68722553001E+02  0.11436085983E+03  0.47000000000E+01 0.  1.
         11    1    6    6    0    0  0.65276901406E+01 -0.37621004069E+02 -0.10073892737E+02  0.39489669543E+02  0.00000000000E+00 0. -1.
        -12    1    6    6    0    0 -0.37585180060E+02  0.31838875077E+02 -0.19675416348E+02  0.53042263666E+02  0.00000000000E+00 0.  1.
</event>
<event>
12    1  0.8344842E-002  0.2030874E+03  0.7818608E-02  0.1149484E+00
         21   -1    0    0  501  502  0.00000000000E+00  0.00000000000E+00  0.16688486196E+04  0.16688486196E+04  0.00000000000E+00 0. -1.
         21   -1    0    0  502  503 -0.00000000000E+00 -0.00000000000E+00 -0.24607296097E+02  0.24607296097E+02  0.00000000000E+00 0. -1.
         -6    2    1    2    0  503  0.22588039887E+02 -0.10643102569E+03  0.65656952374E+03  0.68726124349E+03  0.17148380248E+03 0.  0.
        -24    2    3    3    0    0  0.43565787989E+00 -0.11814048941E+03  0.64218298256E+03  0.65798835267E+03  0.81193128600E+02 0.  0.
          6    2    1    2  501    0 -0.22588039887E+02  0.10643102569E+03  0.98767179977E+03  0.10061946722E+04  0.15841196790E+03 0.  0.
         24    2    5    5    0    0 -0.18853051398E+02  0.13688780813E+03  0.77655882811E+03  0.79281158353E+03  0.80080483936E+02 0.  0.
          5    1    5    5  501    0 -0.37349884892E+01 -0.30456782439E+02  0.21111297167E+03  0.21338308870E+03  0.47000000000E+01 0. -1.
        -13    1    6    6    0    0  0.11610203024E+02  0.49325468281E+02  0.12809368565E+03  0.13775264403E+03  0.00000000000E+00 0.  1.
         14    1    6    6    0    0 -0.30463254422E+02  0.87562339846E+02  0.64846514246E+03  0.65505893950E+03  0.00000000000E+00 0. -1.
         -5    1    3    3    0  503  0.22152382007E+02  0.11709463718E+02  0.14386541184E+02  0.29272890810E+02  0.47000000000E+01 0.  1.
         11    1    4    4    0    0  0.22626660412E+02 -0.10066523694E+03  0.36294693735E+03  0.37732735790E+03  0.00000000000E+00 0. -1.
        -12    1    4    4    0    0 -0.22191002532E+02 -0.17475252463E+02  0.27923604521E+03  0.28066099477E+03  0.00000000000E+00 0.  1.
</event>
<event>
12    1  0.8344842E-002  0.1773933E+03  0.7818608E-02  0.1170621E+00
         21   -1    0    0  501  502  0.00000000000E+00  0.00000000000E+00  0.53612278667E+03  0.53612278667E+03  0.00000000000E+00 0.  1.
         21   -1    0    0  502  503 -0.00000000000E+00 -0.00000000000E+00 -0.17627944030E+03  0.17627944030E+03  0.00000000000E+00 0.  1.
         -6    2    1    2    0  503 -0.20607847272E+02 -0.37885378846E+02 -0.11125649822E+03  0.20939526284E+03  0.17207086448E+03 0.  0.
        -24    2    3    3    0    0 -0.40775670760E+02 -0.80652147436E+02 -0.10582361119E+03  0.16156907899E+03  0.82088405942E+02 0.  0.
          6    2    1    2  501    0  0.20607847272E+02  0.37885378846E+02  0.47109984458E+03  0.50300696412E+03  0.17094138496E+03 0.  0.
         24    2    5    5    0    0  0.58955711304E+01  0.89327725296E+02  0.36404745845E+03  0.38323606008E+03  0.79530657483E+02 0.  0.
          5    1    5    5  501    0  0.14712276142E+02 -0.51442346450E+02  0.10705238614E+03  0.11977090404E+03  0.47000000000E+01 0. -1.
        -11    1    6    6    0    0  0.18065180920E+02 -0.44838813587E+01  0.12108583491E+03  0.12250810328E+03  0.00000000000E+00 0.  1.
         12    1    6    6    0    0 -0.12169609790E+02  0.93811606655E+02  0.24296162353E+03  0.26072795680E+03  0.00000000000E+00 0. -1.
         -5    1    3    3    0  503  0.20167823487E+02  0.42766768590E+02 -0.54328870318E+01  0.47826183847E+02  0.47000000000E+01 0.  1.
         13    1    4    4    0    0 -0.80153634372E+01 -0.30677876376E+02  0.82754069600E+01  0.32769810960E+02  0.00000000000E+00 0. -1.
        -14    1    4    4    0    0 -0.32760307322E+02 -0.49974271060E+02 -0.11409901815E+03  0.12879926803E+03  0.00000000000E+00 0.  1.
</event>
<event>
12    1  0.8344842E-002  0.1892541E+03  0.7818608E-02  0.1159314E+00
         21   -1    0    0  501  502  0.00000000000E+00  0.00000000000E+00  0.40474954818E+02  0.40474954818E+02  0.00000000000E+00 0.  1.
         21   -1    0    0  502  503 -0.00000000000E+00 -0.00000000000E+00 -0.13681957357E+04  0.13681957357E+04  0.00000000000E+00 0. -1.
         -6    2    1    2    0  503 -0.46191697645E+02 -0.63594569361E+02 -0.10831571219E+04  0.10994320938E+04  0.17129984190E+03 0.  0.
        -24    2    3    3    0    0 -0.15581526122E+02  0.32092759160E+02 -0.54264151981E+03  0.54963917495E+03  0.79816505046E+02 0.  0.
          6    2    1    2  501    0  0.46191697645E+02  0.63594569361E+02 -0.24456365899E+03  0.30923859679E+03  0.17216034463E+03 0.  0.
         24    2    5    5    0    0  0.35451100848E+00  0.70749299831E+02 -0.66759408822E+02  0.12542162471E+03  0.79171814263E+02 0.  0.
          5    1    5    5  501    0  0.45837186636E+02 -0.71547304700E+01 -0.17780425017E+03  0.18381697208E+03  0.47000000000E+01 0. -1.
        -13    1    6    6    0    0  0.21276665163E+01 -0.17565089068E+02 -0.13711450591E+02  0.22384440937E+02  0.00000000000E+00 0.  1.
         14    1    6    6    0    0 -0.17731555078E+01  0.88314388899E+02 -0.53047958231E+02  0.10303718377E+03  0.00000000000E+00 0. -1.
         -5    1    3    3    0  503 -0.30610171523E+02 -0.95687328520E+02 -0.54051560212E+03  0.54979291881E+03  0.47000000000E+01 0.  1.
         13    1    4    4    0    0  0.14270259797E+02  0.25444663897E+02 -0.46890801912E+03  0.46981464603E+03  0.00000000000E+00 0. -1.
        -14    1    4    4    0    0 -0.29851785919E+02  0.66480952628E+01 -0.73733500691E+02  0.79824528920E+02  0.00000000000E+00 0.  1.
</event>
<event>
12    1  0.8344842E-002  0.1815192E+03  0.7818608E-02  0.1166356E+00
         21   -1    0    0  503  502  0.00000000000E+00  0.00000000000E+00  0.48980474921E+03  0.48980474921E+03  0.00000000000E+00 0. -1.
         21   -1    0    0  501  503 -0.00000000000E+00 -0.00000000000E+00 -0.86294144329E+02  0.86294144329E+02  0.00000000000E+00 0.  1.
          6    2    1    2  501    0 -0.34283269535E+02  0.44114862884E+02  0.66452207441E+02  0.19330060404E+03  0.17270716242E+03 0.  0.
         24    2    3    3    0    0  0.33957319840E+02  0.64318832901E+02  0.50414711457E+02  0.12019609173E+03  0.81335388973E+02 0.  0.
         -6    2    1    2    0  502  0.34283269535E+02 -0.44114862884E+02  0.33705839744E+03  0.38279828949E+03  0.17264038769E+03 0.  0.
        -24    2    5    5    0    0  0.50117157533E+02 -0.43396444085E+02  0.34785561063E+03  0.36305245582E+03  0.80053600763E+02 0.  0.
          5    1    3    3  501    0 -0.68240589375E+02 -0.20203970018E+02  0.16037495984E+02  0.73104512311E+02  0.47000000000E+01 0. -1.
        -11    1    4    4    0    0  0.29740059246E+02  0.78949650162E+02  0.20792867875E+02  0.86889940379E+02  0.00000000000E+00 0.  1.
         12    1    4    4    0    0  0.42172605947E+01 -0.14630817260E+02  0.29621843582E+02  0.33306151351E+02  0.00000000000E+00 0. -1.
         -5    1    5    5    0  502 -0.15833887998E+02 -0.71841879888E+00 -0.10797213192E+02  0.19745833672E+02  0.47000000000E+01 0.  1.
         11    1    6    6    0    0  0.64494022555E+02 -0.51145322982E+02  0.23451031854E+03  0.24853654160E+03  0.00000000000E+00 0. -1.
        -12    1    6    6    0    0 -0.14376865022E+02  0.77488788968E+01  0.11334529209E+03  0.11451591422E+03  0.00000000000E+00 0.  1.
</event>
<event>
12    1  0.8344842E-002  0.2272681E+03  0.7818608E-02  0.1129852E+00
         21   -1    0    0  503  502  0.00000000000E+00  0.00000000000E+00  0.19009463506E+03  0.19009463506E+03  0.00000000000E+00 0. -1.
         21   -1    0    0  501  503 -0.00000000000E+00 -0.00000000000E+00 -0.98400676751E+03  0.98400676751E+03  0.00000000000E+00 0. -1.
          6    2    1    2  501    0 -0.13160563717E+03 -0.68633301869E+02 -0.90097882391E+03  0.92920052444E+03  0.17210519929E+03 0.  0.
         24    2    3    3    0    0 -0.83980171257E+02 -0.11091963224E+03 -0.58684009494E+03  0.60863610068E+03  0.81858243583E+02 0.  0.
         -6    2    1    2    0  502  0.13160563717E+03  0.68633301869E+02  0.10706669147E+03  0.24490087813E+03  0.16273472226E+03 0.  0.
        -24    2    5    5    0    0  0.14271446121E+03  0.56183930135E+02  0.12937093423E+03  0.21665265565E+03  0.81715868319E+02 0.  0.
          5    1    3    3  501    0 -0.47625465910E+02  0.42286330370E+02 -0.31413872897E+03  0.32056442376E+03  0.47000000000E+01 0. -1.
        -11    1    4    4    0    0 -0.21438122015E+02 -0.45697150276E+02 -0.37424489883E+03  0.37763350873E+03  0.00000000000E+00 0.  1.
         12    1    4    4    0    0 -0.62542049242E+02 -0.65222481964E+02 -0.21259519611E+03  0.23100259194E+03  0.00000000000E+00 0. -1.
         -5    1    5    5    0  502 -0.11108824040E+02  0.12449371734E+02 -0.22304242763E+02  0.28248222482E+02  0.47000000000E+01 0.  1.
         11    1    6    6    0    0  0.18146938462E+02  0.21626759830E+02  0.67847927489E+02  0.73487205559E+02  0.00000000000E+00 0. -1.
        -12    1    6    6    0    0  0.12456752274E+03  0.34557170305E+02  0.61523006740E+02  0.14316545009E+03  0.00000000000E+00 0.  1.
</event>
<event>
12    1  0.8344842E-002  0.2235262E+03  0.7818608E-02  0.1131448E+00
         21   -1    0    0  503  502  0.00000000000E+00  0.00000000000E+00  0.64038732650E+03  0.64038732650E+03  0.00000000000E+00 0.  1.
         21   -1    0    0  501  503 -0.00000000000E+00 -0.00000000000E+00 -0.11296440408E+03  0.11296440408E+03  0.00000000000E+00 0. -1.
          6    2    1    2  501    0 -0.12452940346E+03  0.66495745499E+02  0.53633969094E+02  0.22987078849E+03  0.17330528054E+03 0.  0.
         24    2    3    3    0    0 -0.11746045854E+03  0.10989544082E+03  0.34132112731E+02  0.18153947423E+03  0.76926018699E+02 0.  0.
         -6    2    1    2    0  502  0.12452940346E+03 -0.66495745499E+02  0.47378895333E+03  0.52348094209E+03  0.17212515198E+03 0.  0.
        -24    2    5    5    0    0 -0.47782143636E+01 -0.25732365885E+02  0.22371007431E+03  0.23897496874E+03  0.79861457216E+02 0.  0.
          5    1    3    3  501    0 -0.70689449180E+01 -0.43399695318E+02  0.19501856363E+02  0.48331314254E+02  0.47000000000E+01 0. -1.
        -11    1    4    4    0    0 -0.43819573986E+02  0.82678154446E+02  0.42137794813E+02  0.10262273646E+03  0.00000000000E+00 0.  1.
         12    1    4    4    0    0 -0.73640884554E+02  0.27217286371E+02 -0.80056820817E+01  0.78916737774E+02  0.00000000000E+00 0. -1.
         -5    1    5    5    0  502  0.12930761782E+03 -0.40763379614E+02  0.25007887901E+03  0.28450597335E+03  0.47000000000E+01 0.  1.
         11    1    6    6    0    0  0.55967563266E+01 -0.52009730873E+02  0.10994950535E+03  0.12175889911E+03  0.00000000000E+00 0. -1.
        -12    1    6    6    0    0 -0.10374970690E+02  0.26277364989E+02  0.11376056897E+03  0.11721606963E+03  0.00000000000E+00 0.  1.
</event>
<event>
12    1  0.8344842E-002  0.1750231E+03  0.7818608E-02  0.1173178E+00
         21   -1    0    0  503  502  0.00000000000E+00  0.00000000000E+00  0.23405152753E+03  0.23405152753E+03  0.00000000000E+00 0. -1.
         21   -1    0    0  501  503 -0.00000000000E+00 -0.00000000000E+00 -0.16228787797E+03  0.16228787797E+03  0.00000000000E+00 0. -1.
          6    2    1    2  501    0  0.15477350040E+02 -0.26187805464E+02 -0.53044399438E+02  0.18288466693E+03  0.17235934430E+03 0.  0.
         24    2    3    3    0    0 -0.95966340792E+01 -0.39688437834E+02  0.30203847232E+02  0.94774892624E+02  0.80017125673E+02 0.  0.
         -6    2    1    2    0  502 -0.15477350040E+02  0.26187805464E+02  0.12480804900E+03  0.21345473857E+03  0.17047148384E+03 0.  0.
        -24    2    5    5    0    0  0.34339616478E+02  0.34257970375E+02  0.13431346868E+03  0.16188633043E+03  0.76251284039E+02 0.  0.
          5    1    3    3  501    0  0.25073984120E+02  0.13500632371E+02 -0.83248246671E+02  0.88109774304E+02  0.47000000000E+01 0. -1.
        -13    1    4    4    0    0 -0.40996334725E+02 -0.75447455287E+01  0.20223615388E+01  0.41733830308E+02  0.00000000000E+00 0.  1.
         14    1    4    4    0    0  0.31399700646E+02 -0.32143692305E+02  0.28181485694E+02  0.53041062316E+02  0.00000000000E+00 0. -1.
         -5    1    5    5    0  502 -0.49816966519E+02 -0.80701649118E+01 -0.95054196783E+01  0.51568408140E+02  0.47000000000E+01 0.  1.
         13    1    6    6    0    0 -0.12810141954E+02  0.22649443187E+02  0.97606546784E+02  0.10101551855E+03  0.00000000000E+00 0. -1.
        -14    1    6    6    0    0  0.47149758432E+02  0.11608527188E+02  0.36706921898E+02  0.60870811880E+02  0.00000000000E+00 0.  1.
</event>
<event>
12    1  0.8344842E-002  0.1830671E+03  0.7818608E-02  0.1165883E+00
         21   -1    0    0  503  502  0.00000000000E+00  0.00000000000E+00  0.11247883256E+03  0.11247883256E+03  0.00000000000E+00 0.  1.
         21   -1    0    0  501  503 -0.00000000000E+00 -0.00000000000E+00 -0.29198921806E+03  0.29198921806E+03  0.00000000000E+00 0.  1.
          6    2    1    2  501    0 -0.73696410924E+01 -0.54315587657E+02 -0.99896802831E+02  0.20483866719E+03  0.17022048552E+03 0.  0.
         24    2    3    3    0    0  0.45614925958E+00 -0.98169334846E+02 -0.44398104063E+02  0.13351833558E+03  0.78857643349E+02 0.  0.
         -6    2    1    2    0  502  0.73696410924E+01  0.54315587657E+02 -0.79613582666E+02  0.19962938342E+03  0.17466846741E+03 0.  0.
        -24    2    5    5    0    0 -0.37608484248E+02  0.64380391202E+02  0.27591190352E+01  0.10512179635E+03  0.74052322518E+02 0.  0.
          5    1    3    3  501    0 -0.78257903520E+01  0.43853747189E+02 -0.55498698768E+02  0.71320331618E+02  0.47000000000E+01 0. -1.
        -13    1    4    4    0    0 -0.15477608163E+02 -0.18907533512E+02  0.18857859656E+02  0.30865353534E+02  0.00000000000E+00 0.  1.
         14    1    4    4    0    0  0.15933757423E+02 -0.79261801334E+02 -0.63255963719E+02  0.10265298204E+03  0.00000000000E+00 0. -1.
         -5    1    5    5    0  502  0.44978125341E+02 -0.10064803545E+02 -0.82372701701E+02  0.94507587077E+02  0.47000000000E+01 0.  1.
         13    1    6    6    0    0 -0.48108774202E+01  0.16018921148E+01  0.29110792409E+02  0.29549091942E+02  0.00000000000E+00 0. -1.
        -14    1    6    6    0    0 -0.32797606828E+02  0.62778499087E+02 -0.26351673374E+02  0.75572704404E+02  0.00000000000E+00 0.  1.
</event>
<event>
12    1  0.8344842E-002  0.2967878E+03  0.7818608E-02  0.1087010E+00
         21   -1    0    0  503  502  0.00000000000E+00  0.00000000000E+00  0.21648655411E+03  0.21648655411E+03  0.00000000000E+00 0. -1.
         21   -1    0    0  501  503 -0.00000000000E+00 -0.00000000000E+00 -0.46420152401E+03  0.46420152401E+03  0.00000000000E+00 0.  1.
          6    2    1    2  501    0  0.23074715851E+03 -0.73313420496E+02 -0.24538288473E+03  0.38509190854E+03  0.17165054361E+03 0.  0.
         24    2    3    3    0    0  0.92927404263E+02 -0.71154486162E+02 -0.62354674929E+02  0.15591869623E+03  0.82000432838E+02 0.  0.
         -6    2    1    2    0  502 -0.23074715851E+03  0.73313420496E+02 -0.23320851746E+01  0.29559616957E+03  0.16956576324E+03 0.  0.
        -24    2    5    5    0    0 -0.85193447553E+02  0.87044458175E+02 -0.26551011697E+02  0.14732927991E+03  0.78525787435E+02 0.  0.
          5    1    3    3  501    0  0.13781975424E+03 -0.21589343335E+01 -0.18302820980E+03  0.22917321231E+03  0.47000000000E+01 0. -1.
        -13    1    4    4    0    0  0.40579717945E+01 -0.24208437022E+02 -0.48636489083E+02  0.54479570744E+02  0.00000000000E+00 0.  1.
         14    1    4    4    0    0  0.88869432469E+02 -0.46946049140E+02 -0.13718185846E+02  0.10143912549E+03  0.00000000000E+00 0. -1.
         -5    1    5    5    0  502 -0.14555371095E+03 -0.13731037679E+02  0.24218926523E+02  0.14826688966E+03  0.47000000000E+01 0.  1.
         11    1    6    6    0    0 -0.23818392488E+01 -0.99860988896E+01 -0.16417315526E+02  0.19362943431E+02  0.00000000000E+00 0. -1.
        -12    1    6    6    0    0 -0.82811608304E+02  0.97030557065E+02 -0.10133696171E+02  0.12796633648E+03  0.00000000000E+00 0.  1.
</event>
<event>
12    1  0.8344842E-002  0.2209531E+03  0.7818608E-02  0.1134702E+00
         21   -1    0    0  501  502  0.00000000000E+00  0.00000000000E+00  0.65558992009E+03  0.65558992009E+03  0.00000000000E+00 0.  1.
         21   -1    0    0  502  503 -0.00000000000E+00 -0.00000000000E+00 -0.10737573443E+03  0.10737573443E+03  0.00000000000E+00 0.  1.
         -6    2    1    2    0  503 -0.10079155383E+02  0.13705176142E+03  0.51044654335E+02  0.21890883665E+03  0.16257535898E+03 0.  0.
        -24    2    3    3    0    0 -0.24310438176E+02  0.20526150676E+02  0.55466156391E+02  0.10134018841E+03  0.78619456981E+02 0.  0.
          6    2    1    2  501    0  0.10079155383E+02 -0.13705176142E+03  0.49716953133E+03  0.54405681787E+03  0.17301879521E+03 0.  0.
         24    2    5    5    0    0 -0.25629367356E+02 -0.26080727374E+02  0.32460448107E+03  0.33575305994E+03  0.77620740244E+02 0.  0.
          5    1    5    5  501    0  0.35708522739E+02 -0.11097103405E+03  0.17256505026E+03  0.20830375793E+03  0.47000000000E+01 0. -1.
        -13    1    6    6    0    0 -0.18924778709E+02  0.21988207497E+02  0.58954556250E+02  0.65705922266E+02  0.00000000000E+00 0.  1.
         14    1    6    6    0    0 -0.67045886464E+01 -0.48068934871E+02  0.26564992482E+03  0.27004713767E+03  0.00000000000E+00 0. -1.
         -5    1    3    3    0  503  0.14231282792E+02  0.11652561075E+03 -0.44215020556E+01  0.11756864825E+03  0.47000000000E+01 0.  1.
         13    1    4    4    0    0 -0.20723509394E+01  0.34977958981E+02  0.64432803689E+02  0.73343973468E+02  0.00000000000E+00 0. -1.
        -14    1    4    4    0    0 -0.22238087236E+02 -0.14451808305E+02 -0.89666472985E+01  0.27996214940E+02  0.00000000000E+00 0.  1.
</event>
<event>
12    1  0.8344842E-002  0.1752510E+03  0.7818608E-02  0.1173714E+00
         21   -1    0    0  503  502  0.00000000000E+00  0.00000000000E+00  0.17023262081E+03  0.17023262081E+03  0.00000000000E+00 0. -1.
         21   -1    0    0  501  503 -0.00000000000E+00 -0.00000000000E+00 -0.26116111449E+03  0.26116111449E+03  0.00000000000E+00 0. -1.
          6    2    1    2  501    0  0.45310064098E+01  0.13810596464E+02 -0.16859124808E+03  0.23970540541E+03  0.16977753048E+03 0.  0.
         24    2    3    3    0    0  0.43871280602E+02  0.58525058597E+02 -0.89468667325E+02  0.14056150452E+03  0.80018887604E+02 0.  0.
         -6    2    1    2    0  502 -0.45310064098E+01 -0.13810596464E+02  0.77662754400E+02  0.19168832989E+03  0.17464721527E+03 0.  0.
        -24    2    5    5    0    0  0.18280965054E+02 -0.25753798860E+02 -0.21951467459E+02  0.88692653660E+02  0.79919134446E+02 0.  0.
          5    1    3    3  501    0 -0.39340274193E+02 -0.44714462134E+02 -0.79122580760E+02  0.99143900889E+02  0.47000000000E+01 0. -1.
        -13    1    4    4    0    0 -0.14814519749E+02  0.36890733266E+02 -0.13118218262E+02  0.41862678446E+02  0.00000000000E+00 0.  1.
         14    1    4    4    0    0  0.58685800352E+02  0.21634325331E+02 -0.76350449063E+02  0.98698826070E+02  0.00000000000E+00 0. -1.
         -5    1    5    5    0  502 -0.22811971464E+02  0.11943202397E+02  0.99614221859E+02  0.10299567623E+03  0.47000000000E+01 0.  1.
         11    1    6    6    0    0 -0.49715604562E+01 -0.70010530017E+01  0.28662409484E+02  0.29920977156E+02  0.00000000000E+00 0. -1.
        -12    1    6    6    0    0  0.23252525510E+02 -0.18752745859E+02 -0.50613876944E+02  0.58771676504E+02  0.00000000000E+00 0.  1.
</event>
<event>
12    1  0.8344842E-002  0.1771088E+03  0.7818608E-02  0.1171084E+00
         21   -1    0    0  501  502  0.00000000000E+00  0.00000000000E+00  0.11165119049E+03  0.11165119049E+03  0.00000000000E+00 0.  1.
         21   -1    0    0  502  503 -0.00000000000E+00 -0.00000000000E+00 -0.32743297648E+03  0.32743297648E+03  0.00000000000E+00 0.  1.
         -6    2    1    2    0  503 -0.39997513567E+02  0.71318698635E+01 -0.19362024499E+03  0.26240488002E+03  0.17238577996E+03 0.  0.
        -24    2    3    3    0    0 -0.53092664113E+02  0.42440636753E+02 -0.53516420220E+02  0.11725198235E+03  0.79145318889E+02 0.  0.
          6    2    1    2  501    0  0.39997513567E+02 -0.71318698635E+01 -0.22161541006E+02  0.17667928695E+03  0.17051032777E+03 0.  0.
         24    2    5    5    0    0  0.25218709470E+01 -0.32515375620E+02 -0.70502750834E+02  0.11028870989E+03  0.78290179267E+02 0.  0.
          5    1    5    5  501    0  0.37475642620E+02  0.25383505756E+02  0.48341209828E+02  0.66390577057E+02  0.47000000000E+01 0. -1.
        -13    1    6    6    0    0  0.36415971768E+02 -0.41218179463E+01 -0.15691237118E+02  0.39866368098E+02  0.00000000000E+00 0.  1.
         14    1    6    6    0    0 -0.33894100821E+02 -0.28393557673E+02 -0.54811513716E+02  0.70422341794E+02  0.00000000000E+00 0. -1.
         -5    1    3    3    0  503  0.13095150546E+02 -0.35308766890E+02 -0.14010382477E+03  0.14515289767E+03  0.47000000000E+01 0.  1.
         13    1    4    4    0    0  0.10536926954E+02  0.10222259842E+02 -0.42651976432E+02  0.45107787792E+02  0.00000000000E+00 0. -1.
        -14    1    4    4    0    0 -0.63629591067E+02  0.32218376911E+02 -0.10864443787E+02  0.72144194562E+02  0.00000000000E+00 0.  1.
</event>
<event>
12    1  0.8344842E-002  0.2120918E+03  0.7818608E-02  0.1139946E+00
         21   -1    0    0  501  502  0.00000000000E+00  0.00000000000E+00  0.68192378251E+03  0.68192378251E+03  0.00000000000E+00 0. -1.
         21   -1    0    0  502  503 -0.00000000000E+00 -0.00000000000E+00 -0.85574709117E+02  0.85574709117E+02  0.00000000000E+00 0.  1.
         -6    2    1    2    0  503 -0.70021368481E+02 -0.10555342823E+03  0.11420939849E+03  0.24077125631E+03  0.16994850074E+03 0.  0.
        -24    2    3    3    0    0 -0.66288980906E+02 -0.14087586589E+03  0.97272093633E+02  0.20114086879E+03  0.82192154863E+02 0.  0.
          6    2    1    2  501    0  0.70021368481E+02  0.10555342823E+03  0.48213967490E+03  0.52672723531E+03  0.17011289208E+03 0.  0.
         24    2    5    5    0    0  0.14838639184E+01  0.44994047629E+02  0.11390066450E+03  0.14727119452E+03  0.81784944759E+02 0.  0.
          5    1    5    5  501    0  0.68537504563E+02  0.60559380605E+02  0.36823901040E+03  0.37945604079E+03  0.47000000000E+01 0. -1.
        -13    1    6    6    0    0 -0.83736946191E+01  0.17831957510E+02  0.11659755223E+03  0.11825010214E+03  0.00000000000E+00 0.  1.
         14    1    6    6    0    0  0.98575585375E+01  0.27162090119E+02 -0.26968877274E+01  0.29021092387E+02  0.00000000000E+00 0. -1.
         -5    1    3    3    0  503 -0.37323875752E+01  0.35322437652E+02  0.16937304855E+02  0.39630387513E+02  0.47000000000E+01 0.  1.
         13    1    4    4    0    0 -0.10104941361E+02 -0.89139463146E+02  0.18843926566E+02  0.91668136767E+02  0.00000000000E+00 0. -1.
        -14    1    4    4    0    0 -0.56184039545E+02 -0.51736402740E+02  0.78428167068E+02  0.10947273203E+03  0.00000000000E+00 0.  1.
</event>
<event>
12    1  0.8344842E-002  0.1787650E+03  0.7818608E-02  0.1169806E+00
         21   -1    0    0  503  502  0.00000000000E+00  0.00000000000E+00  0.15893815442E+03  0.15893815442E+03  0.00000000000E+00 0.  1.
         21   -1    0    0  501  503 -0.00000000000E+00 -0.00000000000E+00 -0.20239698306E+03  0.20239698306E+03  0.00000000000E+00 0.  1.
          6    2    1    2  501    0  0.18262370272E+01  0.45009724931E+02 -0.49860516562E+02  0.18245559412E+03  0.16963125371E+03 0.  0.
         24    2    3    3    0    0 -0.27716491115E+02  0.18399720609E+02  0.34613480072E+02  0.88973985112E+02  0.74910102295E+02 0.  0.
         -6    2    1    2    0  502 -0.18262370272E+01 -0.45009724931E+02  0.64016879161E+01  0.17887954335E+03  0.17299623968E+03 0.  0.
        -24    2    5    5    0    0 -0.23966163895E+02  0.19206889118E+02  0.57013166574E+02  0.94041098923E+02  0.68190509035E+02 0.  0.
          5    1    3    3  501    0  0.29542728142E+02  0.26610004322E+02 -0.84473996634E+02  0.93481609012E+02  0.47000000000E+01 0. -1.
        -13    1    4    4    0    0  0.45107709381E+01  0.39885947480E+02  0.54911404922E+01  0.40514052929E+02  0.00000000000E+00 0.  1.
         14    1    4    4    0    0 -0.32227262053E+02 -0.21486226871E+02  0.29122339580E+02  0.48459932183E+02  0.00000000000E+00 0. -1.
         -5    1    5    5    0  502  0.22139926868E+02 -0.64216614049E+02 -0.50611478658E+02  0.84838444432E+02  0.47000000000E+01 0.  1.
         11    1    6    6    0    0 -0.81296350208E+01  0.27616940793E+02  0.67419723640E+02  0.73308972984E+02  0.00000000000E+00 0. -1.
        -12    1    6    6    0    0 -0.15836528874E+02 -0.84100516747E+01 -0.10406557066E+02  0.20732125939E+02  0.00000000000E+00 0.  1.
</event>
<event>
12    1  0.8344842E-002  0.1747468E+03  0.7818608E-02  0.1173333E+00
         21   -1    0    0  503  502  0.00000000000E+00  0.00000000000E+00  0.15479630599E+03  0.15479630599E+03  0.00000000000E+00 0.  1.
         21   -1    0    0  501  503 -0.00000000000E+00 -0.00000000000E+00 -0.19652223733E+03  0.19652223733E+03  0.00000000000E+00 0.  1.
          6    2    1    2  501    0 -0.14671142254E+02  0.24734862909E+02 -0.32003669162E+02  0.17630147221E+03  0.17097051912E+03 0.  0.
         24    2    3    3    0    0 -0.45234557341E+02 -0.39241933295E+02 -0.32785261106E+02  0.10523914971E+03  0.80089392422E+02 0.  0.
         -6    2    1    2    0  502  0.14671142254E+02 -0.24734862909E+02 -0.97222621801E+01  0.17501707110E+03  0.17236414052E+03 0.  0.
        -24    2    5    5    0    0  0.16839236629E+02 -0.73057788525E+02  0.28429729158E+02  0.11323139140E+03  0.79950598145E+02 0.  0.
          5    1    3    3  501    0  0.30563415087E+02  0.63976796204E+02  0.78159194384E+00  0.71062322509E+02  0.47000000000E+01 0. -1.
        -11    1    4    4    0    0  0.11206143590E+02 -0.36505897115E+02  0.30800113829E+01  0.38311155666E+02  0.00000000000E+00 0.  1.
         12    1    4    4    0    0 -0.56440700931E+02 -0.27360361806E+01 -0.35865272489E+02  0.66927994041E+02  0.00000000000E+00 0. -1.
         -5    1    5    5    0  502 -0.21680943747E+01  0.48322925616E+02 -0.38151991338E+02  0.61785679703E+02  0.47000000000E+01 0.  1.
         11    1    6    6    0    0  0.45014526630E+02 -0.19796144393E+02  0.96052357966E+01  0.50104445863E+02  0.00000000000E+00 0. -1.
        -12    1    6    6    0    0 -0.28175290002E+02 -0.53261644132E+02  0.18824493361E+02  0.63126945536E+02  0.00000000000E+00 0.  1.
</event>
<event>
12    1  0.8344842E-002  0.2959538E+03  0.7818608E-02  0.1087493E+00
         21   -1    0    0  503  502  0.00000000000E+00  0.00000000000E+00  0.46938505649E+03  0.46938505649E+03  0.00000000000E+00 0.  1.
         21   -1    0    0  501  503 -0.00000000000E+00 -0.00000000000E+00 -0.28264347332E+03  0.28264347332E+03  0.00000000000E+00 0. -1.
          6    2    1    2  501    0  0.15819703092E+03 -0.17913459107E+03  0.31391729018E+03  0.43143098268E+03  0.17456553335E+03 0.  0.
         24    2    3    3    0    0  0.88680152225E+02 -0.10138697847E+03  0.28205344672E+03  0.32227658649E+03  0.78514728491E+02 0.  0.
         -6    2    1    2    0  502 -0.15819703092E+03  0.17913459107E+03 -0.12717570701E+03  0.32059754713E+03  0.17173707948E+03 0.  0.
        -24    2    5    5    0    0 -0.14484688187E+03  0.10267786943E+03 -0.13592679876E+03  0.24235096018E+03  0.93458703301E+02 0.  0.
          5    1    3    3  501    0  0.69516878691E+02 -0.77747612601E+02  0.31863843461E+02  0.10915439619E+03  0.47000000000E+01 0. -1.
        -13    1    4    4    0    0  0.94748721903E+02 -0.80467935219E+02  0.18551866704E+03  0.22331498992E+03  0.00000000000E+00 0.  1.
         14    1    4    4    0    0 -0.60685696778E+01 -0.20919043247E+02  0.96534779674E+02  0.98961596567E+02  0.00000000000E+00 0. -1.
         -5    1    5    5    0  502 -0.13350149050E+02  0.76456721638E+02  0.87510917471E+01  0.78246586954E+02  0.47000000000E+01 0.  1.
         13    1    6    6    0    0 -0.54777647613E+02  0.95739766278E+02 -0.73883928992E+02  0.13276117086E+03  0.00000000000E+00 0. -1.
        -14    1    6    6    0    0 -0.90069234253E+02  0.69381031515E+01 -0.62042869766E+02  0.10958978932E+03  0.00000000000E+00 0.  1.
</event>
<event>
12    1  0.8344842E-002  0.2560031E+03  0.7818608E-02  0.1110007E+00
         21   -1    0    0  501  502  0.00000000000E+00  0.00000000000E+00  0.42471684300E+02  0.42471684300E+02  0.00000000000E+00 0.  1.
         21   -1    0    0  502  503 -0.00000000000E+00 -0.00000000000E+00 -0.26614566170E+04  0.26614566170E+04  0.00000000000E+00 0.  1.
         -6    2    1    2    0  503  0.17929628706E+03  0.57574970321E+02 -0.21967439402E+04  0.22116106139E+04  0.17342298847E+03 0.  0.
        -24    2    3    3    0    0  0.11643337141E+03 -0.30594213081E+02 -0.14338073512E+04  0.14410135208E+04  0.78890499410E+02 0.  0.
          6    2    1    2  501    0 -0.17929628706E+03 -0.57574970321E+02 -0.42224099247E+03  0.49231768738E+03  0.16919578546E+03 0.  0.
         24    2    5    5    0    0 -0.58268284097E+02  0.29064999648E+02 -0.14620915831E+03  0.17867788542E+03  0.79427335533E+02 0.  0.
          5    1    5    5  501    0 -0.12102800296E+03 -0.86639969969E+02 -0.27603183416E+03  0.31363980195E+03  0.47000000000E+01 0. -1.
        -13    1    6    6    0    0 -0.76633134942E+02  0.30088403811E+02 -0.13141264494E+03  0.15507170169E+03  0.00000000000E+00 0.  1.
         14    1    6    6    0    0  0.18364850844E+02 -0.10234041636E+01 -0.14796513371E+02  0.23606183736E+02  0.00000000000E+00 0. -1.
         -5    1    3    3    0  503  0.62862915645E+02  0.88169183402E+02 -0.76293658905E+03  0.77059709315E+03  0.47000000000E+01 0.  1.
         13    1    4    4    0    0  0.24384260422E+02 -0.35844213325E+01 -0.77650823824E+02  0.81468341539E+02  0.00000000000E+00 0. -1.
        -14    1    4    4    0    0  0.92049110992E+02 -0.27009791748E+02 -0.13561565274E+04  0.13595451792E+04  0.00000000000E+00 0.  1.
</event>
<event>
12    1  0.8344842E-002  0.1935219E+03  0.7818608E-02  0.1156356E+00
         21   -1    0    0  501  502  0.00000000000E+00  0.00000000000E+00  0.11922800817E+04  0.11922800817E+04  0.00000000000E+00 0.  1.
         21   -1    0    0  502  503 -0.00000000000E+00 -0.00000000000E+00 -0.44293862921E+02  0.44293862921E+02  0.00000000000E+00 0. -1.
         -6    2    1    2    0  503  0.15903478240E+02  0.76557530889E+02  0.23584135106E+03  0.30507684801E+03  0.17702193130E+03 0.  0.
        -24    2    3    3    0    0  0.76689412931E+02  0.37287276365E+02  0.10978589217E+03  0.15964936964E+03  0.78507146638E+02 0.  0.
          6    2    1    2  501    0 -0.15903478240E+02 -0.76557530889E+02  0.91214486774E+03  0.93149709664E+03  0.17194361036E+03 0.  0.
         24    2    5    5    0    0 -0.27457475080E+02 -0.71633058791E+02  0.91132627714E+03  0.91806186836E+03  0.80229687075E+02 0.  0.
          5    1    5    5  501    0  0.11553996839E+02 -0.49244720976E+01  0.81859060767E+00  0.13435228282E+02  0.47000000000E+01 0. -1.
        -11    1    6    6    0    0  0.18864197240E+02 -0.25859492793E+02  0.12463068441E+03  0.12867547863E+03  0.00000000000E+00 0.  1.
         12    1    6    6    0    0 -0.46321672319E+02 -0.45773565998E+02  0.78669559273E+03  0.78938638973E+03  0.00000000000E+00 0. -1.
         -5    1    3    3    0  503 -0.60785934690E+02  0.39270254524E+02  0.12605545889E+03  0.14542747836E+03  0.47000000000E+01 0.  1.
         13    1    4    4    0    0  0.31759196626E+02  0.11548247225E+02 -0.45846508815E+01  0.34103190584E+02  0.00000000000E+00 0. -1.
        -14    1    4    4    0    0  0.44930216304E+02  0.25739029140E+02  0.11437054305E+03  0.12554617906E+03  0.00000000000E+00 0.  1.
</event>
<event>
12    1  0.8344842E-002  0.2242870E+03  0.7818608E-02  0.1130844E+00
         21   -1    0    0  503  502  0.00000000000E+00  0.00000000000E+00  0.61855592134E+02  0.61855592134E+02  0.00000000000E+00 0. -1.
         21   -1    0    0  501  503 -0.00000000000E+00 -0.00000000000E+00 -0.11622555432E+04  0.11622555432E+04  0.00000000000E+00 0. -1.
          6    2    1    2  501    0  0.25252014416E+02  0.14144278998E+03 -0.88725512885E+03  0.91516464704E+03  0.17222351884E+03 0.  0.
         24    2    3    3    0    0 -0.27368644559E+02  0.13144195045E+03 -0.77830725888E+03  0.79367111258E+03  0.78266318951E+02 0.  0.
         -6    2    1    2    0  502 -0.25252014416E+02 -0.14144278998E+03 -0.21314482223E+03  0.30894648831E+03  0.17138696079E+03 0.  0.
        -24    2    5    5    0    0  0.40500466131E+02 -0.69552261688E+02 -0.16387964746E+03  0.19967259298E+03  0.80838113990E+02 0.  0.
          5    1    3    3  501    0  0.52620658975E+02  0.10000839527E+02 -0.10894786997E+03  0.12149353445E+03  0.47000000000E+01 0. -1.
        -13    1    4    4    0    0  0.23548324248E+02  0.18349906560E+02 -0.19982847060E+03  0.20204618361E+03  0.00000000000E+00 0.  1.
         14    1    4    4    0    0 -0.50916968807E+02  0.11309204389E+03 -0.57847878827E+03  0.59162492898E+03  0.00000000000E+00 0. -1.
         -5    1    5    5    0  502 -0.65752480547E+02 -0.71890528289E+02 -0.49265174768E+02  0.10927389533E+03  0.47000000000E+01 0.  1.
         11    1    6    6    0    0 -0.20747801237E+02 -0.42127886116E+02 -0.66529151442E+02  0.81433150721E+02  0.00000000000E+00 0. -1.
        -12    1    6    6    0    0  0.61248267368E+02 -0.27424375572E+02 -0.97350496016E+02  0.11823944226E+03  0.00000000000E+00 0.  1.
</event>
<event>
12    1  0.8344842E-002  0.1760780E+03  0.7818608E-02  0.1171734E+00
         21   -1    0    0  503  502  0.00000000000E+00  0.00000000000E+00  0.30286362976E+04  0.30286362976E+04  0.00000000000E+00 0. -1.
         21   -1    0    0  501  503 -0.00000000000E+00 -0.00000000000E+00 -0.14508796080E+02  0.14508796080E+02  0.00000000000E+00 0.  1.
          6    2    1    2  501    0  0.33413317887E+02  0.33681947634E+01  0.68058200729E+03  0.70299027147E+03  0.17284576531E+03 0.  0.
         24    2    3    3    0    0 -0.62025043806E+01 -0.52257540450E+02  0.24840001897E+03  0.26542085204E+03  0.77306776411E+02 0.  0.
         -6    2    1    2    0  502 -0.33413317887E+02 -0.33681947634E+01  0.23335454942E+04  0.23401548222E+04  0.17251731426E+03 0.  0.
        -24    2    5    5    0    0 -0.18431348919E+02 -0.65813766006E+02  0.11000606199E+04  0.11049904874E+04  0.78736544189E+02 0.  0.
          5    1    3    3  501    0  0.39615822267E+02  0.55625735214E+02  0.43218198832E+03  0.43756941943E+03  0.47000000000E+01 0. -1.
        -13    1    4    4    0    0 -0.63685779016E+01 -0.32346138848E+02  0.25617661813E+02  0.41750402149E+02  0.00000000000E+00 0.  1.
         14    1    4    4    0    0  0.16607352102E+00 -0.19911401602E+02  0.22278235716E+03  0.22367044989E+03  0.00000000000E+00 0. -1.
         -5    1    5    5    0  502 -0.14981968968E+02  0.62445571243E+02  0.12334848743E+04  0.12351643347E+04  0.47000000000E+01 0.  1.
         13    1    6    6    0    0  0.16200922258E+02 -0.31033600092E+02  0.81379357921E+03  0.81454621955E+03  0.00000000000E+00 0. -1.
        -14    1    6    6    0    0 -0.34632271177E+02 -0.34780165914E+02  0.28626704069E+03  0.29044426787E+03  0.00000000000E+00 0.  1.
</event>
<event>
12    1  0.8344842E-002  0.2155139E+03  0.7818608E-02  0.1137379E+00
         21   -1    0    0  503  502  0.00000000000E+00  0.00000000000E+00  0.14738044538E+04  0.14738044538E+04  0.00000000000E+00 0. -1.
         21   -1    0    0  501  503 -0.00000000000E+00 -0.00000000000E+00 -0.33232885865E+02  0.33232885865E+02  0.00000000000E+00 0. -1.
          6    2    1    2  501    0 -0.66958495825E+02 -0.11289963516E+03  0.54582024984E+03  0.58682705013E+03  0.17092827108E+03 0.  0.
         24    2    3    3    0    0 -0.61169458239E+02 -0.19624139270E+02  0.15865092924E+03  0.18851058813E+03  0.78989334885E+02 0.  0.
         -6    2    1    2    0  502  0.66958495825E+02  0.11289963516E+03  0.89475131806E+03  0.92021028950E+03  0.17022716570E+03 0.  0.
        -24    2    5    5    0    0  0.90254375842E+00 -0.35966449317E+01  0.30900465345E+03  0.31933091959E+03  0.80464960770E+02 0.  0.
          5    1    3    3  501    0 -0.57890375860E+01 -0.93275495885E+02  0.38716932060E+03  0.39831646200E+03  0.47000000000E+01 0. -1.
        -11    1    4    4    0    0 -0.29957296342E+01 -0.11426593155E+02 -0.63158063199E+01  0.13395179605E+02  0.00000000000E+00 0.  1.
         12    1    4    4    0    0 -0.58173728605E+02 -0.81975461150E+01  0.16496673556E+03  0.17511540852E+03  0.00000000000E+00 0. -1.
         -5    1    5    5    0  502  0.66055952066E+02  0.11649628009E+03  0.58574666461E+03  0.60087936990E+03  0.47000000000E+01 0.  1.
         11    1    6    6    0    0 -0.36663336464E+02  0.99863771980E+00  0.21302278498E+03  0.21615712905E+03  0.00000000000E+00 0. -1.
        -12    1    6    6    0    0  0.37565880222E+02 -0.45952826515E+01  0.95981868478E+02  0.10317379055E+03  0.00000000000E+00 0.  1.
</event>
<event>
12    1  0.8344842E-002  0.2205322E+03  0.7818608E-02  0.1133555E+00
         21   -1    0    0  503  502  0.00000000000E+00  0.00000000000E+00  0.15474960751E+03  0.15474960751E+03  0.00000000000E+00 0.  1.
         21   -1    0    0  501  503 -0.00000000000E+00 -0.00000000000E+00 -0.10814512046E+04  0.10814512046E+04  0.00000000000E+00 0. -1.
          6    2    1    2  501    0  0.75090363642E+02  0.11542434630E+03 -0.98401399604E+03  0.10083430250E+04  0.17178698815E+03 0.  0.
         24    2    3    3    0    0  0.79197175027E+02  0.87968556674E+01 -0.49416610759E+03  0.50698553633E+03  0.80527106959E+02 0.  0.
         -6    2    1    2    0  502 -0.75090363642E+02 -0.11542434630E+03  0.57312398925E+02  0.22785778711E+03  0.17225886812E+03 0.  0.
        -24    2    5    5    0    0  0.20676739751E+01 -0.11552022437E+03  0.19231981309E+02  0.14168598101E+03  0.79723588692E+02 0.  0.
          5    1    3    3  501    0 -0.41068113846E+01  0.10662749063E+03 -0.48984788845E+03  0.50135748870E+03  0.47000000000E+01 0. -1.
        -11    1    4    4    0    0  0.57161265242E+02  0.25788398033E+02 -0.16290831802E+03  0.17456108328E+03  0.00000000000E+00 0.  1.
         12    1    4    4    0    0  0.22035909785E+02 -0.16991542366E+02 -0.33125778957E+03  0.33242445305E+03  0.00000000000E+00 0. -1.
         -5    1    5    5    0  502 -0.77158037618E+02  0.95878070546E-01  0.38080417616E+02  0.86171806105E+02  0.47000000000E+01 0.  1.
         11    1    6    6    0    0 -0.97173635215E+01 -0.98194870547E+02 -0.16712653097E+02  0.10007983078E+03  0.00000000000E+00 0. -1.
        -12    1    6    6    0    0  0.11785037497E+02 -0.17325353825E+02  0.35944634406E+02  0.41606150225E+02  0.00000000000E+00 0.  1.
</event>
<event>
12    1  0.8344842E-002  0.2023237E+03  0.7818608E-02  0.1147813E+00
         21   -1    0    0  501  502  0.00000000000E+00  0.00000000000E+00  0.10782277079E+03  0.10782277079E+03  0.00000000000E+00 0.  1.
         21   -1    0    0  502  503 -0.00000000000E+00 -0.00000000000E+00 -0.61367313081E+03  0.61367313081E+03  0.00000000000E+00 0.  1.
         -6    2    1    2    0  503 -0.92578924964E+02 -0.50599789547E+02 -0.47574848172E+03  0.51694517701E+03  0.17252391755E+03 0.  0.
        -24    2    3    3    0    0 -0.48913717914E+02 -0.35522584077E+02 -0.45485684292E+03  0.46602835265E+03  0.81444902477E+02 0.  0.
          6    2    1    2  501    0  0.92578924964E+02  0.50599789547E+02 -0.30101878296E+02  0.20455072459E+03  0.17263742295E+03 0.  0.
         24    2    5    5    0    0  0.13129636542E+03  0.31108709034E+02 -0.35288165226E+02  0.16064252504E+03  0.79713730924E+02 0.  0.
          5    1    5    5  501    0 -0.38717440455E+02  0.19491080513E+02  0.51862869303E+01  0.43908199542E+02  0.47000000000E+01 0. -1.
        -13    1    6    6    0    0  0.21594756033E+02  0.47826140646E+01  0.24463479850E+02  0.32979823101E+02  0.00000000000E+00 0.  1.
         14    1    6    6    0    0  0.10970160939E+03  0.26326094969E+02 -0.59751645076E+02  0.12766270194E+03  0.00000000000E+00 0. -1.
         -5    1    3    3    0  503 -0.43665207050E+02 -0.15077205470E+02 -0.20891638796E+02  0.50916824362E+02  0.47000000000E+01 0.  1.
         13    1    4    4    0    0  0.22978888616E+02 -0.63326952232E+01 -0.10653927951E+03  0.10917302977E+03  0.00000000000E+00 0. -1.
        -14    1    4    4    0    0 -0.71892606530E+02 -0.29189888854E+02 -0.34831756341E+03  0.35685532288E+03  0.00000000000E+00 0.  1.
</event>
<event>
12    1  0.8344842E-002  0.2467847E+03  0.7818608E-02  0.1116294E+00
         21   -1    0    0  501  502  0.00000000000E+00  0.00000000000E+00  0.13453103958E+03  0.13453103958E+03  0.00000000000E+00 0. -1.
         21   -1    0    0  502  503 -0.00000000000E+00 -0.00000000000E+00 -0.44218119420E+03  0.44218119420E+03  0.00000000000E+00 0.  1.
         -6    2    1    2    0  503 -0.54960404189E+02  0.16507564427E+03 -0.15751918324E+03  0.29277122267E+03  0.17502023135E+03 0.  0.
        -24    2    3    3    0    0  0.32397145702E+02  0.11707545142E+03 -0.95849579681E+02  0.17546568129E+03  0.82733469717E+02 0.  0.
          6    2    1    2  501    0  0.54960404189E+02 -0.16507564427E+03 -0.15013097138E+03  0.28394101110E+03  0.16677102524E+03 0.  0.
         24    2    5    5    0    0 -0.40557460493E+01 -0.42944783843E+02 -0.10957881949E+03  0.14228854879E+03  0.79861191447E+02 0.  0.
          5    1    5    5  501    0  0.59016150238E+02 -0.12213086042E+03 -0.40552151885E+02  0.14165246231E+03  0.47000000000E+01 0. -1.
        -13    1    6    6    0    0  0.69434563927E+01  0.22440676385E+02 -0.20067241590E+02  0.30894817176E+02  0.00000000000E+00 0.  1.
         14    1    6    6    0    0 -0.10999202442E+02 -0.65385460228E+02 -0.89511577905E+02  0.11139373161E+03  0.00000000000E+00 0. -1.
         -5    1    3    3    0  503 -0.87357549891E+02  0.48000192843E+02 -0.61669603554E+02  0.11730554138E+03  0.47000000000E+01 0.  1.
         13    1    4    4    0    0  0.25946346413E+02  0.12990135415E+03 -0.84048717893E+02  0.15688136180E+03  0.00000000000E+00 0. -1.
        -14    1    4    4    0    0  0.64507992896E+01 -0.12825902722E+02 -0.11800861788E+02  0.18584319494E+02  0.00000000000E+00 0.  1.
</event>
<event>
12    1  0.8344842E-002  0.1844014E+03  0.7818608E-02  0.1163737E+00
         21   -1    0    0  503  502  0.00000000000E+00  0.00000000000E+00  0.27571522285E+02  0.27571522285E+02  0.00000000000E+00 0. -1.
         21   -1    0    0  501  503 -0.00000000000E+00 -0.00000000000E+00 -0.15326755789E+04  0.15326755789E+04  0.00000000000E+00 0.  1.
          6    2    1    2  501    0 -0.66007837251E+02  0.13371131642E+02 -0.11003022127E+04  0.11156472682E+04  0.17166259312E+03 0.  0.
         24    2    3    3    0    0  0.20708172116E+02  0.22161135291E+02 -0.73392338485E+03  0.73901420275E+03  0.81108031181E+02 0.  0.
         -6    2    1    2    0  502  0.66007837251E+02 -0.13371131642E+02 -0.40480184385E+03  0.44459983299E+03  0.17108084922E+03 0.  0.
        -24    2    5    5    0    0  0.71109731523E+01  0.58794406938E+02 -0.21529631503E+03  0.23338633671E+03  0.67892051588E+02 0.  0.
          5    1    3    3  501    0 -0.86716009367E+02 -0.87900036493E+01 -0.36637882789E+03  0.37663306542E+03  0.47000000000E+01 0. -1.
        -11    1    4    4    0    0  0.10611771619E+02  0.40620956947E+02 -0.67743137499E+03  0.67873112472E+03  0.00000000000E+00 0.  1.
         12    1    4    4    0    0  0.10096400496E+02 -0.18459821656E+02 -0.56492009855E+02  0.60283078024E+02  0.00000000000E+00 0. -1.
         -5    1    5    5    0  502  0.58896864099E+02 -0.72165538580E+02 -0.18950552881E+03  0.21121349628E+03  0.47000000000E+01 0.  1.
         13    1    6    6    0    0 -0.45507405341E+01  0.11344800368E+02  0.39495050231E+00  0.12229870020E+02  0.00000000000E+00 0. -1.
        -14    1    6    6    0    0  0.11661713686E+02  0.47449606570E+02 -0.21569126554E+03  0.22115646669E+03  0.00000000000E+00 0.  1.
</event>
<event>
12    1  0.8344842E-002  0.2251953E+03  0.7818608E-02  0.1130087E+00
         21   -1    0    0  501  502  0.00000000000E+00  0.00000000000E+00  0.16615246755E+03  0.16615246755E+03  0.00000000000E+00 0.  1.
         21   -1    0    0  502  503 -0.00000000000E+00 -0.00000000000E+00 -0.53494823883E+03  0.53494823883E+03  0.00000000000E+00 0.  1.
         -6    2    1    2    0  503  0.11816917253E+03  0.85353354133E+02 -0.41421729627E+03  0.47147520553E+03  0.17165008740E+03 0.  0.
        -24    2    3    3    0    0  0.12503958194E+03  0.11073581900E+03 -0.40117673601E+03  0.44174948838E+03  0.79388401643E+02 0.  0.
          6    2    1    2  501    0 -0.11816917253E+03 -0.85353354133E+02  0.45421524992E+02  0.22962550085E+03  0.17150978779E+03 0.  0.
         24    2    5    5    0    0  0.13336966708E-01 -0.67760574908E+02  0.10683444126E+02  0.10510467651E+03  0.79632665126E+02 0.  0.
          5    1    5    5  501    0 -0.11818250950E+03 -0.17592779225E+02  0.34738080866E+02  0.12452082434E+03  0.47000000000E+01 0. -1.
        -13    1    6    6    0    0  0.94706344351E+01 -0.59643453454E+02 -0.26454829331E+02  0.65930967318E+02  0.00000000000E+00 0.  1.
         14    1    6    6    0    0 -0.94572974684E+01 -0.81171214547E+01  0.37138273458E+02  0.39173709188E+02  0.00000000000E+00 0. -1.
         -5    1    3    3    0  503 -0.68704094047E+01 -0.25382464864E+02 -0.13040560264E+02  0.29725717148E+02  0.47000000000E+01 0.  1.
         11    1    4    4    0    0  0.27328949726E+02  0.66875331673E+01 -0.19433979645E+02  0.34194651012E+02  0.00000000000E+00 0. -1.
        -12    1    4    4    0    0  0.97710632210E+02  0.10404828583E+03 -0.38174275636E+03  0.40755483737E+03  0.00000000000E+00 0.  1.
</event>
<event>
12    1  0.8344842E-002  0.1989309E+03  0.7818608E-02  0.1150654E+00
         21   -1    0    0  501  502  0.00000000000E+00  0.00000000000E+00  0.48343091020E+03  0.48343091020E+03  0.00000000000E+00 0. -1.
         21   -1    0    0  502  503 -0.00000000000E+00 -0.00000000000E+00 -0.11423142152E+03  0.11423142152E+03  0.00000000000E+00 0. -1.
         -6    2    1    2    0  503 -0.19847311523E+01  0.99848977488E+02  0.25487574216E+02  0.20055703840E+03  0.17204578387E+03 0.  0.
        -24    2    3    3    0    0 -0.55448204509E+02  0.20543883774E+02 -0.47968899940E+01  0.10012357961E+03  0.80654612366E+02 0.  0.
          6    2    1    2  501    0  0.19847311523E+01 -0.99848977488E+02  0.34371191447E+03  0.39710529332E+03  0.17199121016E+03 0.  0.
         24    2    5    5    0    0 -0.59769851419E+02 -0.22666680409E+02  0.15644391230E+03  0.18529847075E+03  0.75990868053E+02 0.  0.
          5    1    5    5  501    0  0.61754582572E+02 -0.77182297079E+02  0.18726800217E+03  0.21180682257E+03  0.47000000000E+01 0. -1.
        -11    1    6    6    0    0 -0.32885990313E+01  0.24825089817E+02  0.32193231643E+02  0.40786077669E+02  0.00000000000E+00 0.  1.
         12    1    6    6    0    0 -0.56481252388E+02 -0.47491770225E+02  0.12425068066E+03  0.14451239308E+03  0.00000000000E+00 0. -1.
         -5    1    3    3    0  503  0.53463473356E+02  0.79305093713E+02  0.30284464210E+02  0.10043345879E+03  0.47000000000E+01 0.  1.
         11    1    4    4    0    0  0.15485705744E+02  0.21008473012E+02  0.94766498178E+01  0.27766344960E+02  0.00000000000E+00 0. -1.
        -12    1    4    4    0    0 -0.70933910253E+02 -0.46458923756E+00 -0.14273539812E+02  0.72357234647E+02  0.00000000000E+00 0.  1.
</event>
<event>
12    1  0.8344842E-002  0.2700444E+03  0.7818608E-02  0.1101310E+00
         21   -1    0    0  501  502  0.00000000000E+00  0.00000000000E+00  0.12459721120E+03  0.12459721120E+03  0.00000000000E+00 0.  1.
         21   -1    0    0  502  503 -0.00000000000E+00 -0.00000000000E+00 -0.60140991693E+03  0.60140991693E+03  0.00000000000E+00 0.  1.
         -6    2    1    2    0  503 -0.20826297308E+03  0.49078330274E+01 -0.29923306298E+03  0.40280669096E+03  0.17121697205E+03 0.  0.
        -24    2    3    3    0    0 -0.90224061689E+02  0.17812541339E+02 -0.58329511211E+02  0.13418739278E+03  0.78398064810E+02 0.  0.
          6    2    1    2  501    0  0.20826297308E+03 -0.49078330274E+01 -0.17757964275E+03  0.32320043717E+03  0.17183259379E+03 0.  0.
         24    2    5    5    0    0  0.22853759462E+03 -0.70201973432E+01 -0.13845725959E+03  0.27883633878E+03  0.79376166227E+02 0.  0.
          5    1    5    5  501    0 -0.20274621549E+02  0.21123643158E+01 -0.39122383158E+02  0.44364098389E+02  0.47000000000E+01 0. -1.
        -11    1    6    6    0    0  0.12370595218E+03  0.12263506576E+02 -0.11574226160E+03  0.16985236919E+03  0.00000000000E+00 0.  1.
         12    1    6    6    0    0  0.10483164244E+03 -0.19283703920E+02 -0.22714997983E+02  0.10898396959E+03  0.00000000000E+00 0. -1.
         -5    1    3    3    0  503 -0.11803891139E+03 -0.12904708312E+02 -0.24090355177E+03  0.26861929818E+03  0.47000000000E+01 0.  1.
         13    1    4    4    0    0 -0.87489739028E+02  0.31156688564E+02 -0.69961917708E+02  0.11627494832E+03  0.00000000000E+00 0. -1.
        -14    1    4    4    0    0 -0.27343226606E+01 -0.13344147224E+02  0.11632406497E+02  0.17912444458E+02  0.00000000000E+00 0.  1.
</event>
<event>
12    1  0.8344842E-002  0.1896317E+03  0.7818608E-02  0.1161181E+00
         21   -1    0    0  501  502  0.00000000000E+00  0.00000000000E+00  0.29263152698E+03  0.29263152698E+03  0.00000000000E+00 0. -1.
         21   -1    0    0  502  503 -0.00000000000E+00 -0.00000000000E+00 -0.14841037425E+03  0.14841037425E+03  0.00000000000E+00 0. -1.
         -6    2    1    2    0  503  0.42827139131E+02 -0.36611523158E+02 -0.31952131446E+02  0.18220371806E+03  0.17030175776E+03 0.  0.
        -24    2    3    3    0    0 -0.23893759029E+02 -0.16868524292E+02  0.27485240411E+02  0.90572089083E+02  0.81193633052E+02 0.  0.
          6    2    1    2  501    0 -0.42827139131E+02  0.36611523158E+02  0.17617328417E+03  0.25883818317E+03  0.18106797490E+03 0.  0.
         24    2    5    5    0    0  0.48868580960E+02  0.10504536004E+02  0.98703584346E+02  0.13590192223E+03  0.78920538660E+02 0.  0.
          5    1    5    5  501    0 -0.91695720091E+02  0.26106987155E+02  0.77469699827E+02  0.12293626093E+03  0.47000000000E+01 0. -1.
        -11    1    6    6    0    0  0.62342740220E+01 -0.31974655202E+02  0.27184756130E+02  0.42429420380E+02  0.00000000000E+00 0.  1.
         12    1    6    6    0    0  0.42634306938E+02  0.42479191206E+02  0.71518828216E+02  0.93472501855E+02  0.00000000000E+00 0. -1.
         -5    1    3    3    0  503  0.66720898160E+02 -0.19742998867E+02 -0.59437371857E+02  0.91631628976E+02  0.47000000000E+01 0.  1.
         11    1    4    4    0    0  0.17344805872E+01 -0.27685393575E+02 -0.20919466498E+02  0.34743539239E+02  0.00000000000E+00 0. -1.
        -12    1    4    4    0    0 -0.25628239616E+02  0.10816869283E+02  0.48404706908E+02  0.55828549845E+02  0.00000000000E+00 0.  1.
</event>
<event>
12    1  0.8344842E-002  0.1737982E+03  0.7818608E-02  0.1174352E+00
         21   -1    0    0  503  502  0.00000000000E+00  0.00000000000E+00  0.77411680861E+02  0.77411680861E+02  0.00000000000E+00 0. -1.
         21   -1    0    0  501  503 -0.00000000000E+00 -0.00000000000E+00 -0.42086404129E+03  0.42086404129E+03  0.00000000000E+00 0. -1.
          6    2    1    2  501    0  0.11458989171E+02 -0.11488015470E+02 -0.24207560301E+03  0.29707173461E+03  0.17142851280E+03 0.  0.
         24    2    3    3    0    0  0.36801256031E+02 -0.28355260973E+02 -0.24873197916E+03  0.26555774083E+03  0.80591333205E+02 0.  0.
         -6    2    1    2    0  502 -0.11458989171E+02  0.11488015470E+02 -0.10137675742E+03  0.20120398754E+03  0.17303905549E+03 0.  0.
        -24    2    5    5    0    0 -0.52185216374E+02 -0.39954895183E+01 -0.51431217173E+01  0.95462003686E+02  0.79669829310E+02 0.  0.
          5    1    3    3  501    0 -0.25342266860E+02  0.16867245502E+02  0.66563761528E+01  0.31513993779E+02  0.47000000000E+01 0. -1.
        -11    1    4    4    0    0  0.10811285093E+02 -0.42427378704E+02 -0.58640924022E+02  0.73182814370E+02  0.00000000000E+00 0.  1.
         12    1    4    4    0    0  0.25989970938E+02  0.14072117731E+02 -0.19009105514E+03  0.19237492646E+03  0.00000000000E+00 0. -1.
         -5    1    5    5    0  502  0.40726227203E+02  0.15483504988E+02 -0.96233635702E+02  0.10574198385E+03  0.47000000000E+01 0.  1.
         11    1    6    6    0    0 -0.31320117792E+02  0.23298450546E+02 -0.33091254192E+02  0.51174199362E+02  0.00000000000E+00 0. -1.
        -12    1    6    6    0    0 -0.20865098582E+02 -0.27293940064E+02  0.27948132475E+02  0.44287804325E+02  0.00000000000E+00 0.  1.
</event>
<event>
12    1  0.8344842E-002  0.2226434E+03  0.7818608E-02  0.1132008E+00
         21   -1    0    0  503  502  0.00000000000E+00  0.00000000000E+00  0.98454618975E+02  0.98454618975E+02  0.00000000000E+00 0. -1.
         21   -1    0    0  501  503 -0.00000000000E+00 -0.00000000000E+00 -0.68773628899E+03  0.68773628899E+03  0.00000000000E+00 0.  1.
          6    2    1    2  501    0  0.94000844833E+02 -0.10489550737E+03 -0.90411967629E+02  0.23989330100E+03  0.17185821388E+03 0.  0.
         24    2    3    3    0    0 -0.59443282960E+01 -0.28792526432E+02 -0.73007541948E+02  0.11298504526E+03  0.81062782181E+02 0.  0.
         -6    2    1    2    0  502 -0.94000844833E+02  0.10489550737E+03 -0.49886970239E+03  0.54629760697E+03  0.17242641654E+03 0.  0.
        -24    2    5    5    0    0 -0.78004383334E+02  0.12696602387E+03 -0.29643477499E+03  0.34198171354E+03  0.82902723317E+02 0.  0.
          5    1    3    3  501    0  0.99945173129E+02 -0.76102980942E+02 -0.17404425681E+02  0.12690825573E+03  0.47000000000E+01 0. -1.
        -11    1    4    4    0    0 -0.12538127912E+02 -0.56428517953E+02 -0.48021330825E+02  0.75149387916E+02  0.00000000000E+00 0.  1.
         12    1    4    4    0    0  0.65937996161E+01  0.27635991521E+02 -0.24986211122E+02  0.37835657349E+02  0.00000000000E+00 0. -1.
         -5    1    5    5    0  502 -0.15996461499E+02 -0.22070516492E+02 -0.20243492740E+03  0.20431589343E+03  0.47000000000E+01 0.  1.
         11    1    6    6    0    0 -0.57049890817E+01  0.39416646378E+02 -0.23194082066E+02  0.46088874525E+02  0.00000000000E+00 0. -1.
        -12    1    6    6    0    0 -0.72299394253E+02  0.87549377489E+02 -0.27324069293E+03  0.29589283901E+03  0.00000000000E+00 0.  1.
</event>
<event>
12    1  0.8344842E-002  0.1708554E+03  0.7818608E-02  0.1177854E+00
         21   -1    0    0  503  502  0.00000000000E+00  0.00000000000E+00  0.12462433576E+04  0.12462433576E+04  0.00000000000E+00 0.  1.
         21   -1    0    0  501  503 -0.00000000000E+00 -0.00000000000E+00 -0.33074514002E+02  0.33074514002E+02  0.00000000000E+00 0.  1.
          6    2    1    2  501    0 -0.15706157593E+01 -0.20676441172E+02  0.25707134736E+03  0.30867012741E+03  0.16959241690E+03 0.  0.
         24    2    3    3    0    0 -0.62930771001E+02 -0.35523435853E+02  0.17157426229E+03  0.20228712380E+03  0.79121151039E+02 0.  0.
         -6    2    1    2    0  502  0.15706157593E+01  0.20676441172E+02  0.95609749626E+03  0.97064774421E+03  0.16614643821E+03 0.  0.
        -24    2    5    5    0    0  0.55615758643E+02  0.49132528760E+02  0.63749060917E+03  0.64620504528E+03  0.75362893846E+02 0.  0.
          5    1    3    3  501    0  0.61360155241E+02  0.14846994680E+02  0.85497085066E+02  0.10638300361E+03  0.47000000000E+01 0. -1.
        -11    1    4    4    0    0  0.12897042100E+02 -0.26789730478E+02  0.35881425419E+02  0.46599356692E+02  0.00000000000E+00 0.  1.
         12    1    4    4    0    0 -0.75827813100E+02 -0.87337053744E+01  0.13569283688E+03  0.15568776711E+03  0.00000000000E+00 0. -1.
         -5    1    5    5    0  502 -0.54045142883E+02 -0.28456087587E+02  0.31860688709E+03  0.32444269893E+03  0.47000000000E+01 0.  1.
         11    1    6    6    0    0  0.50637464298E+02 -0.32775087872E+01  0.38125500014E+03  0.38461704328E+03  0.00000000000E+00 0. -1.
        -12    1    6    6    0    0  0.49782943443E+01  0.52410037547E+02  0.25623560903E+03  0.26158800199E+03  0.00000000000E+00 0.  1.
</event>
<event>
12    1  0.8344842E-002  0.1869522E+03  0.7818608E-02  0.1161929E+00
         21   -1    0    0  503  502  0.00000000000E+00  0.00000000000E+00  0.69731016060E+03  0.69731016060E+03  0.00000000000E+00 0.  1.
         21   -1    0    0  501  503 -0.00000000000E+00 -0.00000000000E+00 -0.14155764658E+03  0.14155764658E+03  0.00000000000E+00 0.  1.
          6    2    1    2  501    0  0.58577176731E+02 -0.29561826324E+02 -0.59898405183E+02  0.19631333533E+03  0.17505975973E+03 0.  0.
         24    2    3    3    0    0  0.53439962650E+01 -0.23900627190E+02 -0.98574534920E+02  0.13010341395E+03  0.81302897302E+02 0.  0.
         -6    2    1    2    0  502 -0.58577176731E+02  0.29561826324E+02  0.61565091920E+03  0.64255447185E+03  0.17188661311E+03 0.  0.
        -24    2    5    5    0    0 -0.31872200242E+02  0.74385199322E+02  0.53087758245E+03  0.54290057499E+03  0.79756076511E+02 0.  0.
          5    1    3    3  501    0  0.53233180466E+02 -0.56611991344E+01  0.38676129737E+02  0.66209921384E+02  0.47000000000E+01 0. -1.
        -11    1    4    4    0    0 -0.10117024825E+02 -0.51800755127E+02 -0.66056231293E+02  0.84552339505E+02  0.00000000000E+00 0.  1.
         12    1    4    4    0    0  0.15461021090E+02  0.27900127937E+02 -0.32518303627E+02  0.45551074442E+02  0.00000000000E+00 0. -1.
         -5    1    5    5    0  502 -0.26704976489E+02 -0.44823372999E+02  0.84773336748E+02  0.99653896861E+02  0.47000000000E+01 0.  1.
         13    1    6    6    0    0 -0.23502052791E+02  0.50774364604E+02  0.13371230749E+03  0.14494607190E+03  0.00000000000E+00 0. -1.
        -14    1    6    6    0    0 -0.83701474515E+01  0.23610834718E+02  0.39716527497E+03  0.39795450308E+03  0.00000000000E+00 0.  1.
</event>
<event>
12    1  0.8344842E-002  0.1823136E+03  0.7818608E-02  0.1166876E+00
         21   -1    0    0  501  502  0.00000000000E+00  0.00000000000E+00  0.16616349400E+02  0.16616349400E+02  0.00000000000E+00 0.  1.
         21   -1    0    0  502  503 -0.00000000000E+00 -0.00000000000E+00 -0.20188911298E+04  0.20188911298E+04  0.00000000000E+00 0.  1.
         -6    2    1    2    0  503  0.42969918914E+02  0.14794415274E+02 -0.11852863661E+04  0.11984242558E+04  0.17103110374E+03 0.  0.
        -24    2    3    3    0    0  0.94641247004E+02  0.10743948841E+02 -0.85579443790E+03  0.86484764809E+03  0.80653185930E+02 0.  0.
          6    2    1    2  501    0 -0.42969918914E+02 -0.14794415274E+02 -0.81698841429E+03  0.83708322345E+03  0.17655867362E+03 0.  0.
         24    2    5    5    0    0 -0.70467344094E+02 -0.50278378041E+01 -0.28308314437E+03  0.30236047129E+03  0.79340167838E+02 0.  0.
          5    1    5    5  501    0  0.27497425180E+02 -0.97665774702E+01 -0.53390526992E+03  0.53472275216E+03  0.47000000000E+01 0. -1.
        -13    1    6    6    0    0  0.98648295693E+01  0.19571446669E+02 -0.49779244412E+02  0.54390528232E+02  0.00000000000E+00 0.  1.
         14    1    6    6    0    0 -0.80332173663E+02 -0.24599284473E+02 -0.23330389996E+03  0.24796994306E+03  0.00000000000E+00 0. -1.
         -5    1    3    3    0  503 -0.51671328089E+02  0.40504664330E+01 -0.32949192824E+03  0.33357660769E+03  0.47000000000E+01 0.  1.
         11    1    4    4    0    0  0.69501132911E+02  0.93156432624E+01 -0.28506571912E+03  0.29356371183E+03  0.00000000000E+00 0. -1.
        -12    1    4    4    0    0  0.25140114092E+02  0.14283055789E+01 -0.57072871878E+03  0.57128393626E+03  0.00000000000E+00 0.  1.
</event>
<event>
12    1  0.8344842E-002  0.2036586E+03  0.7818608E-02  0.1147831E+00
         21   -1    0    0  501  502  0.00000000000E+00  0.00000000000E+00  0.12779293617E+03  0.12779293617E+03  0.00000000000E+00 0. -1.
         21   -1    0    0  502  503 -0.00000000000E+00 -0.00000000000E+00 -0.39532003785E+03  0.39532003785E+03  0.00000000000E+00 0. -1.
         -6    2    1    2    0  503  0.58339158536E+01 -0.11589309531E+03 -0.25243682248E+03  0.32434729426E+03  0.16736658518E+03 0.  0.
        -24    2    3    3    0    0 -0.25386287427E+02 -0.45937041204E+01 -0.14445652937E+03  0.16609405015E+03  0.77807319124E+02 0.  0.
          6    2    1    2  501    0 -0.58339158536E+01  0.11589309531E+03 -0.15090279194E+02  0.19876567976E+03  0.16066995615E+03 0.  0.
         24    2    5    5    0    0  0.48770075888E+02  0.89631561057E+02 -0.35380829639E+02  0.13469493345E+03  0.80489657424E+02 0.  0.
          5    1    5    5  501    0 -0.54603991741E+02  0.26261534253E+02  0.20290550445E+02  0.64070746310E+02  0.47000000000E+01 0. -1.
        -13    1    6    6    0    0 -0.10960381740E+02 -0.70282848056E+01 -0.13919676809E+02  0.19060014629E+02  0.00000000000E+00 0.  1.
         14    1    6    6    0    0  0.59730457627E+02  0.96659845863E+02 -0.21461152830E+02  0.11563491882E+03  0.00000000000E+00 0. -1.
         -5    1    3    3    0  503  0.31220203281E+02 -0.11129939119E+03 -0.10798029311E+03  0.15825324411E+03  0.47000000000E+01 0.  1.
         13    1    4    4    0    0  0.81146227396E+01 -0.34894375081E+02 -0.76786018095E+02  0.84732267109E+02  0.00000000000E+00 0. -1.
        -14    1    4    4    0    0 -0.33500910167E+02  0.30300670961E+02 -0.67670511278E+02  0.81361783039E+02  0.00000000000E+00 0.  1.
</event>
<event>
12    1  0.8344842E-002  0.4387230E+03  0.7818608E-02  0.1031223E+00
         21   -1    0    0  503  502  0.00000000000E+00  0.00000000000E+00  0.57509742598E+03  0.57509742598E+03  0.00000000000E+00 0.  1.
         21   -1    0    0  501  503 -0.00000000000E+00 -0.00000000000E+00 -0.34587047217E+03  0.34587047217E+03  0.00000000000E+00 0.  1.
          6    2    1    2  501    0  0.39107951111E+03  0.99385848839E+02  0.28676409588E+02  0.43857967547E+03  0.16943749383E+03 0.  0.
         24    2    3    3    0    0  0.32374162476E+03  0.65090415755E+02 -0.29322310918E+02  0.34320405360E+03  0.88790892901E+02 0.  0.
         -6    2    1    2    0  502 -0.39107951111E+03 -0.99385848839E+02  0.20055054422E+03  0.48238822268E+03  0.17221250141E+03 0.  0.
        -24    2    5    5    0    0 -0.24173065962E+03 -0.89067508873E+02  0.19442662538E+03  0.33248445368E+03  0.79859040457E+02 0.  0.
          5    1    3    3  501    0  0.67337886347E+02  0.34295433083E+02  0.57998720506E+02  0.95375621877E+02  0.47000000000E+01 0. -1.
        -13    1    4    4    0    0  0.23962884129E+03  0.66167125121E+02  0.13202511556E+02  0.24894653309E+03  0.00000000000E+00 0.  1.
         14    1    4    4    0    0  0.84112783467E+02 -0.10767093658E+01 -0.42524822473E+02  0.94257520507E+02  0.00000000000E+00 0. -1.
         -5    1    5    5    0  502 -0.14934885149E+03 -0.10318339965E+02  0.61239188386E+01  0.14990376901E+03  0.47000000000E+01 0.  1.
         13    1    6    6    0    0 -0.76087794281E+01 -0.17797095387E+02 -0.88024043037E+00  0.19375369720E+02  0.00000000000E+00 0. -1.
        -14    1    6    6    0    0 -0.23412188019E+03 -0.71270413487E+02  0.19530686582E+03  0.31310908396E+03  0.00000000000E+00 0.  1.
</event>
<event>
12    1  0.8344842E-002  0.2101795E+03  0.7818608E-02  0.1141764E+00
         21   -1    0    0  501  502  0.00000000000E+00  0.00000000000E+00  0.14047721096E+03  0.14047721096E+03  0.00000000000E+00 0.  1.
         21   -1    0    0  502  503 -0.00000000000E+00 -0.00000000000E+00 -0.31727057555E+03  0.31727057555E+03  0.00000000000E+00 0.  1.
         -6    2    1    2    0  503 -0.39129519149E+02 -0.11504363947E+03 -0.58282131432E+02  0.21645884991E+03  0.16938556198E+03 0.  0.
        -24    2    3    3    0    0  0.32372522805E+02 -0.22897167222E+02 -0.21870009937E+02  0.94182740455E+02  0.82582266653E+02 0.  0.
          6    2    1    2  501    0  0.39129519149E+02  0.11504363947E+03 -0.11851123316E+03  0.24128893660E+03  0.17149134173E+03 0.  0.
         24    2    5    5    0    0 -0.36678287726E+02  0.75356445962E+02 -0.10489955855E+03  0.15451760148E+03  0.76471439412E+02 0.  0.
          5    1    5    5  501    0  0.75807806875E+02  0.39687193509E+02 -0.13611674613E+02  0.86771335115E+02  0.47000000000E+01 0. -1.
        -13    1    6    6    0    0  0.18791937458E+02  0.47130142392E+01 -0.37547562657E+02  0.42251258894E+02  0.00000000000E+00 0.  1.
         14    1    6    6    0    0 -0.55470225184E+02  0.70643431723E+02 -0.67351995890E+02  0.11226634259E+03  0.00000000000E+00 0. -1.
         -5    1    3    3    0  503 -0.71502041954E+02 -0.92146472249E+02 -0.36412121495E+02  0.12227610945E+03  0.47000000000E+01 0.  1.
         13    1    4    4    0    0 -0.24610426021E+02 -0.30061552459E+00 -0.21806530846E+02  0.32882947347E+02  0.00000000000E+00 0. -1.
        -14    1    4    4    0    0  0.56982948826E+02 -0.22596551698E+02 -0.63479090477E-01  0.61299793109E+02  0.00000000000E+00 0.  1.
</event>
<event>
12    1  0.8344842E-002  0.1792336E+03  0.7818608E-02  0.1168552E+00
         21   -1    0    0  501  502  0.00000000000E+00  0.00000000000E+00  0.73596162500E+03  0.73596162500E+03  0.00000000000E+00 0.  1.
         21   -1    0    0  502  503 -0.00000000000E+00 -0.00000000000E+00 -0.43732036258E+02  0.43732036258E+02  0.00000000000E+00 0. -1.
         -6    2    1    2    0  503 -0.26778055161E+02 -0.43950821551E+02  0.32867904342E+03  0.37437225743E+03  0.17168556899E+03 0.  0.
        -24    2    3    3    0    0 -0.20330609587E+02 -0.29429442132E+02  0.60811178919E+02  0.10599244663E+03  0.79101033561E+02 0.  0.
          6    2    1    2  501    0  0.26778055161E+02  0.43950821551E+02  0.36355054533E+03  0.40532140383E+03  0.17166159280E+03 0.  0.
         24    2    5    5    0    0  0.22280140055E+02 -0.35117555019E+02  0.25558367804E+03  0.27134015945E+03  0.81072919890E+02 0.  0.
          5    1    5    5  501    0  0.44979151059E+01  0.79068376571E+02  0.10796686729E+03  0.13398124438E+03  0.47000000000E+01 0. -1.
        -13    1    6    6    0    0 -0.18985041923E+02  0.16371122790E+02  0.65872595023E+02  0.70481517104E+02  0.00000000000E+00 0.  1.
         14    1    6    6    0    0  0.41265181978E+02 -0.51488677810E+02  0.18971108301E+03  0.20085864234E+03  0.00000000000E+00 0. -1.
         -5    1    3    3    0  503 -0.64474455739E+01 -0.14521379419E+02  0.26786786450E+03  0.26837981080E+03  0.47000000000E+01 0.  1.
         13    1    4    4    0    0  0.21375648023E+02 -0.31008859440E+02  0.76948067955E+01  0.38440574187E+02  0.00000000000E+00 0. -1.
        -14    1    4    4    0    0 -0.41706257610E+02  0.15794173076E+01  0.53116372124E+02  0.67551872442E+02  0.00000000000E+00 0.  1.
</event>
<event>
12    1  0.8344842E-002  0.2460060E+03  0.7818608E-02  0.1115944E+00
         21   -1    0    0  503  502  0.00000000000E+00  0.00000000000E+00  0.32245372353E+03  0.32245372353E+03  0.00000000000E+00 0.  1.
         21   -1    0    0  501  503 -0.00000000000E+00 -0.00000000000E+00 -0.19869945645E+03  0.19869945645E+03  0.00000000000E+00 0. -1.
          6    2    1    2  501    0  0.29012194631E+02 -0.17265401068E+03  0.12445377967E+03  0.27569489841E+03  0.17282308553E+03 0.  0.
         24    2    3    3    0    0 -0.47365343767E+02 -0.12585581207E+03  0.74981507513E+02  0.17325859880E+03  0.79455360849E+02 0.  0.
         -6    2    1    2    0  502 -0.29012194631E+02  0.17265401068E+03 -0.69951258627E+00  0.24545828157E+03  0.17204116900E+03 0.  0.
        -24    2    5    5    0    0 -0.18660884833E+02  0.16880901572E+03 -0.50374414637E+02  0.19435427493E+03  0.79945544736E+02 0.  0.
          5    1    3    3  501    0  0.76377538397E+02 -0.46798198613E+02  0.49472272154E+02  0.10243629961E+03  0.47000000000E+01 0. -1.
        -13    1    4    4    0    0 -0.38950494106E+02 -0.10398680139E+03  0.19113068888E+02  0.11267522025E+03  0.00000000000E+00 0.  1.
         14    1    4    4    0    0 -0.84148496604E+01 -0.21869010676E+02  0.55868438625E+02  0.60583378555E+02  0.00000000000E+00 0. -1.
         -5    1    5    5    0  502 -0.10351309798E+02  0.38449949619E+01  0.49674902051E+02  0.51104006639E+02  0.47000000000E+01 0.  1.
         13    1    6    6    0    0 -0.36135839451E+02  0.15328942104E+03 -0.24327508964E+02  0.15935894448E+03  0.00000000000E+00 0. -1.
        -14    1    6    6    0    0  0.17474954618E+02  0.15519594685E+02 -0.26046905674E+02  0.34995330449E+02  0.00000000000E+00 0.  1.
</event>
<event>
12    1  0.8344842E-002  0.1729074E+03  0.7818608E-02  0.1174946E+00
         21   -1    0    0  503  502  0.00000000000E+00  0.00000000000E+00  0.11544567229E+03  0.11544567229E+03  0.00000000000E+00 0.  1.
         21   -1    0    0  501  503 -0.00000000000E+00 -0.00000000000E+00 -0.49688836606E+03  0.49688836606E+03  0.00000000000E+00 0.  1.
          6    2    1    2  501    0 -0.10950592494E+02  0.11070182969E+02 -0.40272160379E+03  0.43812222419E+03  0.17182528551E+03 0.  0.
         24    2    3    3    0    0 -0.57686558656E+02  0.26644940159E+02 -0.35613597555E+03  0.37015801042E+03  0.78399156313E+02 0.  0.
         -6    2    1    2    0  502  0.10950592494E+02 -0.11070182969E+02  0.21278910020E+02  0.17421181416E+03  0.17220481919E+03 0.  0.
        -24    2    5    5    0    0  0.22156868384E+02 -0.32532491684E+01 -0.52804426288E+02  0.98732573355E+02  0.80363568605E+02 0.  0.
          5    1    3    3  501    0  0.46735966162E+02 -0.15574757190E+02 -0.46585628239E+02  0.67964213767E+02  0.47000000000E+01 0. -1.
        -11    1    4    4    0    0  0.15709999321E+02 -0.32673877267E+01 -0.12017621671E+03  0.12124274397E+03  0.00000000000E+00 0.  1.
         12    1    4    4    0    0 -0.73396557977E+02  0.29912327886E+02 -0.23595975884E+03  0.24891526646E+03  0.00000000000E+00 0. -1.
         -5    1    5    5    0  502 -0.11206275890E+02 -0.78169338010E+01  0.74083336308E+02  0.75479240801E+02  0.47000000000E+01 0.  1.
         13    1    6    6    0    0  0.29408378936E+02  0.31995365323E+02 -0.43661242016E+02  0.61602436707E+02  0.00000000000E+00 0. -1.
        -14    1    6    6    0    0 -0.72515105517E+01 -0.35248614492E+02 -0.91431842719E+01  0.37130136648E+02  0.00000000000E+00 0.  1.
</event>
<event>
12    1  0.8344842E-002  0.2123667E+03  0.7818608E-02  0.1140295E+00
         21   -1    0    0  501  502  0.00000000000E+00  0.00000000000E+00  0.38091617234E+02  0.38091617234E+02  0.00000000000E+00 0.  1.
         21   -1    0    0  502  503 -0.00000000000E+00 -0.00000000000E+00 -0.12299531848E+04  0.12299531848E+04  0.00000000000E+00 0.  1.
         -6    2    1    2    0  503 -0.11929853868E+03 -0.91500505088E+01 -0.45689005748E+03  0.50383342468E+03  0.17545292941E+03 0.  0.
        -24    2    3    3    0    0 -0.12775411048E+03 -0.89934403096E+01 -0.46666384310E+03  0.49008067562E+03  0.77472133372E+02 0.  0.
          6    2    1    2  501    0  0.11929853868E+03  0.91500505088E+01 -0.73497151013E+03  0.76421137740E+03  0.17181398051E+03 0.  0.
         24    2    5    5    0    0  0.42942900841E+02  0.38089096518E+02 -0.20672696120E+03  0.22967228128E+03  0.81966141152E+02 0.  0.
          5    1    5    5  501    0  0.76355637834E+02 -0.28939046010E+02 -0.52824454893E+03  0.53453909612E+03  0.47000000000E+01 0. -1.
        -13    1    6    6    0    0  0.45323685949E+02  0.51706753620E+02 -0.20439789309E+03  0.21565324847E+03  0.00000000000E+00 0.  1.
         14    1    6    6    0    0 -0.23807851079E+01 -0.13617657101E+02 -0.23290681147E+01  0.14019032811E+02  0.00000000000E+00 0. -1.
         -5    1    3    3    0  503  0.84555718054E+01 -0.15661019921E+00  0.97737856138E+01  0.13752749054E+02  0.47000000000E+01 0.  1.
         11    1    4    4    0    0 -0.47290509872E+02 -0.93985686752E+01 -0.31233738645E+03  0.31603697314E+03  0.00000000000E+00 0. -1.
        -12    1    4    4    0    0 -0.80463600608E+02  0.40512836564E+00 -0.15432645665E+03  0.17404370248E+03  0.00000000000E+00 0.  1.
</event>
<event>
12    1  0.8344842E-002  0.1752982E+03  0.7818608E-02  0.1172894E+00
         21   -1    0    0  503  502  0.00000000000E+00  0.00000000000E+00  0.37052140923E+03  0.37052140923E+03  0.00000000000E+00 0.  1.
         21   -1    0    0  501  503 -0.00000000000E+00 -0.00000000000E+00 -0.94856163592E+02  0.94856163592E+02  0.00000000000E+00 0.  1.
          6    2    1    2  501    0  0.28803446808E+02  0.53447933725E+01  0.22263265185E+03  0.28223305907E+03  0.17097367224E+03 0.  0.
         24    2    3    3    0    0  0.47914796283E+02  0.62401610520E+02  0.16352650938E+03  0.19775613832E+03  0.78592507756E+02 0.  0.
         -6    2    1    2    0  502 -0.28803446808E+02 -0.53447933725E+01  0.53032593786E+02  0.18314451375E+03  0.17283301637E+03 0.  0.
        -24    2    5    5    0    0  0.16192191834E+02 -0.48383242751E+02  0.69851652584E+02  0.11847700753E+03  0.80959389138E+02 0.  0.
          5    1    3    3  501    0 -0.19111349475E+02 -0.57056817148E+02  0.59106142476E+02  0.84476920754E+02  0.47000000000E+01 0. -1.
        -13    1    4    4    0    0 -0.16119941494E+01  0.18772768546E+02  0.11319458192E+03  0.11475203153E+03  0.00000000000E+00 0.  1.
         14    1    4    4    0    0  0.49526790432E+02  0.43628841974E+02  0.50331927458E+02  0.83004106791E+02  0.00000000000E+00 0. -1.
         -5    1    5    5    0  502 -0.44995638642E+02  0.43038449378E+02 -0.16819058798E+02  0.64667506218E+02  0.47000000000E+01 0.  1.
         11    1    6    6    0    0  0.45700509005E+02 -0.38599272849E+02  0.62535347069E+02  0.86539644214E+02  0.00000000000E+00 0. -1.
        -12    1    6    6    0    0 -0.29508317171E+02 -0.97839699017E+01  0.73163055151E+01  0.31937363318E+02  0.00000000000E+00 0.  1.
</event>
<event>
12    1  0.8344842E-002  0.2247715E+03  0.7818608E-02  0.1130668E+00
         21   -1    0    0  503  502  0.00000000000E+00  0.00000000000E+00  0.10735618840E+04  0.10735618840E+04  0.00000000000E+00 0.  1.
         21   -1    0    0  501  503 -0.00000000000E+00 -0.00000000000E+00 -0.93830096409E+02  0.93830096409E+02  0.00000000000E+00 0.  1.
          6    2    1    2  501    0 -0.14078374570E+03 -0.18563697365E+02  0.77169355575E+02  0.23764964375E+03  0.17423423837E+03 0.  0.
         24    2    3    3    0    0 -0.74582618451E+02 -0.17277503304E+02 -0.26407080564E+02  0.11462764707E+03  0.81123883491E+02 0.  0.
         -6    2    1    2    0  502  0.14078374570E+03  0.18563697365E+02  0.90256243203E+03  0.92974233667E+03  0.17215456711E+03 0.  0.
        -24    2    5    5    0    0 -0.42937812700E+01  0.26814676922E+02  0.29213664572E+03  0.30224150154E+03  0.72585411941E+02 0.  0.
          5    1    3    3  501    0 -0.66201127253E+02 -0.12861940616E+01  0.10357643614E+03  0.12302199668E+03  0.47000000000E+01 0. -1.
        -11    1    4    4    0    0 -0.88990782399E+02 -0.62715481137E+01 -0.33309820188E+02  0.95227284896E+02  0.00000000000E+00 0.  1.
         12    1    4    4    0    0  0.14408163948E+02 -0.11005955190E+02  0.69027396245E+01  0.19400362170E+02  0.00000000000E+00 0. -1.
         -5    1    5    5    0  502  0.14507752697E+03 -0.82509795566E+01  0.61042578631E+03  0.62750083513E+03  0.47000000000E+01 0.  1.
         13    1    6    6    0    0  0.14002468855E+01  0.39297255606E+02  0.28308883543E+03  0.28580679442E+03  0.00000000000E+00 0. -1.
        -14    1    6    6    0    0 -0.56940281555E+01 -0.12482578684E+02  0.90478102857E+01  0.16434707123E+02  0.00000000000E+00 0.  1.
</event>
<event>
12    1  0.8344842E-002  0.2106813E+03  0.7818608E-02  0.1141116E+00
         21   -1    0    0  501  502  0.00000000000E+00  0.00000000000E+00  0.25559951899E+02  0.25559951899E+02  0.00000000000E+00 0. -1.
         21   -1    0    0  502  503 -0.00000000000E+00 -0.00000000000E+00 -0.17960852920E+04  0.17960852920E+04  0.00000000000E+00 0.  1.
         -6    2    1    2    0  503  0.11752442963E+03  0.33050036205E+02 -0.71346460276E+03  0.74379367538E+03  0.17115196667E+03 0.  0.
        -24    2    3    3    0    0  0.10737404878E+03  0.67618084625E+02 -0.38913669561E+03  0.41743702759E+03  0.82005563304E+02 0.  0.
          6    2    1    2  501    0 -0.11752442963E+03 -0.33050036205E+02 -0.10570607373E+04  0.10778515685E+04  0.17170412013E+03 0.  0.
         24    2    5    5    0    0 -0.13530046271E+03 -0.40842791275E+02 -0.10360558343E+04  0.10488686367E+04  0.82093705709E+02 0.  0.
          5    1    5    5  501    0  0.17776033085E+02  0.77927550694E+01 -0.21004903084E+02  0.28982931829E+02  0.47000000000E+01 0. -1.
        -11    1    6    6    0    0 -0.29164050903E+02  0.10882171210E+02 -0.44781428834E+03  0.44889486559E+03  0.00000000000E+00 0.  1.
         12    1    6    6    0    0 -0.10613641181E+03 -0.51724962485E+02 -0.58824154591E+03  0.59997377109E+03  0.00000000000E+00 0. -1.
         -5    1    3    3    0  503  0.10150380848E+02 -0.34568048419E+02 -0.32432790715E+03  0.32635664779E+03  0.47000000000E+01 0.  1.
         11    1    4    4    0    0 -0.76355913086E+01  0.28310510234E+02 -0.84904218738E+02  0.89824905254E+02  0.00000000000E+00 0. -1.
        -12    1    4    4    0    0  0.11500964009E+03  0.39307574391E+02 -0.30423247688E+03  0.32761212234E+03  0.00000000000E+00 0.  1.
</event>
<event>
12    1  0.8344842E-002  0.1944942E+03  0.7818608E-02  0.1155316E+00
         21   -1    0    0  501  502  0.00000000000E+00  0.00000000000E+00  0.15040056730E+04  0.15040056730E+04  0.00000000000E+00 0. -1.
         21   -1    0    0  502  503 -0.00000000000E+00 -0.00000000000E+00 -0.38674748196E+02  0.38674748196E+02  0.00000000000E+00 0. -1.
         -6    2    1    2    0  503  0.59123611274E+02 -0.58111296478E+02  0.26367900613E+03  0.32539025755E+03  0.17169646836E+03 0.  0.
        -24    2    3    3    0    0  0.73631596780E+01 -0.68805641336E+02  0.77635283460E+02  0.13192741847E+03  0.81173727926E+02 0.  0.
          6    2    1    2  501    0 -0.59123611274E+02  0.58111296478E+02  0.12016519187E+04  0.12172901636E+04  0.17594170815E+03 0.  0.
         24    2    5    5    0    0 -0.66103912677E+02  0.88305048184E+02  0.11396409036E+04  0.11478074806E+04  0.80703869846E+02 0.  0.
          5    1    5    5  501    0  0.69803014032E+01 -0.30193751706E+02  0.62011015082E+02  0.69482683031E+02  0.47000000000E+01 0. -1.
        -11    1    6    6    0    0 -0.36510888717E+01  0.61610322140E+02  0.36367695644E+03  0.36887679635E+03  0.00000000000E+00 0.  1.
         12    1    6    6    0    0 -0.62452823806E+02  0.26694726043E+02  0.77596394716E+03  0.77893068426E+03  0.00000000000E+00 0. -1.
         -5    1    3    3    0  503  0.51760451596E+02  0.10694344858E+02  0.18604372267E+03  0.19346283908E+03  0.47000000000E+01 0.  1.
         13    1    4    4    0    0  0.44372559329E+02 -0.34590635701E+02  0.41316448009E+02  0.69803187432E+02  0.00000000000E+00 0. -1.
        -14    1    4    4    0    0 -0.37009399651E+02 -0.34215005635E+02  0.36318835450E+02  0.62124231034E+02  0.00000000000E+00 0.  1.
</event>
<event>
12    1  0.8344842E-002  0.1781791E+03  0.7818608E-02  0.1169734E+00
         21   -1    0    0  501  502  0.00000000000E+00  0.00000000000E+00  0.26283957288E+03  0.26283957288E+03  0.00000000000E+00 0.  1.
         21   -1    0    0  502  503 -0.00000000000E+00 -0.00000000000E+00 -0.28954567447E+03  0.28954567447E+03  0.00000000000E+00 0.  1.
         -6    2    1    2    0  503 -0.14196783930E+02 -0.43079494847E+02 -0.22446818118E+03  0.28619427234E+03  0.17165024210E+03 0.  0.
        -24    2    3    3    0    0 -0.66538582955E+02 -0.19670688849E+02 -0.19357151953E+03  0.22089243604E+03  0.80679713104E+02 0.  0.
          6    2    1    2  501    0  0.14196783930E+02  0.43079494847E+02  0.19776207959E+03  0.26619097501E+03  0.17230903488E+03 0.  0.
         24    2    5    5    0    0  0.50141333352E+02 -0.23171941365E+02  0.14178357076E+03  0.17218593852E+03  0.80587370668E+02 0.  0.
          5    1    5    5  501    0 -0.35944549422E+02  0.66251436212E+02  0.55978508831E+02  0.94005036484E+02  0.47000000000E+01 0. -1.
        -13    1    6    6    0    0  0.17540525249E+02  0.27584885189E+02  0.26532782309E+02  0.42102071849E+02  0.00000000000E+00 0.  1.
         14    1    6    6    0    0  0.32600808103E+02 -0.50756826554E+02  0.11525078845E+03  0.13008386667E+03  0.00000000000E+00 0. -1.
         -5    1    3    3    0  503  0.52341799025E+02 -0.23408805998E+02 -0.30896661644E+02  0.65301836301E+02  0.47000000000E+01 0.  1.
         11    1    4    4    0    0 -0.90363889561E+01  0.26586960008E+02 -0.85772258476E+02  0.90251886916E+02  0.00000000000E+00 0. -1.
        -12    1    4    4    0    0 -0.57502193999E+02 -0.46257648857E+02 -0.10779926105E+03  0.13064054913E+03  0.00000000000E+00 0.  1.
</event>
<event>
12    1  0.8344842E-002  0.1811152E+03  0.7818608E-02  0.1166843E+00
         21   -1    0    0  503  502  0.00000000000E+00  0.00000000000E+00  0.67620424751E+02  0.67620424751E+02  0.00000000000E+00 0. -1.
         21   -1    0    0  501  503 -0.00000000000E+00 -0.00000000000E+00 -0.75240670149E+03  0.75240670149E+03  0.00000000000E+00 0. -1.
          6    2    1    2  501    0 -0.52852678391E+02  0.15575007227E+02 -0.58765784432E+03  0.61493451015E+03  0.17253035476E+03 0.  0.
         24    2    3    3    0    0  0.33207874619E+02  0.15619145036E+02 -0.24904635171E+03  0.26552607627E+03  0.84458813948E+02 0.  0.
         -6    2    1    2    0  502  0.52852678391E+02 -0.15575007227E+02 -0.97128432415E+02  0.20509261609E+03  0.17202634196E+03 0.  0.
        -24    2    5    5    0    0 -0.30350141126E+02 -0.10912241906E+01 -0.15465781730E+02  0.87519797534E+02  0.80611430451E+02 0.  0.
          5    1    3    3  501    0 -0.86060553010E+02 -0.44137809280E-01 -0.33861149261E+03  0.34940843388E+03  0.47000000000E+01 0. -1.
        -13    1    4    4    0    0 -0.23369285822E+02  0.36415793501E+01 -0.26191883910E+02  0.35290216814E+02  0.00000000000E+00 0.  1.
         14    1    4    4    0    0  0.56577160441E+02  0.11977565686E+02 -0.22285446780E+03  0.23023585946E+03  0.00000000000E+00 0. -1.
         -5    1    5    5    0  502  0.83202819517E+02 -0.14483783036E+02 -0.81662650685E+02  0.11757281856E+03  0.47000000000E+01 0.  1.
         13    1    6    6    0    0  0.27859130707E+02 -0.10845908353E-01 -0.65882843957E+01  0.28627552684E+02  0.00000000000E+00 0. -1.
        -14    1    6    6    0    0 -0.58209271833E+02 -0.10803782823E+01 -0.88774973347E+01  0.58892244851E+02  0.00000000000E+00 0.  1.
</event>
<event>
12    1  0.8344842E-002  0.1836617E+03  0.7818608E-02  0.1164622E+00
         21   -1    0    0  501  502  0.00000000000E+00  0.00000000000E+00  0.78887553084E+02  0.78887553084E+02  0.00000000000E+00 0.  1.
         21   -1    0    0  502  503 -0.00000000000E+00 -0.00000000000E+00 -0.70570845187E+03  0.70570845187E+03  0.00000000000E+00 0.  1.
         -6    2    1    2    0  503  0.62160777381E+02  0.20641491652E+01 -0.65077741623E+02  0.19359092629E+03  0.17138877247E+03 0.  0.
        -24    2    3    3    0    0  0.44632260962E+02 -0.48254165268E+02 -0.87162660621E+02  0.13572024889E+03  0.80635930997E+02 0.  0.
          6    2    1    2  501    0 -0.62160777381E+02 -0.20641491652E+01 -0.56174315716E+03  0.59100507866E+03  0.17281031634E+03 0.  0.
         24    2    5    5    0    0  0.14148861528E+02  0.19242936666E+02 -0.13986850284E+03  0.16172956474E+03  0.77606527626E+02 0.  0.
          5    1    5    5  501    0 -0.76309638909E+02 -0.21307085831E+02 -0.42187465432E+03  0.42927551392E+03  0.47000000000E+01 0. -1.
        -11    1    6    6    0    0  0.50818582456E+01  0.18538876330E+02 -0.14817263259E+03  0.14941433756E+03  0.00000000000E+00 0.  1.
         12    1    6    6    0    0  0.90670032828E+01  0.70406033595E+00  0.83041297544E+01  0.12315227179E+02  0.00000000000E+00 0. -1.
         -5    1    3    3    0  503  0.17528516419E+02  0.50318314433E+02  0.22084918999E+02  0.57870677397E+02  0.47000000000E+01 0.  1.
         11    1    4    4    0    0  0.12136312843E+02 -0.52600075175E+02 -0.14334557819E+02  0.55852820391E+02  0.00000000000E+00 0. -1.
        -12    1    4    4    0    0  0.32495948119E+02  0.43459099072E+01 -0.72828102803E+02  0.79867428498E+02  0.00000000000E+00 0.  1.
</event>
<event>
12    1  0.8344842E-002  0.2255595E+03  0.7818608E-02  0.1130285E+00
         21   -1    0    0  503  502  0.00000000000E+00  0.00000000000E+00  0.23698431788E+03  0.23698431788E+03  0.00000000000E+00 0.  1.
         21   -1    0    0  501  503 -0.00000000000E+00 -0.00000000000E+00 -0.24016140027E+03  0.24016140027E+03  0.00000000000E+00 0.  1.
          6    2    1    2  501    0 -0.14587023257E+03 -0.12873054314E+02  0.79840514542E+02  0.23927305358E+03  0.17156120228E+03 0.  0.
         24    2    3    3    0    0 -0.40838645754E+02  0.34371136884E+01 -0.22014008933E+02  0.91983916973E+02  0.79352477308E+02 0.  0.
         -6    2    1    2    0  502  0.14587023257E+03  0.12873054314E+02 -0.83017596937E+02  0.23787266457E+03  0.16807035095E+03 0.  0.
        -24    2    5    5    0    0  0.49845974227E+01  0.18368134007E+02 -0.30366085328E+02  0.87296339181E+02  0.79600987041E+02 0.  0.
          5    1    3    3  501    0 -0.10503158682E+03 -0.16310168003E+02  0.10185452348E+03  0.14728913661E+03  0.47000000000E+01 0. -1.
        -13    1    4    4    0    0 -0.53687067481E+02 -0.21257866804E+02 -0.21437592513E+01  0.57782296766E+02  0.00000000000E+00 0.  1.
         14    1    4    4    0    0  0.12848421727E+02  0.24694980493E+02 -0.19870249682E+02  0.34201620207E+02  0.00000000000E+00 0. -1.
         -5    1    5    5    0  502  0.14088563515E+03 -0.54950796924E+01 -0.52651511609E+02  0.15057632539E+03  0.47000000000E+01 0.  1.
         13    1    6    6    0    0 -0.12627834951E+02 -0.27870610085E+02 -0.20534124312E+02  0.36849469241E+02  0.00000000000E+00 0. -1.
        -14    1    6    6    0    0  0.17612432373E+02  0.46238744092E+02 -0.98319610163E+01  0.50446869940E+02  0.00000000000E+00 0.  1.
</event>
<event>
12    1  0.8344842E-002  0.2178283E+03  0.7818608E-02  0.1135775E+00
         21   -1    0    0  503  502  0.00000000000E+00  0.00000000000E+00  0.73310445349E+03  0.73310445349E+03  0.00000000000E+00 0.  1.
         21   -1    0    0  501  503 -0.00000000000E+00 -0.00000000000E+00 -0.11571866452E+03  0.11571866452E+03  0.00000000000E+00 0.  1.
          6    2    1    2  501    0 -0.56475537294E+02  0.11886542569E+03  0.26366287047E+02  0.21941821685E+03  0.17358196063E+03 0.  0.
         24    2    3    3    0    0 -0.77240691861E+02  0.76744661464E+02  0.81980990777E+02  0.14647690007E+03  0.53653814984E+02 0.  0.
         -6    2    1    2    0  502  0.56475537294E+02 -0.11886542569E+03  0.59101950192E+03  0.62940490116E+03  0.17183713864E+03 0.  0.
        -24    2    5    5    0    0 -0.52718650353E+01 -0.37899132483E+02  0.42537010627E+03  0.43490530062E+03  0.82089928705E+02 0.  0.
          5    1    3    3  501    0  0.20765154566E+02  0.42120764228E+02 -0.55614703730E+02  0.72941316785E+02  0.47000000000E+01 0. -1.
        -13    1    4    4    0    0 -0.49489744237E+02  0.61750060582E+02  0.27974663315E+02  0.83933822468E+02  0.00000000000E+00 0.  1.
         14    1    4    4    0    0 -0.27750947623E+02  0.14994600882E+02  0.54006327462E+02  0.62543077599E+02  0.00000000000E+00 0. -1.
         -5    1    5    5    0  502  0.61747402329E+02 -0.80966293209E+02  0.16564939564E+03  0.19449960053E+03  0.47000000000E+01 0.  1.
         11    1    6    6    0    0  0.31148361983E+01  0.25721909809E+02  0.10287561414E+03  0.10608822193E+03  0.00000000000E+00 0. -1.
        -12    1    6    6    0    0 -0.83867012336E+01 -0.63621042292E+02  0.32249449214E+03  0.32881707869E+03  0.00000000000E+00 0.  1.
</event>
<event>
12    1  0.8344842E-002  0.2760036E+03  0.7818608E-02  0.1098046E+00
         21   -1    0    0  501  502  0.00000000000E+00  0.00000000000E+00  0.15587375262E+04  0.15587375262E+04  0.00000000000E+00 0.  1.
         21   -1    0    0  502  503 -0.00000000000E+00 -0.00000000000E+00 -0.51123694561E+02  0.51123694561E+02  0.00000000000E+00 0. -1.
         -6    2    1    2    0  503  0.76384290780E+02  0.20101080903E+03  0.92849273382E+03  0.96833237869E+03  0.17125692290E+03 0.  0.
        -24    2    3    3    0    0  0.11672507504E+03  0.15770327806E+03  0.66292621233E+03  0.69621000099E+03  0.82110507362E+02 0.  0.
          6    2    1    2  501    0 -0.76384290780E+02 -0.20101080903E+03  0.57912109783E+03  0.64152884208E+03  0.17302631027E+03 0.  0.
         24    2    5    5    0    0 -0.68836480521E+02 -0.34800408811E+02  0.20727225192E+03  0.23412668108E+03  0.76837405442E+02 0.  0.
          5    1    5    5  501    0 -0.75478102583E+01 -0.16621040022E+03  0.37184884592E+03  0.40740216101E+03  0.47000000000E+01 0. -1.
        -11    1    6    6    0    0 -0.78453579999E+02 -0.48057702448E+02  0.18330120670E+03  0.20509470826E+03  0.00000000000E+00 0.  1.
         12    1    6    6    0    0  0.96170994779E+01  0.13257293637E+02  0.23971045213E+02  0.29031972815E+02  0.00000000000E+00 0. -1.
         -5    1    3    3    0  503 -0.40340784264E+02  0.43307530970E+02  0.26556652148E+03  0.27212237770E+03  0.47000000000E+01 0.  1.
         11    1    4    4    0    0  0.61935120653E+02  0.13417111527E+03  0.53560012078E+03  0.55561257790E+03  0.00000000000E+00 0. -1.
        -12    1    4    4    0    0  0.54789954390E+02  0.23532162792E+02  0.12732609155E+03  0.14059742308E+03  0.00000000000E+00 0.  1.
</event>
<event>
12    1  0.8344842E-002  0.1908764E+03  0.7818608E-02  0.1157972E+00
         21   -1    0    0  501  502  0.00000000000E+00  0.00000000000E+00  0.40903510717E+03  0.40903510717E+03  0.00000000000E+00 0.  1.
         21   -1    0    0  502  503 -0.00000000000E+00 -0.00000000000E+00 -0.10122854193E+03  0.10122854193E+03  0.00000000000E+00 0.  1.
         -6    2    1    2    0  503 -0.56642952038E+02  0.57898374471E+02  0.62801162199E+02  0.19968122850E+03  0.17137082967E+03 0.  0.
        -24    2    3    3    0    0  0.27368250286E+02  0.50588170784E+02  0.55488364508E+02  0.11490571197E+03  0.82560159276E+02 0.  0.
          6    2    1    2  501    0  0.56642952038E+02 -0.57898374471E+02  0.24500540304E+03  0.31058242060E+03  0.17283849885E+03 0.  0.
         24    2    5    5    0    0  0.95960710108E+01  0.20084668509E+02  0.18957215190E+03  0.20385988625E+03  0.71594510659E+02 0.  0.
          5    1    5    5  501    0  0.47046881027E+02 -0.77983042980E+02  0.55433251139E+02  0.10672253435E+03  0.47000000000E+01 0. -1.
        -13    1    6    6    0    0  0.38346643275E+02  0.17870790721E+01  0.73954118932E+02  0.83323888586E+02  0.00000000000E+00 0.  1.
         14    1    6    6    0    0 -0.28750572264E+02  0.18297589437E+02  0.11561803297E+03  0.12053599766E+03  0.00000000000E+00 0. -1.
         -5    1    3    3    0  503 -0.84011202323E+02  0.73102036865E+01  0.73127976916E+01  0.84775516535E+02  0.47000000000E+01 0.  1.
         13    1    4    4    0    0 -0.89952971482E+01  0.42126821127E+01  0.55083814954E+02  0.55972213921E+02  0.00000000000E+00 0. -1.
        -14    1    4    4    0    0  0.36363547434E+02  0.46375488671E+02  0.40454955401E+00  0.58933498045E+02  0.00000000000E+00 0.  1.
</event>
<event>
12    1  0.8344842E-002  0.1884209E+03  0.7818608E-02  0.1160106E+00
         21   -1    0    0  503  502  0.00000000000E+00  0.00000000000E+00  0.15455168122E+03  0.15455168122E+03  0.00000000000E+00 0.  1.
         21   -1    0    0  501  503 -0.00000000000E+00 -0.00000000000E+00 -0.87676768519E+03  0.87676768519E+03  0.00000000000E+00 0.  1.
          6    2    1    2  501    0  0.48925173208E+02 -0.61537006389E+02 -0.80424963127E+03  0.82581521270E+03  0.17021404293E+03 0.  0.
         24    2    3    3    0    0  0.19267235707E+02 -0.79282911077E+02 -0.76435441888E+03  0.77282249281E+03  0.79749115200E+02 0.  0.
         -6    2    1    2    0  502 -0.48925173208E+02  0.61537006389E+02  0.82033627295E+02  0.20550415371E+03  0.17123657745E+03 0.  0.
        -24    2    5    5    0    0 -0.10768179486E+02  0.95026857462E+02  0.18655001370E+02  0.12416248838E+03  0.76956202581E+02 0.  0.
          5    1    3    3  501    0  0.29657937501E+02  0.17745904688E+02 -0.39895212388E+02  0.52992719892E+02  0.47000000000E+01 0. -1.
        -13    1    4    4    0    0  0.26429932461E+02 -0.48912691404E+02 -0.19936205488E+03  0.20696913208E+03  0.00000000000E+00 0.  1.
         14    1    4    4    0    0 -0.71626967538E+01 -0.30370219673E+02 -0.56499236400E+03  0.56585336073E+03  0.00000000000E+00 0. -1.
         -5    1    5    5    0  502 -0.38156993722E+02 -0.33489851073E+02  0.63378625926E+02  0.81341665332E+02  0.47000000000E+01 0.  1.
         11    1    6    6    0    0 -0.25202696892E+02  0.40562368728E+02 -0.24044510845E+02  0.53466065773E+02  0.00000000000E+00 0. -1.
        -12    1    6    6    0    0  0.14434517406E+02  0.54464488734E+02  0.42699512215E+02  0.70696422605E+02  0.00000000000E+00 0.  1.
</event>
<event>
12    1  0.8344842E-002  0.2518045E+03  0.7818608E-02  0.1112197E+00
         21   -1    0    0  501  502  0.00000000000E+00  0.00000000000E+00  0.29432240593E+03  0.29432240593E+03  0.00000000000E+00 0.  1.
         21   -1    0    0  502  503 -0.00000000000E+00 -0.00000000000E+00 -0.29672211653E+03  0.29672211653E+03  0.00000000000E+00 0.  1.
         -6    2    1    2    0  503  0.39940396617E+02  0.17860698599E+03 -0.15602519873E+03  0.29622516720E+03  0.17294448912E+03 0.  0.
        -24    2    3    3    0    0  0.58401894232E+02  0.17118991758E+03 -0.17839958081E+03  0.26591769665E+03  0.78543248153E+02 0.  0.
          6    2    1    2  501    0 -0.39940396617E+02 -0.17860698599E+03  0.15362548813E+03  0.29481935525E+03  0.17269039029E+03 0.  0.
         24    2    5    5    0    0 -0.82880825120E+02 -0.12539021169E+03  0.62071027098E+02  0.18045058852E+03  0.78215510821E+02 0.  0.
          5    1    5    5  501    0  0.42940428503E+02 -0.53216774301E+02  0.91554461036E+02  0.11436876673E+03  0.47000000000E+01 0. -1.
        -13    1    6    6    0    0 -0.69794547198E+02 -0.88386302120E+02  0.79143608745E+02  0.13764856711E+03  0.00000000000E+00 0.  1.
         14    1    6    6    0    0 -0.13086277922E+02 -0.37003909570E+02 -0.17072581647E+02  0.42802021417E+02  0.00000000000E+00 0. -1.
         -5    1    3    3    0  503 -0.18461497615E+02  0.74170684093E+01  0.22374382072E+02  0.30307470549E+02  0.47000000000E+01 0.  1.
         13    1    4    4    0    0 -0.10271232595E+02 -0.98019651600E+00 -0.30509230511E+01  0.10759513730E+02  0.00000000000E+00 0. -1.
        -14    1    4    4    0    0  0.68673126827E+02  0.17217011410E+03 -0.17534865775E+03  0.25515818292E+03  0.00000000000E+00 0.  1.
</event>
<event>
12    1  0.8344842E-002  0.2369710E+03  0.7818608E-02  0.1121952E+00
         21   -1    0    0  503  502  0.00000000000E+00  0.00000000000E+00  0.11395777640E+03  0.11395777640E+03  0.00000000000E+00 0.  1.
         21   -1    0    0  501  503 -0.00000000000E+00 -0.00000000000E+00 -0.87469732174E+03  0.87469732174E+03  0.00000000000E+00 0. -1.
          6    2    1    2  501    0 -0.33304427283E+02 -0.16017530342E+03 -0.53404859427E+02  0.24291426091E+03  0.17143496272E+03 0.  0.
         24    2    3    3    0    0 -0.34659683601E+02 -0.17193411421E+03 -0.84022811462E+02  0.20975320939E+03  0.78574440548E+02 0.  0.
         -6    2    1    2    0  502  0.33304427283E+02  0.16017530342E+03 -0.70733468591E+03  0.74574083724E+03  0.17041633058E+03 0.  0.
        -24    2    5    5    0    0  0.35963444386E+02  0.18530283003E+03 -0.59461314098E+03  0.63012639325E+03  0.88679061220E+02 0.  0.
          5    1    3    3  501    0  0.13552563185E+01  0.11758810794E+02  0.30617952035E+02  0.33161051518E+02  0.47000000000E+01 0. -1.
        -13    1    4    4    0    0 -0.20430009376E+02 -0.94832537991E+00 -0.11647392017E+02  0.23536064772E+02  0.00000000000E+00 0.  1.
         14    1    4    4    0    0 -0.14229674225E+02 -0.17098578883E+03 -0.72375419444E+02  0.18621714462E+03  0.00000000000E+00 0. -1.
         -5    1    5    5    0  502 -0.26590171031E+01 -0.25127526616E+02 -0.11272154493E+03  0.11561444399E+03  0.47000000000E+01 0.  1.
         11    1    6    6    0    0  0.17659925446E+02  0.12470309051E+03 -0.50461045643E+03  0.52009080600E+03  0.00000000000E+00 0. -1.
        -12    1    6    6    0    0  0.18303518940E+02  0.60599739521E+02 -0.90002684551E+02  0.11003558725E+03  0.00000000000E+00 0.  1.
</event>
<event>
12    1  0.8344842E-002  0.2672343E+03  0.7818608E-02  0.1103325E+00
         21   -1    0    0  501  502  0.00000000000E+00  0.00000000000E+00  0.19040946947E+03  0.19040946947E+03  0.00000000000E+00 0.  1.
         21   -1    0    0  502  503 -0.00000000000E+00 -0.00000000000E+00 -0.43986714422E+03  0.43986714422E+03  0.00000000000E+00 0.  1.
         -6    2    1    2    0  503 -0.19092756993E+03  0.69361064072E+02 -0.25028879286E+03  0.36614019961E+03  0.17363718430E+03 0.  0.
        -24    2    3    3    0    0 -0.30037629903E+02  0.57989329729E+02 -0.78648391912E+02  0.13056132454E+03  0.81213720160E+02 0.  0.
          6    2    1    2  501    0  0.19092756993E+03 -0.69361064072E+02  0.83111811382E+00  0.26413641408E+03  0.16882849380E+03 0.  0.
         24    2    5    5    0    0  0.13497298406E+03  0.90141411333E+00 -0.44822077611E+02  0.16326998854E+03  0.80184484443E+02 0.  0.
          5    1    5    5  501    0  0.55954585870E+02 -0.70262478185E+02  0.45653195725E+02  0.10086642554E+03  0.47000000000E+01 0. -1.
        -13    1    6    6    0    0  0.73481233888E+02  0.15819227214E+02  0.14482650753E+02  0.76547285099E+02  0.00000000000E+00 0.  1.
         14    1    6    6    0    0  0.61491750168E+02 -0.14917813100E+02 -0.59304728363E+02  0.86722703444E+02  0.00000000000E+00 0. -1.
         -5    1    3    3    0  503 -0.16088994002E+03  0.11371734342E+02 -0.17164040095E+03  0.23557887507E+03  0.47000000000E+01 0.  1.
         13    1    4    4    0    0 -0.67507082582E+01  0.14605918065E+02 -0.79703856844E+02  0.81311805418E+02  0.00000000000E+00 0. -1.
        -14    1    4    4    0    0 -0.23286921645E+02  0.43383411664E+02  0.10554649326E+01  0.49249519120E+02  0.00000000000E+00 0.  1.
</event>
<event>
12    1  0.8344842E-002  0.1817316E+03  0.7818608E-02  0.1166847E+00
         21   -1    0    0  501  502  0.00000000000E+00  0.00000000000E+00  0.29084423161E+03  0.29084423161E+03  0.00000000000E+00 0. -1.
         21   -1    0    0  502  503 -0.00000000000E+00 -0.00000000000E+00 -0.12733126985E+03  0.12733126985E+03  0.00000000000E+00 0. -1.
         -6    2    1    2    0  503 -0.50098077686E+02 -0.11558131687E+02  0.91357292208E+01  0.18196109689E+03  0.17430711815E+03 0.  0.
        -24    2    3    3    0    0  0.19224393519E+02 -0.52258598058E+02 -0.14469178254E+02  0.98047959461E+02  0.79394627387E+02 0.  0.
          6    2    1    2  501    0  0.50098077686E+02  0.11558131687E+02  0.15437723254E+03  0.23621440457E+03  0.17123523937E+03 0.  0.
         24    2    5    5    0    0  0.88033255403E+01  0.65906466957E+02  0.74075453462E+02  0.13071813058E+03  0.84728365561E+02 0.  0.
          5    1    5    5  501    0  0.41294752146E+02 -0.54348335270E+02  0.80301779082E+02  0.10549627399E+03  0.47000000000E+01 0. -1.
        -13    1    6    6    0    0  0.62492211538E+01 -0.40074892963E+01 -0.15425151304E+02  0.17118645631E+02  0.00000000000E+00 0.  1.
         14    1    6    6    0    0  0.25541043865E+01  0.69913956253E+02  0.89500604766E+02  0.11359948495E+03  0.00000000000E+00 0. -1.
         -5    1    3    3    0  503 -0.69322471205E+02  0.40700466371E+02  0.23604907474E+02  0.83913137432E+02  0.47000000000E+01 0.  1.
         13    1    4    4    0    0 -0.23936452813E+02 -0.24181875005E+02  0.16654756439E+02  0.37882684225E+02  0.00000000000E+00 0. -1.
        -14    1    4    4    0    0  0.43160846332E+02 -0.28076723053E+02 -0.31123934693E+02  0.60165275236E+02  0.00000000000E+00 0.  1.
</event>
<event>
12    1  0.8344842E-002  0.2258035E+03  0.7818608E-02  0.1129654E+00
         21   -1    0    0  503  502  0.00000000000E+00  0.00000000000E+00  0.13121568110E+03  0.13121568110E+03  0.00000000000E+00 0. -1.
         21   -1    0    0  501  503 -0.00000000000E+00 -0.00000000000E+00 -0.43523551208E+03  0.43523551208E+03  0.00000000000E+00 0. -1.
          6    2    1    2  501    0  0.74785066883E+02 -0.12505606857E+03 -0.24494094675E+03  0.33304700820E+03  0.17231487389E+03 0.  0.
         24    2    3    3    0    0  0.34989143150E+02 -0.10255356941E+03 -0.25330432065E+03  0.28633390472E+03  0.77990713494E+02 0.  0.
         -6    2    1    2    0  502 -0.74785066883E+02  0.12505606857E+03 -0.59078884231E+02  0.23340418497E+03  0.17249745646E+03 0.  0.
        -24    2    5    5    0    0 -0.11237409669E+03  0.12608183396E+03 -0.56787390854E+02  0.19543935521E+03  0.80294254732E+02 0.  0.
          5    1    3    3  501    0  0.39795923733E+02 -0.22502499161E+02  0.83633739048E+01  0.46713103486E+02  0.47000000000E+01 0. -1.
        -13    1    4    4    0    0 -0.18750650181E+02 -0.29728168870E+02 -0.33203790561E+02  0.48351242116E+02  0.00000000000E+00 0.  1.
         14    1    4    4    0    0  0.53739793332E+02 -0.72825400538E+02 -0.22010053009E+03  0.23798266260E+03  0.00000000000E+00 0. -1.
         -5    1    5    5    0  502  0.37589029811E+02 -0.10257653898E+01 -0.22914933765E+01  0.37964829759E+02  0.47000000000E+01 0.  1.
         13    1    6    6    0    0 -0.66775819811E+02  0.10728333835E+03 -0.88767910703E+01  0.12667881519E+03  0.00000000000E+00 0. -1.
        -14    1    6    6    0    0 -0.45598276883E+02  0.18798495608E+02 -0.47910599784E+02  0.68760540018E+02  0.00000000000E+00 0.  1.
</event>
<event>
12    1  0.8344842E-002  0.2063690E+03  0.7818608E-02  0.1144564E+00
         21   -1    0    0  503  502  0.00000000000E+00  0.00000000000E+00  0.52732121601E+03  0.52732121601E+03  0.00000000000E+00 0. -1.
         21   -1    0    0  501  503 -0.00000000000E+00 -0.00000000000E+00 -0.96107746957E+02  0.96107746957E+02  0.00000000000E+00 0. -1.
          6    2    1    2  501    0  0.11346596897E+03  0.11684919267E+02  0.34105393666E+03  0.39863007175E+03  0.17197989109E+03 0.  0.
         24    2    3    3    0    0  0.84591466035E+02  0.69568865489E+02  0.18419136625E+03  0.22888837344E+03  0.80423161604E+02 0.  0.
         -6    2    1    2    0  502 -0.11346596897E+03 -0.11684919267E+02  0.90159532391E+02  0.22479889122E+03  0.17144893338E+03 0.  0.
        -24    2    5    5    0    0 -0.15044097123E+03 -0.10814895358E+02  0.43117388135E+02  0.16477422070E+03  0.50418120384E+02 0.  0.
          5    1    3    3  501    0  0.28874502933E+02 -0.57883946222E+02  0.15686257041E+03  0.16974169831E+03  0.47000000000E+01 0. -1.
        -13    1    4    4    0    0 -0.11391312678E+02  0.12195437374E+02  0.45685709461E+01  0.17302096340E+02  0.00000000000E+00 0.  1.
         14    1    4    4    0    0  0.95982778713E+02  0.57373428115E+02  0.17962279530E+03  0.21158627710E+03  0.00000000000E+00 0. -1.
         -5    1    5    5    0  502  0.36975002261E+02 -0.87002390904E+00  0.47042144256E+02  0.60024670511E+02  0.47000000000E+01 0.  1.
         13    1    6    6    0    0 -0.23622084081E+02 -0.20013504487E+02  0.15642652225E+02  0.34687689269E+02  0.00000000000E+00 0. -1.
        -14    1    6    6    0    0 -0.12681888715E+03  0.91986091299E+01  0.27474735910E+02  0.13008653144E+03  0.00000000000E+00 0.  1.
</event>
<event>
12    1  0.8344842E-002  0.3477515E+03  0.7818608E-02  0.1063629E+00
         21   -1    0    0  501  502  0.00000000000E+00  0.00000000000E+00  0.30180338862E+03  0.30180338862E+03  0.00000000000E+00 0.  1.
         21   -1    0    0  502  503 -0.00000000000E+00 -0.00000000000E+00 -0.68062403774E+03  0.68062403774E+03  0.00000000000E+00 0. -1.
         -6    2    1    2    0  503  0.27574371505E+03 -0.12113857344E+03 -0.50484174126E+03  0.61254580492E+03  0.17215698953E+03 0.  0.
        -24    2    3    3    0    0  0.27261664842E+03 -0.70891166136E+02 -0.45557995581E+03  0.54195264666E+03  0.82548050618E+02 0.  0.
          6    2    1    2  501    0 -0.27574371505E+03  0.12113857344E+03  0.12602109214E+03  0.36988162145E+03  0.17384460836E+03 0.  0.
         24    2    5    5    0    0 -0.13170993897E+03  0.12322794798E+03  0.29730168577E+02  0.19654920643E+03  0.72215458423E+02 0.  0.
          5    1    5    5  501    0 -0.14403377607E+03 -0.20893745382E+01  0.96290923560E+02  0.17333241502E+03  0.47000000000E+01 0. -1.
        -13    1    6    6    0    0 -0.55695451598E+02  0.96375110197E+02  0.32259585857E+02  0.11589144090E+03  0.00000000000E+00 0.  1.
         14    1    6    6    0    0 -0.76014487376E+02  0.26852837785E+02 -0.25294172798E+01  0.80657765527E+02  0.00000000000E+00 0. -1.
         -5    1    3    3    0  503  0.31270666296E+01 -0.50247407307E+02 -0.49261785453E+02  0.70593158257E+02  0.47000000000E+01 0.  1.
         11    1    4    4    0    0  0.89689783580E+02 -0.16608354299E+02 -0.22419040902E+03  0.24203601841E+03  0.00000000000E+00 0. -1.
        -12    1    4    4    0    0  0.18292686484E+03 -0.54282811837E+02 -0.23138954679E+03  0.29991662825E+03  0.00000000000E+00 0.  1.
</event>
<event>
12    1  0.8344842E-002  0.1942871E+03  0.7818608E-02  0.1155304E+00
         21   -1    0    0  503  502  0.00000000000E+00  0.00000000000E+00  0.84749427910E+03  0.84749427910E+03  0.00000000000E+00 0. -1.
         21   -1    0    0  501  503 -0.00000000000E+00 -0.00000000000E+00 -0.79822299160E+02  0.79822299160E+02  0.00000000000E+00 0. -1.
          6    2    1    2  501    0  0.89402967562E+02  0.55455885516E+01  0.74263362189E+02  0.20799648667E+03  0.17240605368E+03 0.  0.
         24    2    3    3    0    0  0.50930916055E+02 -0.63322485890E+02  0.55955724261E+02  0.12687823946E+03  0.79770603242E+02 0.  0.
         -6    2    1    2    0  502 -0.89402967562E+02 -0.55455885516E+01  0.69340861775E+03  0.71932009158E+03  0.16906282509E+03 0.  0.
        -24    2    5    5    0    0 -0.11354493749E+03 -0.10355771123E+01  0.36892422483E+03  0.39387365027E+03  0.78344390115E+02 0.  0.
          5    1    3    3  501    0  0.38472051507E+02  0.68868074442E+02  0.18307637928E+02  0.81118247213E+02  0.47000000000E+01 0. -1.
        -11    1    4    4    0    0  0.19935556837E+02 -0.44206319399E+01  0.56752363000E+02  0.60314170136E+02  0.00000000000E+00 0.  1.
         12    1    4    4    0    0  0.30995359218E+02 -0.58901853950E+02 -0.79663873873E+00  0.66564069325E+02  0.00000000000E+00 0. -1.
         -5    1    5    5    0  502  0.24141969925E+02 -0.45100114394E+01  0.32448439292E+03  0.32544644132E+03  0.47000000000E+01 0.  1.
         13    1    6    6    0    0 -0.45740836850E+02  0.16750073047E+02  0.25871285696E+03  0.26325867784E+03  0.00000000000E+00 0. -1.
        -14    1    6    6    0    0 -0.67804100637E+02 -0.17785650159E+02  0.11021136787E+03  0.13061497243E+03  0.00000000000E+00 0.  1.
</event>
<event>
12    1  0.8344842E-002  0.1966549E+03  0.7818608E-02  0.1152972E+00
         21   -1    0    0  503  502  0.00000000000E+00  0.00000000000E+00  0.14273443228E+04  0.14273443228E+04  0.00000000000E+00 0. -1.
         21   -1    0    0  501  503 -0.00000000000E+00 -0.00000000000E+00 -0.35339041142E+02  0.35339041142E+02  0.00000000000E+00 0. -1.
          6    2    1    2  501    0  0.43878086396E+02 -0.83303178687E+02  0.10567419398E+04  0.10748844911E+04  0.17265119681E+03 0.  0.
         24    2    3    3    0    0 -0.28168612832E+01 -0.66920437237E+02  0.25199279958E+03  0.26860161202E+03  0.64499421027E+02 0.  0.
         -6    2    1    2    0  502 -0.43878086396E+02  0.83303178687E+02  0.33526334181E+03  0.38779887283E+03  0.17065096355E+03 0.  0.
        -24    2    5    5    0    0  0.31419810407E+02  0.58374727510E+01  0.15587046521E+03  0.17833621975E+03  0.80541447566E+02 0.  0.
          5    1    3    3  501    0  0.46694947679E+02 -0.16382741449E+02  0.80474914027E+03  0.80628287909E+03  0.47000000000E+01 0. -1.
        -13    1    4    4    0    0  0.27928758480E+01 -0.73167410976E+02  0.24922935049E+03  0.25976246713E+03  0.00000000000E+00 0.  1.
         14    1    4    4    0    0 -0.56097371312E+01  0.62469737387E+01  0.27634490948E+01  0.88391448948E+01  0.00000000000E+00 0. -1.
         -5    1    5    5    0  502 -0.75297896802E+02  0.77465705935E+02  0.17939287660E+03  0.20946265308E+03  0.47000000000E+01 0.  1.
         13    1    6    6    0    0  0.28816457820E+02 -0.28619385975E+02  0.38414982146E+02  0.55903205169E+02  0.00000000000E+00 0. -1.
        -14    1    6    6    0    0  0.26033525871E+01  0.34456858726E+02  0.11745548306E+03  0.12243301458E+03  0.00000000000E+00 0.  1.
</event>
<event>
12    1  0.8344842E-002  0.2472245E+03  0.7818608E-02  0.1115382E+00
         21   -1    0    0  501  502  0.00000000000E+00  0.00000000000E+00  0.76123995622E+03  0.76123995622E+03  0.00000000000E+00 0.  1.
         21   -1    0    0  502  503 -0.00000000000E+00 -0.00000000000E+00 -0.11067627994E+03  0.11067627994E+03  0.00000000000E+00 0.  1.
         -6    2    1    2    0  503  0.15958512323E+03 -0.68927291322E+02  0.95432213862E+02  0.26500424150E+03  0.17578838849E+03 0.  0.
        -24    2    3    3    0    0  0.18765283017E+03 -0.61927995880E+02  0.99507959097E+02  0.23541559488E+03  0.80436353986E+02 0.  0.
          6    2    1    2  501    0 -0.15958512323E+03  0.68927291322E+02  0.55513146242E+03  0.60691199465E+03  0.17306890432E+03 0.  0.
         24    2    5    5    0    0 -0.18743114592E+03  0.53691806142E+02  0.44319326427E+03  0.49046556408E+03  0.78249316583E+02 0.  0.
          5    1    5    5  501    0  0.27846022693E+02  0.15235485180E+02  0.11193819815E+03  0.11644643058E+03  0.47000000000E+01 0. -1.
        -11    1    6    6    0    0 -0.66536378791E+02  0.55738049177E+02  0.14972645027E+03  0.17306596933E+03  0.00000000000E+00 0.  1.
         12    1    6    6    0    0 -0.12089476713E+03 -0.20462430351E+01  0.29346681400E+03  0.31739959475E+03  0.00000000000E+00 0. -1.
         -5    1    3    3    0  503 -0.28067706946E+02 -0.69992954415E+01 -0.40757452349E+01  0.29588646625E+02  0.47000000000E+01 0.  1.
         13    1    4    4    0    0  0.58032340561E+02  0.14013519075E+02  0.47995353406E+02  0.76600817335E+02  0.00000000000E+00 0. -1.
        -14    1    4    4    0    0  0.12962048961E+03 -0.75941514955E+02  0.51512605690E+02  0.15881477754E+03  0.00000000000E+00 0.  1.
</event>
<event>
12    1  0.8344842E-002  0.1729302E+03  0.7818608E-02  0.1175649E+00
         21   -1    0    0  503  502  0.00000000000E+00  0.00000000000E+00  0.86309105997E+03  0.86309105997E+03  0.00000000000E+00 0.  1.
         21   -1    0    0  501  503 -0.00000000000E+00 -0.00000000000E+00 -0.13227600950E+03  0.13227600950E+03  0.00000000000E+00 0.  1.
          6    2    1    2  501    0 -0.11669813691E+02 -0.13033724363E+02 -0.62666238487E+02  0.18393451050E+03  0.17204297191E+03 0.  0.
         24    2    3    3    0    0  0.57077369113E+02 -0.24912984000E+02 -0.54327313510E+02  0.11351491363E+03  0.77818351226E+02 0.  0.
         -6    2    1    2    0  502  0.11669813691E+02  0.13033724363E+02  0.79348128896E+03  0.81143255898E+03  0.16883180778E+03 0.  0.
        -24    2    5    5    0    0 -0.54057160712E+01 -0.79506136054E+01  0.17806586576E+03  0.19540484104E+03  0.79894714028E+02 0.  0.
          5    1    3    3  501    0 -0.68747182804E+02  0.11879259637E+02 -0.83389249777E+01  0.70419596867E+02  0.47000000000E+01 0. -1.
        -13    1    4    4    0    0  0.31425062924E+02 -0.49495735394E+02 -0.51216895148E+02  0.77849423573E+02  0.00000000000E+00 0.  1.
         14    1    4    4    0    0  0.25652306189E+02  0.24582751395E+02 -0.31104183616E+01  0.35665490062E+02  0.00000000000E+00 0. -1.
         -5    1    5    5    0  502  0.17075529762E+02  0.20984337968E+02  0.61541542320E+03  0.61602771794E+03  0.47000000000E+01 0.  1.
         11    1    6    6    0    0  0.15531586081E+01  0.22183506299E+02  0.97673999597E+01  0.24288317260E+02  0.00000000000E+00 0. -1.
        -12    1    6    6    0    0 -0.69588746793E+01 -0.30134119904E+02  0.16829846580E+03  0.17111652378E+03  0.00000000000E+00 0.  1.
</event>
<event>
12    1  0.8344842E-002  0.2980221E+03  0.7818608E-02  0.1086383E+00
         21   -1    0    0  503  502  0.00000000000E+00  0.00000000000E+00  0.19710033306E+03  0.19710033306E+03  0.00000000000E+00 0. -1.
         21   -1    0    0  501  503 -0.00000000000E+00 -0.00000000000E+00 -0.56188767985E+03  0.56188767985E+03  0.00000000000E+00 0.  1.
          6    2    1    2  501    0 -0.58157344706E+02 -0.23468708367E+03 -0.12456417319E+02  0.29828231016E+03  0.17423223078E+03 0.  0.
         24    2    3    3    0    0  0.97269720056E+00 -0.17523142468E+03 -0.60163133099E+02  0.20169370850E+03  0.79710420446E+02 0.  0.
         -6    2    1    2    0  502  0.58157344706E+02  0.23468708367E+03 -0.35233092947E+03  0.46070570275E+03  0.17219859668E+03 0.  0.
        -24    2    5    5    0    0  0.55808225931E+02  0.25655338832E+03 -0.32755146501E+03  0.42724280543E+03  0.79449691119E+02 0.  0.
          5    1    3    3  501    0 -0.59130041906E+02 -0.59455658986E+02  0.47706715780E+02  0.96588601666E+02  0.47000000000E+01 0. -1.
        -13    1    4    4    0    0  0.10507181703E+02 -0.10524476929E+02  0.14348752408E+02  0.20665240808E+02  0.00000000000E+00 0.  1.
         14    1    4    4    0    0 -0.95344845026E+01 -0.16470694775E+03 -0.74511885507E+02  0.18102846769E+03  0.00000000000E+00 0. -1.
         -5    1    5    5    0  502  0.23491187749E+01 -0.21866304653E+02 -0.24779464457E+02  0.33462897319E+02  0.47000000000E+01 0.  1.
         13    1    6    6    0    0  0.46825251061E+02  0.16673304422E+03 -0.15459345056E+03  0.23214574545E+03  0.00000000000E+00 0. -1.
        -14    1    6    6    0    0  0.89829748699E+01  0.89820344101E+02 -0.17295801445E+03  0.19509705998E+03  0.00000000000E+00 0.  1.
</event>
<event>
12    1  0.8344842E-002  0.2247507E+03  0.7818608E-02  0.1130796E+00
         21   -1    0    0  503  502  0.00000000000E+00  0.00000000000E+00  0.39172894265E+03  0.39172894265E+03  0.00000000000E+00 0. -1.
         21   -1    0    0  501  503 -0.00000000000E+00 -0.00000000000E+00 -0.16717691684E+03  0.16717691684E+03  0.00000000000E+00 0. -1.
          6    2    1    2  501    0  0.86304376484E+02  0.11483284778E+03  0.24769060846E+03  0.33296719908E+03  0.16994554956E+03 0.  0.
         24    2    3    3    0    0  0.10010873323E+03  0.81054087071E+02  0.10272767544E+03  0.18340815759E+03  0.80585690238E+02 0.  0.
         -6    2    1    2    0  502 -0.86304376484E+02 -0.11483284778E+03 -0.23138582647E+02  0.22593866041E+03  0.17285212158E+03 0.  0.
        -24    2    5    5    0    0 -0.11038033075E+03 -0.94932988709E+02 -0.60343968612E+02  0.17713305920E+03  0.80861834952E+02 0.  0.
          5    1    3    3  501    0 -0.13804356746E+02  0.33778760709E+02  0.14496293302E+03  0.14955904148E+03  0.47000000000E+01 0. -1.
        -13    1    4    4    0    0 -0.10061585327E+02 -0.39579934181E+01  0.65948776328E+00  0.10832180542E+02  0.00000000000E+00 0.  1.
         14    1    4    4    0    0  0.11017031856E+03  0.85012080490E+02  0.10206818767E+03  0.17257597705E+03  0.00000000000E+00 0. -1.
         -5    1    5    5    0  502  0.24075954269E+02 -0.19899859072E+02  0.37205385965E+02  0.48805601213E+02  0.47000000000E+01 0.  1.
         13    1    6    6    0    0 -0.79320387991E+02 -0.77159253438E+02 -0.44289624227E+01  0.11074696407E+03  0.00000000000E+00 0. -1.
        -14    1    6    6    0    0 -0.31059942761E+02 -0.17773735271E+02 -0.55915006189E+02  0.66386095132E+02  0.00000000000E+00 0.  1.
</event>
<event>
12    1  0.8344842E-002  0.2718606E+03  0.7818608E-02  0.1100485E+00
         21   -1    0    0  503  502  0.00000000000E+00  0.00000000000E+00  0.11038099788E+04  0.11038099788E+04  0.00000000000E+00 0. -1.
         21   -1    0    0  501  503 -0.00000000000E+00 -0.00000000000E+00 -0.87277755388E+02  0.87277755388E+02  0.00000000000E+00 0.  1.
          6    2    1    2  501    0 -0.73919124615E+02  0.19473300733E+03  0.21634559272E+03  0.34598015772E+03  0.17179020030E+03 0.  0.
         24    2    3    3    0    0 -0.90380344038E+02  0.75958315439E+02  0.75907965738E+02  0.16125545377E+03  0.79391623204E+02 0.  0.
         -6    2    1    2    0  502  0.73919124615E+02 -0.19473300733E+03  0.80018663073E+03  0.84510757651E+03  0.17470887424E+03 0.  0.
        -24    2    5    5    0    0  0.11655100808E+03 -0.11696997086E+03  0.53901637484E+03  0.56925152729E+03  0.79009729818E+02 0.  0.
          5    1    3    3  501    0  0.16461219422E+02  0.11877469189E+03  0.14043762698E+03  0.18472470395E+03  0.47000000000E+01 0. -1.
        -11    1    4    4    0    0 -0.78904402135E+02  0.74700192340E+02  0.28317780730E+02  0.11228499507E+03  0.00000000000E+00 0.  1.
         12    1    4    4    0    0 -0.11475941903E+02  0.12581230995E+01  0.47590185008E+02  0.48970458701E+02  0.00000000000E+00 0. -1.
         -5    1    5    5    0  502 -0.42631883464E+02 -0.77763036466E+02  0.26117025589E+03  0.27585604922E+03  0.47000000000E+01 0.  1.
         11    1    6    6    0    0  0.70745777172E+01 -0.53951250696E+02  0.20654065127E+03  0.21358798591E+03  0.00000000000E+00 0. -1.
        -12    1    6    6    0    0  0.10947643036E+03 -0.63018720165E+02  0.33247572357E+03  0.35566354137E+03  0.00000000000E+00 0.  1.
</event>
<event>
12    1  0.8344842E-002  0.3315221E+03  0.7818608E-02  0.1070622E+00
         21   -1    0    0  501  502  0.00000000000E+00  0.00000000000E+00  0.21212565426E+03  0.21212565426E+03  0.00000000000E+00 0.  1.
         21   -1    0    0  502  503 -0.00000000000E+00 -0.00000000000E+00 -0.62308095706E+03  0.62308095706E+03  0.00000000000E+00 0. -1.
         -6    2    1    2    0  503 -0.20112136408E+03 -0.19646877566E+03 -0.37831470783E+03  0.50208153464E+03  0.17295683385E+03 0.  0.
        -24    2    3    3    0    0 -0.16190456356E+03 -0.19924662946E+03 -0.37637902416E+03  0.46243924932E+03  0.79224885140E+02 0.  0.
          6    2    1    2  501    0  0.20112136408E+03  0.19646877566E+03 -0.32640594980E+02  0.33312507668E+03  0.17566196337E+03 0.  0.
         24    2    5    5    0    0  0.10792186353E+03  0.11928505232E+03  0.50530477916E+02  0.18621356788E+03  0.79032343567E+02 0.  0.
          5    1    5    5  501    0  0.93199500549E+02  0.77183723333E+02 -0.83171072895E+02  0.14691150880E+03  0.47000000000E+01 0. -1.
        -11    1    6    6    0    0  0.94577925090E+02  0.13087451287E+03  0.47194157189E+02  0.16822725851E+03  0.00000000000E+00 0.  1.
         12    1    6    6    0    0  0.13343938441E+02 -0.11589460546E+02  0.33363207269E+01  0.17986309373E+02  0.00000000000E+00 0. -1.
         -5    1    3    3    0  503 -0.39216800516E+02  0.27778538038E+01 -0.19356836617E+01  0.39642285324E+02  0.47000000000E+01 0.  1.
         11    1    4    4    0    0 -0.91485687528E+02 -0.77505049941E+02 -0.11780151123E+03  0.16808884507E+03  0.00000000000E+00 0. -1.
        -12    1    4    4    0    0 -0.70418876036E+02 -0.12174157952E+03 -0.25857751294E+03  0.29435040425E+03  0.00000000000E+00 0.  1.
</event>
<event>
12    1  0.8344842E-002  0.2098588E+03  0.7818608E-02  0.1141764E+00
         21   -1    0    0  501  502  0.00000000000E+00  0.00000000000E+00  0.27373020225E+03  0.27373020225E+03  0.00000000000E+00 0.  1.
         21   -1    0    0  502  503 -0.00000000000E+00 -0.00000000000E+00 -0.73223970696E+03  0.73223970696E+03  0.00000000000E+00 0.  1.
         -6    2    1    2    0  503  0.12019160620E+03  0.89100737881E+01 -0.67363471984E+03  0.70543773061E+03  0.17126950803E+03 0.  0.
        -24    2    3    3    0    0  0.65017589017E+02 -0.62005400033E+01 -0.61569667773E+03  0.62388155645E+03  0.76681574886E+02 0.  0.
          6    2    1    2  501    0 -0.12019160620E+03 -0.89100737881E+01  0.21512521513E+03  0.30053217860E+03  0.17180023451E+03 0.  0.
         24    2    5    5    0    0 -0.15108005473E+03 -0.23338256110E+02  0.19472648940E+03  0.26052634516E+03  0.81152410418E+02 0.  0.
          5    1    5    5  501    0  0.30888448530E+02  0.14428182321E+02  0.20398725729E+02  0.40005833438E+02  0.47000000000E+01 0. -1.
        -13    1    6    6    0    0 -0.14380270532E+03  0.78878643286E+00  0.14205809527E+03  0.20213941395E+03  0.00000000000E+00 0.  1.
         14    1    6    6    0    0 -0.72773494068E+01 -0.24127042542E+02  0.52668394128E+02  0.58386931211E+02  0.00000000000E+00 0. -1.
         -5    1    3    3    0  503  0.55174017180E+02  0.15110613791E+02 -0.57938042107E+02  0.81556174163E+02  0.47000000000E+01 0.  1.
         11    1    4    4    0    0 -0.91329890867E+01 -0.21551795368E+02 -0.10322102550E+03  0.10584172844E+03  0.00000000000E+00 0. -1.
        -12    1    4    4    0    0  0.74150578104E+02  0.15351255365E+02 -0.51247565223E+03  0.51803982801E+03  0.00000000000E+00 0.  1.
</event>
<event>
12    1  0.8344842E-002  0.1730081E+03  0.7818608E-02  0.1174878E+00
         21   -1    0    0  503  502  0.00000000000E+00  0.00000000000E+00  0.81418407015E+03  0.81418407015E+03  0.00000000000E+00 0. -1.
         21   -1    0    0  501  503 -0.00000000000E+00 -0.00000000000E+00 -0.15171422807E+03  0.15171422807E+03  0.00000000000E+00 0. -1.
          6    2    1    2  501    0  0.14514120484E+02  0.61307431625E+01 -0.89465671660E+02  0.19431628110E+03  0.17177445966E+03 0.  0.
         24    2    3    3    0    0  0.69098056129E+02 -0.14242381691E+02 -0.27774497368E+02  0.10933180468E+03  0.78769499261E+02 0.  0.
         -6    2    1    2    0  502 -0.14514120484E+02 -0.61307431625E+01  0.75193551374E+03  0.77158201711E+03  0.17228913662E+03 0.  0.
        -24    2    5    5    0    0  0.27633527311E+02  0.49807721929E+02  0.34955031132E+03  0.36311968443E+03  0.80162734991E+02 0.  0.
          5    1    3    3  501    0 -0.54583935646E+02  0.20373124854E+02 -0.61691174292E+02  0.84984476420E+02  0.47000000000E+01 0. -1.
        -13    1    4    4    0    0 -0.80415424396E+01 -0.24381213501E+02  0.26115191157E+01  0.25805619712E+02  0.00000000000E+00 0.  1.
         14    1    4    4    0    0  0.77139598569E+02  0.10138831810E+02 -0.30386016483E+02  0.83526184970E+02  0.00000000000E+00 0. -1.
         -5    1    5    5    0  502 -0.42147647794E+02 -0.55938465092E+02  0.40238520242E+03  0.40846233268E+03  0.47000000000E+01 0.  1.
         11    1    6    6    0    0  0.46087552443E+02  0.28008203504E+02  0.11711146915E+03  0.12893261093E+03  0.00000000000E+00 0. -1.
        -12    1    6    6    0    0 -0.18454025133E+02  0.21799518425E+02  0.23243884217E+03  0.23418707350E+03  0.00000000000E+00 0.  1.
</event>
<event>
12    1  0.8344842E-002  0.1731728E+03  0.7818608E-02  0.1175206E+00
         21   -1    0    0  503  502  0.00000000000E+00  0.00000000000E+00  0.30201070823E+02  0.30201070823E+02  0.00000000000E+00 0. -1.
         21   -1    0    0  501  503 -0.00000000000E+00 -0.00000000000E+00 -0.97942467992E+03  0.97942467992E+03  0.00000000000E+00 0. -1.
          6    2    1    2  501    0 -0.21200248003E+02  0.16577903786E+01 -0.48844109308E+03  0.51823113974E+03  0.17186219480E+03 0.  0.
         24    2    3    3    0    0  0.31985532157E+02  0.50697477663E+02 -0.27015112317E+03  0.28821762034E+03  0.80588205206E+02 0.  0.
         -6    2    1    2    0  502  0.21200248003E+02 -0.16577903786E+01 -0.46078251602E+03  0.49139461100E+03  0.16939875405E+03 0.  0.
        -24    2    5    5    0    0  0.20360110449E+02  0.53478891612E+02 -0.17870687544E+03  0.20394110774E+03  0.79883052968E+02 0.  0.
          5    1    3    3  501    0 -0.53185780161E+02 -0.49039687284E+02 -0.21828996991E+03  0.23001351940E+03  0.47000000000E+01 0. -1.
        -11    1    4    4    0    0 -0.10651562549E+02  0.43654690232E+01 -0.72762031077E+00  0.11534406610E+02  0.00000000000E+00 0.  1.
         12    1    4    4    0    0  0.42637094706E+02  0.46332008640E+02 -0.26942350286E+03  0.27668321373E+03  0.00000000000E+00 0. -1.
         -5    1    5    5    0  502  0.84013755451E+00 -0.55136681991E+02 -0.28207564057E+03  0.28745350326E+03  0.47000000000E+01 0.  1.
         13    1    6    6    0    0  0.26783254134E+02 -0.14066810854E+02 -0.60613377371E+02  0.67743629855E+02  0.00000000000E+00 0. -1.
        -14    1    6    6    0    0 -0.64231436848E+01  0.67545702466E+02 -0.11809349807E+03  0.13619747789E+03  0.00000000000E+00 0.  1.
</event>
<event>
12    1  0.8344842E-002  0.2325730E+03  0.7818608E-02  0.1126523E+00
         21   -1    0    0  503  502  0.00000000000E+00  0.00000000000E+00  0.15116042011E+03  0.15116042011E+03  0.00000000000E+00 0.  1.
         21   -1    0    0  501  503 -0.00000000000E+00 -0.00000000000E+00 -0.47190532954E+03  0.47190532954E+03  0.00000000000E+00 0.  1.
          6    2    1    2  501    0 -0.15241323133E+02 -0.14197114004E+03 -0.32048983650E+03  0.39049256426E+03  0.17141354936E+03 0.  0.
         24    2    3    3    0    0 -0.53527862352E+02 -0.14830447561E+03 -0.21323944018E+03  0.27634043884E+03  0.77675799058E+02 0.  0.
         -6    2    1    2    0  502  0.15241323133E+02  0.14197114004E+03 -0.25507293326E+00  0.23257318539E+03  0.18358136879E+03 0.  0.
        -24    2    5    5    0    0 -0.33425072904E+02  0.71081070483E+02 -0.60864103959E+02  0.12726713282E+03  0.79515595118E+02 0.  0.
          5    1    3    3  501    0  0.38286539219E+02  0.63333355708E+01 -0.10725039633E+03  0.11415212542E+03  0.47000000000E+01 0. -1.
        -13    1    4    4    0    0 -0.83456582305E+01 -0.60936485857E+02 -0.14243438366E+03  0.15514657254E+03  0.00000000000E+00 0.  1.
         14    1    4    4    0    0 -0.45182204121E+02 -0.87367989753E+02 -0.70805056513E+02  0.12119386631E+03  0.00000000000E+00 0. -1.
         -5    1    5    5    0  502  0.48666396037E+02  0.70890069556E+02  0.60609031026E+02  0.10530605256E+03  0.47000000000E+01 0.  1.
         11    1    6    6    0    0 -0.12850626889E+02 -0.13971557023E+02  0.26141785797E+01  0.19161861776E+02  0.00000000000E+00 0. -1.
        -12    1    6    6    0    0 -0.20574446015E+02  0.85052627506E+02 -0.63478282539E+02  0.10810527105E+03  0.00000000000E+00 0.  1.
</event>
<event>
12    1  0.8344842E-002  0.1903854E+03  0.7818608E-02  0.1158351E+00
         21   -1    0    0  501  502  0.00000000000E+00  0.00000000000E+00  0.40772648169E+02  0.40772648169E+02  0.00000000000E+00 0.  1.
         21   -1    0    0  502  503 -0.00000000000E+00 -0.00000000000E+00 -0.14779972334E+04  0.14779972334E+04  0.00000000000E+00 0.  1.
         -6    2    1    2    0  503  0.79873389259E+02  0.92160277788E+01 -0.11987959738E+04  0.12136554984E+04  0.17141525202E+03 0.  0.
        -24    2    3    3    0    0  0.20861583981E+02  0.55213385839E+02 -0.43032954690E+03  0.44154094128E+03  0.79316834471E+02 0.  0.
          6    2    1    2  501    0 -0.79873389259E+02 -0.92160277788E+01 -0.23842861143E+03  0.30511438312E+03  0.17257430446E+03 0.  0.
         24    2    5    5    0    0 -0.94313396485E+02 -0.23393499591E+02 -0.90009670293E+02  0.15524848772E+03  0.80981970922E+02 0.  0.
          5    1    5    5  501    0  0.14440007226E+02  0.14177471812E+02 -0.14841894114E+03  0.14986589540E+03  0.47000000000E+01 0. -1.
        -13    1    6    6    0    0 -0.33711464806E+02 -0.91195524962E+01  0.10980622657E+02  0.36608785435E+02  0.00000000000E+00 0.  1.
         14    1    6    6    0    0 -0.60601931679E+02 -0.14273947094E+02 -0.10099029295E+03  0.11863970229E+03  0.00000000000E+00 0. -1.
         -5    1    3    3    0  503  0.59011805278E+02 -0.45997358060E+02 -0.76846642686E+03  0.77211455713E+03  0.47000000000E+01 0.  1.
         11    1    4    4    0    0 -0.13833485661E+02 -0.10344199012E+02 -0.16926577295E+03  0.17014484909E+03  0.00000000000E+00 0. -1.
        -12    1    4    4    0    0  0.34695069642E+02  0.65557584851E+02 -0.26106377395E+03  0.27139609219E+03  0.00000000000E+00 0.  1.
</event>
<event>
12    1  0.8344842E-002  0.1835674E+03  0.7818608E-02  0.1164501E+00
         21   -1    0    0  503  502  0.00000000000E+00  0.00000000000E+00  0.44188222939E+03  0.44188222939E+03  0.00000000000E+00 0.  1.
         21   -1    0    0  501  503 -0.00000000000E+00 -0.00000000000E+00 -0.12708729937E+03  0.12708729937E+03  0.00000000000E+00 0. -1.
          6    2    1    2  501    0  0.59888414008E+02  0.22773195715E+02 -0.22731384370E+02  0.18496942737E+03  0.17202247717E+03 0.  0.
         24    2    3    3    0    0  0.58346901991E+02 -0.11469290285E+02  0.44464405254E+02  0.10938974591E+03  0.80331361152E+02 0.  0.
         -6    2    1    2    0  502 -0.59888414008E+02 -0.22773195715E+02  0.33752631438E+03  0.38400010138E+03  0.17154248566E+03 0.  0.
        -24    2    5    5    0    0 -0.62123944465E+01 -0.38693433785E+02  0.77183421461E+02  0.11766369578E+03  0.79697484856E+02 0.  0.
          5    1    3    3  501    0  0.15415120169E+01  0.34242486000E+02 -0.67195789624E+02  0.75579681462E+02  0.47000000000E+01 0. -1.
        -13    1    4    4    0    0  0.43797925104E+02 -0.14461113937E+02 -0.14684223479E+02  0.48404632825E+02  0.00000000000E+00 0.  1.
         14    1    4    4    0    0  0.14548976887E+02  0.29918236512E+01  0.59148628733E+02  0.60985113087E+02  0.00000000000E+00 0. -1.
         -5    1    5    5    0  502 -0.53676019561E+02  0.15920238070E+02  0.26034289292E+03  0.26633640561E+03  0.47000000000E+01 0.  1.
         11    1    6    6    0    0 -0.40948922198E+02 -0.90530795479E+01  0.46664278850E+02  0.62740157786E+02  0.00000000000E+00 0. -1.
        -12    1    6    6    0    0  0.34736527752E+02 -0.29640354237E+02  0.30519142611E+02  0.54923537989E+02  0.00000000000E+00 0.  1.
</event>
<event>
12    1  0.8344842E-002  0.2546006E+03  0.7818608E-02  0.1110587E+00
         21   -1    0    0  503  502  0.00000000000E+00  0.00000000000E+00  0.23276796055E+03  0.23276796055E+03  0.00000000000E+00 0. -1.
         21   -1    0    0  501  503 -0.00000000000E+00 -0.00000000000E+00 -0.35160613911E+03  0.35160613911E+03  0.00000000000E+00 0. -1.
          6    2    1    2  501    0 -0.10863916389E+03 -0.15161284780E+03 -0.19357285455E+03  0.31903143254E+03  0.17181874571E+03 0.  0.
         24    2    3    3    0    0 -0.27964890891E+02 -0.61909148114E+02 -0.17273929273E+02  0.10535295183E+03  0.78651624805E+02 0.  0.
         -6    2    1    2    0  502  0.10863916389E+03  0.15161284780E+03  0.74734675998E+02  0.26534266712E+03  0.17329897764E+03 0.  0.
        -24    2    5    5    0    0  0.93289568730E+02  0.17739328430E+03  0.86827768563E+02  0.23265361903E+03  0.80108202473E+02 0.  0.
          5    1    3    3  501    0 -0.80674273000E+02 -0.89703699690E+02 -0.17629892528E+03  0.21367848071E+03  0.47000000000E+01 0. -1.
        -11    1    4    4    0    0 -0.27808475341E+02 -0.25013246979E+02  0.28164487524E+02  0.46821065587E+02  0.00000000000E+00 0.  1.
         12    1    4    4    0    0 -0.15641555046E+00 -0.36895901135E+02 -0.45438416797E+02  0.58531886245E+02  0.00000000000E+00 0. -1.
         -5    1    5    5    0  502  0.15349595161E+02 -0.25780436498E+02 -0.12093092565E+02  0.32689048096E+02  0.47000000000E+01 0.  1.
         13    1    6    6    0    0  0.30695706768E+02  0.58818782270E+02 -0.10228888476E+02  0.67130512594E+02  0.00000000000E+00 0. -1.
        -14    1    6    6    0    0  0.62593861962E+02  0.11857450203E+03  0.97056657040E+02  0.16552310643E+03  0.00000000000E+00 0.  1.
</event>
<event>
12    1  0.8344842E-002  0.2360779E+03  0.7818608E-02  0.1122907E+00
         21   -1    0    0  503  502  0.00000000000E+00  0.00000000000E+00  0.70685191584E+03  0.70685191584E+03  0.00000000000E+00 0. -1.
         21   -1    0    0  501  503 -0.00000000000E+00 -0.00000000000E+00 -0.15773474062E+03  0.15773474062E+03  0.00000000000E+00 0. -1.
          6    2    1    2  501    0  0.72285246949E+02 -0.14766843504E+03 -0.32136447911E+02  0.23825516360E+03  0.16941560750E+03 0.  0.
         24    2    3    3    0    0  0.37189781195E+02 -0.47444738238E+02  0.42296673840E+02  0.10849052770E+03  0.79668707596E+02 0.  0.
         -6    2    1    2    0  502 -0.72285246949E+02  0.14766843504E+03  0.58125362312E+03  0.62633149286E+03  0.16554226326E+03 0.  0.
        -24    2    5    5    0    0 -0.14200114908E+02  0.11069324834E+03  0.20975028558E+03  0.24847190677E+03  0.72721851342E+02 0.  0.
          5    1    3    3  501    0  0.35095465754E+02 -0.10022369680E+03 -0.74433121750E+02  0.12976463590E+03  0.47000000000E+01 0. -1.
        -13    1    4    4    0    0  0.37922721732E+02 -0.66040196558E+02  0.46745192375E+02  0.89356328232E+02  0.00000000000E+00 0.  1.
         14    1    4    4    0    0 -0.73294053674E+00  0.18595458320E+02 -0.44485185349E+01  0.19134199464E+02  0.00000000000E+00 0. -1.
         -5    1    5    5    0  502 -0.58085132041E+02  0.36975186705E+02  0.37150333754E+03  0.37785958609E+03  0.47000000000E+01 0.  1.
         13    1    6    6    0    0 -0.15125924257E+02  0.40205965444E+02  0.15010512322E+03  0.15613091064E+03  0.00000000000E+00 0. -1.
        -14    1    6    6    0    0  0.92580934865E+00  0.70487282893E+02  0.59645162359E+02  0.92340996125E+02  0.00000000000E+00 0.  1.
</event>
<event>
12    1  0.8344842E-002  0.1811097E+03  0.7818608E-02  0.1166960E+00
         21   -1    0    0  503  502  0.00000000000E+00  0.00000000000E+00  0.31528764408E+02  0.31528764408E+02  0.00000000000E+00 0. -1.
         21   -1    0    0  501  503 -0.00000000000E+00 -0.00000000000E+00 -0.10403670086E+04  0.10403670086E+04  0.00000000000E+00 0. -1.
          6    2    1    2  501    0  0.82702443289E+01  0.56917659774E+02 -0.54446044664E+03  0.57379257129E+03  0.17173444608E+03 0.  0.
         24    2    3    3    0    0 -0.23716524957E+02  0.27904085712E+02 -0.12484656988E+03  0.15193615441E+03  0.78465390142E+02 0.  0.
         -6    2    1    2    0  502 -0.82702443289E+01 -0.56917659774E+02 -0.46437779757E+03  0.49810320174E+03  0.17073969595E+03 0.  0.
        -24    2    5    5    0    0 -0.34065354188E+02 -0.82971443537E+02 -0.43351093941E+03  0.44994678707E+03  0.80471534159E+02 0.  0.
          5    1    3    3  501    0  0.31986769286E+02  0.29013574062E+02 -0.41961387676E+03  0.42185641688E+03  0.47000000000E+01 0. -1.
        -13    1    4    4    0    0 -0.37697220429E+02 -0.15438159801E+02 -0.65418569888E+02  0.77064949830E+02  0.00000000000E+00 0.  1.
         14    1    4    4    0    0  0.13980695472E+02  0.43342245514E+02 -0.59427999996E+02  0.74871204582E+02  0.00000000000E+00 0. -1.
         -5    1    5    5    0  502  0.25795109859E+02  0.26053783763E+02 -0.30866858154E+02  0.48156414664E+02  0.47000000000E+01 0.  1.
         11    1    6    6    0    0 -0.60620842097E+02 -0.58194902554E+02 -0.31273281648E+03  0.32382610717E+03  0.00000000000E+00 0. -1.
        -12    1    6    6    0    0  0.26555487908E+02 -0.24776540983E+02 -0.12077812293E+03  0.12612067991E+03  0.00000000000E+00 0.  1.
</event>
<event>
12    1  0.8344842E-002  0.2044572E+03  0.7818608E-02  0.1146093E+00
         21   -1    0    0  503  502  0.00000000000E+00  0.00000000000E+00  0.20459668920E+02  0.20459668920E+02  0.00000000000E+00 0.  1.
         21   -1    0    0  501  503 -0.00000000000E+00 -0.00000000000E+00 -0.21166498391E+04  0.21166498391E+04  0.00000000000E+00 0. -1.
          6    2    1    2  501    0  0.10745313802E+03 -0.29956498652E+02 -0.12519331918E+04  0.12685186083E+04  0.17134519016E+03 0.  0.
         24    2    3    3    0    0  0.34174164897E+02  0.37750361423E+02 -0.81668519022E+03  0.82195736986E+03  0.77757665849E+02 0.  0.
         -6    2    1    2    0  502 -0.10745313802E+03  0.29956498652E+02 -0.84425697843E+03  0.86859089977E+03  0.17098753420E+03 0.  0.
        -24    2    5    5    0    0 -0.32169889449E+02 -0.39626321925E+02 -0.29362146659E+03  0.30847404291E+03  0.79608556906E+02 0.  0.
          5    1    3    3  501    0  0.73278973120E+02 -0.67706860075E+02 -0.43524800155E+03  0.44656123841E+03  0.47000000000E+01 0. -1.
        -13    1    4    4    0    0  0.25816270568E+02  0.10375596169E+02 -0.79706689165E+02  0.84423273566E+02  0.00000000000E+00 0.  1.
         14    1    4    4    0    0  0.83578943290E+01  0.27374765255E+02 -0.73697850106E+03  0.73753409629E+03  0.00000000000E+00 0. -1.
         -5    1    5    5    0  502 -0.75283248567E+02  0.69582820576E+02 -0.55063551184E+03  0.56011685686E+03  0.47000000000E+01 0.  1.
         13    1    6    6    0    0 -0.38152592379E+02  0.76201308493E+01 -0.19638116857E+03  0.20019802714E+03  0.00000000000E+00 0. -1.
        -14    1    6    6    0    0  0.59827029296E+01 -0.47246452774E+02 -0.97240298018E+02  0.10827601578E+03  0.00000000000E+00 0.  1.
</event>
<event>
12    1  0.8344842E-002  0.2349347E+03  0.7818608E-02  0.1123248E+00
         21   -1    0    0  503  502  0.00000000000E+00  0.00000000000E+00  0.21985261840E+03  0.21985261840E+03  0.00000000000E+00 0.  1.
         21   -1    0    0  501  503 -0.00000000000E+00 -0.00000000000E+00 -0.32847210232E+03  0.32847210232E+03  0.00000000000E+00 0. -1.
          6    2    1    2  501    0  0.15734557152E+03  0.30345779110E+02  0.78957219304E+02  0.24784781867E+03  0.17180164013E+03 0.  0.
         24    2    3    3    0    0  0.96657967113E+02 -0.34691443098E+02  0.90146236425E+02  0.15806970494E+03  0.79457088085E+02 0.  0.
         -6    2    1    2    0  502 -0.15734557152E+03 -0.30345779110E+02 -0.18757670323E+03  0.30047690205E+03  0.17153091233E+03 0.  0.
        -24    2    5    5    0    0 -0.12568504163E+03 -0.44012087194E+02 -0.20820812644E+03  0.26001824720E+03  0.80777914366E+02 0.  0.
          5    1    3    3  501    0  0.60687604404E+02  0.65037222208E+02 -0.11189017121E+02  0.89778113730E+02  0.47000000000E+01 0. -1.
        -11    1    4    4    0    0  0.24763391603E+02  0.80781400604E+01  0.66070509304E+02  0.71019674107E+02  0.00000000000E+00 0.  1.
         12    1    4    4    0    0  0.71894575510E+02 -0.42769583158E+02  0.24075727121E+02  0.87050030831E+02  0.00000000000E+00 0. -1.
         -5    1    5    5    0  502 -0.31660529884E+02  0.13666308084E+02  0.20631423209E+02  0.40458654857E+02  0.47000000000E+01 0.  1.
         11    1    6    6    0    0 -0.49282720235E+02  0.17530221624E+02 -0.42286239599E+02  0.67262331534E+02  0.00000000000E+00 0. -1.
        -12    1    6    6    0    0 -0.76402321398E+02 -0.61542308817E+02 -0.16592188684E+03  0.19275591566E+03  0.00000000000E+00 0.  1.
</event>
<event>
12    1  0.8344842E-002  0.2082109E+03  0.7818608E-02  0.1142995E+00
         21   -1    0    0  503  502  0.00000000000E+00  0.00000000000E+00  0.18350337279E+03  0.18350337279E+03  0.00000000000E+00 0. -1.
         21   -1    0    0  501  503 -0.00000000000E+00 -0.00000000000E+00 -0.23719434224E+03  0.23719434224E+03  0.00000000000E+00 0.  1.
          6    2    1    2  501    0 -0.28441442481E+02  0.11485986438E+03 -0.13387083390E+02  0.20864084936E+03  0.17131866776E+03 0.  0.
         24    2    3    3    0    0 -0.34636380913E+02  0.19632382575E+00  0.20311904442E+02  0.88875175745E+02  0.79287489403E+02 0.  0.
         -6    2    1    2    0  502  0.28441442481E+02 -0.11485986438E+03 -0.40303886061E+02  0.21205686567E+03  0.17129508735E+03 0.  0.
        -24    2    5    5    0    0  0.20868940325E+02 -0.43195756819E+01 -0.56650274104E+02  0.99959619423E+02  0.79551873358E+02 0.  0.
          5    1    3    3  501    0  0.61949384321E+01  0.11466354055E+03 -0.33698987833E+02  0.11976567361E+03  0.47000000000E+01 0. -1.
        -11    1    4    4    0    0 -0.66423214290E+01  0.17573279584E+02 -0.25976188178E+02  0.32057806250E+02  0.00000000000E+00 0.  1.
         12    1    4    4    0    0 -0.27994059484E+02 -0.17376955759E+02  0.46288092620E+02  0.56817369495E+02  0.00000000000E+00 0. -1.
         -5    1    5    5    0  502  0.75725021558E+01 -0.11054028870E+03  0.16346388043E+02  0.11209724625E+03  0.47000000000E+01 0.  1.
         11    1    6    6    0    0  0.24086064976E+02 -0.33862676099E+02 -0.70655556140E+01  0.42151410828E+02  0.00000000000E+00 0. -1.
        -12    1    6    6    0    0 -0.32171246509E+01  0.29543100417E+02 -0.49584718490E+02  0.57808208596E+02  0.00000000000E+00 0.  1.
</event>
<event>
12    1  0.8344842E-002  0.1836958E+03  0.7818608E-02  0.1164749E+00
         21   -1    0    0  501  502  0.00000000000E+00  0.00000000000E+00  0.86326351015E+02  0.86326351015E+02  0.00000000000E+00 0. -1.
         21   -1    0    0  502  503 -0.00000000000E+00 -0.00000000000E+00 -0.49845491623E+03  0.49845491623E+03  0.00000000000E+00 0. -1.
         -6    2    1    2    0  503  0.16715660840E+02  0.58515679753E+02 -0.34542690934E+03  0.39123381615E+03  0.17332239068E+03 0.  0.
        -24    2    3    3    0    0  0.46019873087E+02  0.64829994633E+02 -0.34274040682E+03  0.36077212343E+03  0.79779581683E+02 0.  0.
          6    2    1    2  501    0 -0.16715660840E+02 -0.58515679753E+02 -0.66701655872E+02  0.19354745109E+03  0.17119581430E+03 0.  0.
         24    2    5    5    0    0 -0.16273147718E+02 -0.68113677613E+02 -0.10753459138E+03  0.15133683628E+03  0.80217586949E+02 0.  0.
          5    1    5    5  501    0 -0.44251312227E+00  0.95979978594E+01  0.40832935509E+02  0.42210614815E+02  0.47000000000E+01 0. -1.
        -13    1    6    6    0    0 -0.27655612173E+01  0.10241942429E+02 -0.55055277045E+02  0.56068076872E+02  0.00000000000E+00 0.  1.
         14    1    6    6    0    0 -0.13507586501E+02 -0.78355620042E+02 -0.52479314335E+02  0.95268759403E+02  0.00000000000E+00 0. -1.
         -5    1    3    3    0  503 -0.29304212246E+02 -0.63143148797E+01 -0.26865025206E+01  0.30461692723E+02  0.47000000000E+01 0.  1.
         11    1    4    4    0    0 -0.15183579228E+02  0.13108009143E+01 -0.12374455178E+03  0.12467948257E+03  0.00000000000E+00 0. -1.
        -12    1    4    4    0    0  0.61203452315E+02  0.63519193719E+02 -0.21899585504E+03  0.23609264086E+03  0.00000000000E+00 0.  1.
</event>
<event>
12    1  0.8344842E-002  0.1850676E+03  0.7818608E-02  0.1163170E+00
         21   -1    0    0  503  502  0.00000000000E+00  0.00000000000E+00  0.32022660690E+03  0.32022660690E+03  0.00000000000E+00 0.  1.
         21   -1    0    0  501  503 -0.00000000000E+00 -0.00000000000E+00 -0.18442171799E+03  0.18442171799E+03  0.00000000000E+00 0.  1.
          6    2    1    2  501    0  0.64594218941E+02  0.70533522331E+01  0.23183067927E+03  0.29615142645E+03  0.17244721117E+03 0.  0.
         24    2    3    3    0    0  0.77626992678E+02 -0.22224197814E+02  0.74944186884E+02  0.13595626541E+03  0.79671889620E+02 0.  0.
         -6    2    1    2    0  502 -0.64594218941E+02 -0.70533522331E+01 -0.96025790355E+02  0.20849689844E+03  0.17328543316E+03 0.  0.
        -24    2    5    5    0    0 -0.84726198440E+01 -0.65307443631E+02 -0.48864010864E+02  0.11474458383E+03  0.80260703210E+02 0.  0.
          5    1    3    3  501    0 -0.13032773736E+02  0.29277550047E+02  0.15688649238E+03  0.16019516104E+03  0.47000000000E+01 0. -1.
        -11    1    4    4    0    0 -0.16562870047E+02 -0.51691161804E+01  0.15592476870E+02  0.23327532258E+02  0.00000000000E+00 0.  1.
         12    1    4    4    0    0  0.94189862725E+02 -0.17055081634E+02  0.59351710013E+02  0.11262873315E+03  0.00000000000E+00 0. -1.
         -5    1    5    5    0  502 -0.56121599097E+02  0.58254091398E+02 -0.47161779491E+02  0.93752314609E+02  0.47000000000E+01 0.  1.
         11    1    6    6    0    0 -0.34930207956E+02 -0.59830743629E+02 -0.53239146879E+02  0.87374161349E+02  0.00000000000E+00 0. -1.
        -12    1    6    6    0    0  0.26457588112E+02 -0.54767000017E+01  0.43751360146E+01  0.27370422480E+02  0.00000000000E+00 0.  1.
</event>
<event>
12    1  0.8344842E-002  0.2938879E+03  0.7818608E-02  0.1089118E+00
         21   -1    0    0  503  502  0.00000000000E+00  0.00000000000E+00  0.75497488820E+03  0.75497488820E+03  0.00000000000E+00 0.  1.
         21   -1    0    0  501  503 -0.00000000000E+00 -0.00000000000E+00 -0.23986534588E+03  0.23986534588E+03  0.00000000000E+00 0.  1.
          6    2    1    2  501    0  0.92529408030E+02 -0.21385220617E+03 -0.10676145849E+03  0.30702222062E+03  0.16902715018E+03 0.  0.
         24    2    3    3    0    0  0.93914347622E+02 -0.23510113320E+03 -0.94501066158E+02  0.28200538273E+03  0.80648229148E+02 0.  0.
         -6    2    1    2    0  502 -0.92529408030E+02  0.21385220617E+03  0.62187100081E+03  0.68781801346E+03  0.17909667936E+03 0.  0.
        -24    2    5    5    0    0  0.42484176691E+01  0.51897515545E+02  0.28385267584E+03  0.30068270459E+03  0.84417688208E+02 0.  0.
          5    1    3    3  501    0 -0.13849395924E+01  0.21248927029E+02 -0.12260392331E+02  0.25016837883E+02  0.47000000000E+01 0. -1.
        -11    1    4    4    0    0  0.19885466725E+01 -0.11064021596E+03 -0.32667607809E+02  0.11537930623E+03  0.00000000000E+00 0.  1.
         12    1    4    4    0    0  0.91925800949E+02 -0.12446091724E+03 -0.61833458349E+02  0.16662607650E+03  0.00000000000E+00 0. -1.
         -5    1    5    5    0  502 -0.96777825699E+02  0.16195469062E+03  0.33801832497E+03  0.38713530887E+03  0.47000000000E+01 0.  1.
         11    1    6    6    0    0 -0.18380539669E+01  0.48771114655E+02  0.62852414576E+02  0.79576542305E+02  0.00000000000E+00 0. -1.
        -12    1    6    6    0    0  0.60864716360E+01  0.31264008899E+01  0.22100026127E+03  0.22110616228E+03  0.00000000000E+00 0.  1.
</event>
<event>
12    1  0.8344842E-002  0.1835222E+03  0.7818608E-02  0.1167535E+00
         21   -1    0    0  501  502  0.00000000000E+00  0.00000000000E+00  0.26276463125E+04  0.26276463125E+04  0.00000000000E+00 0. -1.
         21   -1    0    0  502  503 -0.00000000000E+00 -0.00000000000E+00 -0.32823783220E+02  0.32823783220E+02  0.00000000000E+00 0. -1.
         -6    2    1    2    0  503 -0.26081266124E+02 -0.49038751109E+01  0.22001386089E+03  0.27858080149E+03  0.16881019977E+03 0.  0.
        -24    2    3    3    0    0  0.56270133934E+01 -0.62945351299E+02  0.15038793277E+03  0.18243462209E+03  0.81682804093E+02 0.  0.
          6    2    1    2  501    0  0.26081266124E+02  0.49038751109E+01  0.23748086684E+04  0.23818892942E+04  0.18159327640E+03 0.  0.
         24    2    5    5    0    0 -0.21294482776E+01 -0.31856820796E+02  0.56009414806E+03  0.56657717961E+03  0.79277072213E+02 0.  0.
          5    1    5    5  501    0  0.28210714402E+02  0.36760695907E+02  0.18147145203E+04  0.18153121146E+04  0.47000000000E+01 0. -1.
        -13    1    6    6    0    0 -0.11415988912E+02 -0.52814393398E+02  0.48660636290E+03  0.48959721952E+03  0.00000000000E+00 0.  1.
         14    1    6    6    0    0  0.92865406340E+01  0.20957572602E+02  0.73487785167E+02  0.76979960088E+02  0.00000000000E+00 0. -1.
         -5    1    3    3    0  503 -0.31708279518E+02  0.58041476188E+02  0.69625928116E+02  0.96146179405E+02  0.47000000000E+01 0.  1.
         13    1    4    4    0    0 -0.24219224254E+02 -0.68118517759E+02  0.11517929304E+03  0.13598887024E+03  0.00000000000E+00 0. -1.
        -14    1    4    4    0    0  0.29846237647E+02  0.51731664595E+01  0.35208639733E+02  0.46445751849E+02  0.00000000000E+00 0.  1.
</event>
<event>
12    1  0.8344842E-002  0.1762413E+03  0.7818608E-02  0.1171674E+00
         21   -1    0    0  503  502  0.00000000000E+00  0.00000000000E+00  0.96842045705E+03  0.96842045705E+03  0.00000000000E+00 0. -1.
         21   -1    0    0  501  503 -0.00000000000E+00 -0.00000000000E+00 -0.74918368311E+02  0.74918368311E+02  0.00000000000E+00 0. -1.
          6    2    1    2  501    0  0.34426739270E+00 -0.33551108806E+02  0.52033188161E+02  0.18376198051E+03  0.17301796840E+03 0.  0.
         24    2    3    3    0    0 -0.57028505899E+02  0.15606787314E+01  0.26212977513E+02  0.11155916881E+03  0.92215192632E+02 0.  0.
         -6    2    1    2    0  502 -0.34426739270E+00  0.33551108806E+02  0.84146890058E+03  0.85957684485E+03  0.17226910967E+03 0.  0.
        -24    2    5    5    0    0 -0.37528822814E+02 -0.23436014435E+02  0.64081638535E+03  0.64764821242E+03  0.82733959206E+02 0.  0.
          5    1    3    3  501    0  0.57372773291E+02 -0.35111787538E+02  0.25820210648E+02  0.72202811698E+02  0.47000000000E+01 0. -1.
        -13    1    4    4    0    0 -0.67487339371E+02 -0.12674660091E+02 -0.11770852867E+02  0.69668794744E+02  0.00000000000E+00 0.  1.
         14    1    4    4    0    0  0.10458833473E+02  0.14235338823E+02  0.37983830380E+02  0.41890374065E+02  0.00000000000E+00 0. -1.
         -5    1    5    5    0  502  0.37184555421E+02  0.56987123241E+02  0.20065251523E+03  0.21192863243E+03  0.47000000000E+01 0.  1.
         13    1    6    6    0    0  0.18406007099E+02 -0.23149569245E+02  0.36624372473E+03  0.36743591218E+03  0.00000000000E+00 0. -1.
        -14    1    6    6    0    0 -0.55934829913E+02 -0.28644518929E+00  0.27457266061E+03  0.28021230024E+03  0.00000000000E+00 0.  1.
</event>
<event>
12    1  0.8344842E-002  0.1916257E+03  0.7818608E-02  0.1157164E+00
         21   -1    0    0  501  502  0.00000000000E+00  0.00000000000E+00  0.29929537562E+03  0.29929537562E+03  0.00000000000E+00 0.  1.
         21   -1    0    0  502  503 -0.00000000000E+00 -0.00000000000E+00 -0.16521959885E+03  0.16521959885E+03  0.00000000000E+00 0.  1.
         -6    2    1    2    0  503  0.28662919238E+02  0.79543156607E+02 -0.51531529990E+02  0.19773700347E+03  0.17116000484E+03 0.  0.
        -24    2    3    3    0    0  0.68998537216E+02  0.88092904652E+02 -0.81497867984E+01  0.13770263072E+03  0.79840074484E+02 0.  0.
          6    2    1    2  501    0 -0.28662919238E+02 -0.79543156607E+02  0.18560730676E+03  0.26677797101E+03  0.17196434743E+03 0.  0.
         24    2    5    5    0    0 -0.71715653921E+02 -0.95347103800E+02  0.16275197007E+03  0.21532159020E+03  0.75106445951E+02 0.  0.
          5    1    5    5  501    0  0.43052734683E+02  0.15803947193E+02  0.22855336692E+02  0.51456380808E+02  0.47000000000E+01 0. -1.
        -11    1    6    6    0    0 -0.31492316648E+02 -0.74006197582E+02  0.52525588872E+02  0.96060505801E+02  0.00000000000E+00 0.  1.
         12    1    6    6    0    0 -0.40223337274E+02 -0.21340906218E+02  0.11022638120E+03  0.11926108440E+03  0.00000000000E+00 0. -1.
         -5    1    3    3    0  503 -0.40335617978E+02 -0.85497480448E+01 -0.43381743192E+02  0.60034372751E+02  0.47000000000E+01 0.  1.
         11    1    4    4    0    0  0.60910259620E+02  0.27735397247E+02 -0.29541776818E+02  0.73157559862E+02  0.00000000000E+00 0. -1.
        -12    1    4    4    0    0  0.80882775953E+01  0.60357507405E+02  0.21391990019E+02  0.64545070855E+02  0.00000000000E+00 0.  1.
</event>
<event>
12    1  0.8344842E-002  0.1891345E+03  0.7818608E-02  0.1159928E+00
         21   -1    0    0  503  502  0.00000000000E+00  0.00000000000E+00  0.42711219194E+03  0.42711219194E+03  0.00000000000E+00 0. -1.
         21   -1    0    0  501  503 -0.00000000000E+00 -0.00000000000E+00 -0.50692631992E+03  0.50692631992E+03  0.00000000000E+00 0. -1.
          6    2    1    2  501    0 -0.63267193004E+02  0.44490911817E+02 -0.46731986493E+03  0.50414257129E+03  0.17259692082E+03 0.  0.
         24    2    3    3    0    0  0.11245913283E+02  0.45307739598E+02 -0.37800332545E+03  0.38772777652E+03  0.72574463804E+02 0.  0.
         -6    2    1    2    0  502  0.63267193004E+02 -0.44490911817E+02  0.38750573695E+03  0.42989594058E+03  0.16931522262E+03 0.  0.
        -24    2    5    5    0    0  0.16280346375E+02 -0.41563118056E+02  0.84676597851E+02  0.12339322734E+03  0.77866680102E+02 0.  0.
          5    1    3    3  501    0 -0.74513106287E+02 -0.81682778135E+00 -0.89316539482E+02  0.11641479477E+03  0.47000000000E+01 0. -1.
        -13    1    4    4    0    0  0.25773434345E+02 -0.10022984654E+02 -0.92302213549E+02  0.96355740698E+02  0.00000000000E+00 0.  1.
         14    1    4    4    0    0 -0.14527521062E+02  0.55330724253E+02 -0.28570111190E+03  0.29137203582E+03  0.00000000000E+00 0. -1.
         -5    1    5    5    0  502  0.46986846629E+02 -0.29277937606E+01  0.30282913910E+03  0.30650271323E+03  0.47000000000E+01 0.  1.
         11    1    6    6    0    0  0.25106749079E+02 -0.19407753886E+01  0.78365515397E+02  0.82312025014E+02  0.00000000000E+00 0. -1.
        -12    1    6    6    0    0 -0.88264027038E+01 -0.39622342668E+02  0.63110824539E+01  0.41081202330E+02  0.00000000000E+00 0.  1.
</event>
<event>
12    1  0.8344842E-002  0.2139927E+03  0.7818608E-02  0.1139020E+00
         21   -1    0    0  503  502  0.00000000000E+00  0.00000000000E+00  0.37191076038E+03  0.37191076038E+03  0.00000000000E+00 0.  1.
         21   -1    0    0  501  503 -0.00000000000E+00 -0.00000000000E+00 -0.19940003321E+03  0.19940003321E+03  0.00000000000E+00 0.  1.
          6    2    1    2  501    0 -0.69742088123E+02 -0.10142441563E+03 -0.92738118577E+02  0.23050319929E+03  0.17140739572E+03 0.  0.
         24    2    3    3    0    0 -0.55691873092E+02 -0.13748973081E+03 -0.57250812958E+02  0.17778172017E+03  0.79521529382E+02 0.  0.
         -6    2    1    2    0  502  0.69742088123E+02  0.10142441563E+03  0.26524884575E+03  0.34080759430E+03  0.17504855104E+03 0.  0.
        -24    2    5    5    0    0  0.88545857984E+02  0.12837215866E+03  0.24707739963E+03  0.30296510404E+03  0.80130099039E+02 0.  0.
          5    1    3    3  501    0 -0.14050215031E+02  0.36065315179E+02 -0.35487305618E+02  0.52721479128E+02  0.47000000000E+01 0. -1.
        -13    1    4    4    0    0 -0.38204772492E+02 -0.56357977125E+02 -0.65373483622E+02  0.94390246252E+02  0.00000000000E+00 0.  1.
         14    1    4    4    0    0 -0.17487100600E+02 -0.81131753682E+02  0.81226706635E+01  0.83391473914E+02  0.00000000000E+00 0. -1.
         -5    1    5    5    0  502 -0.18803769861E+02 -0.26947743030E+02  0.18171446116E+02  0.37842490264E+02  0.47000000000E+01 0.  1.
         11    1    6    6    0    0  0.47701337734E+02  0.38019430604E+02  0.15914891727E+03  0.17043847158E+03  0.00000000000E+00 0. -1.
        -12    1    6    6    0    0  0.40844520249E+02  0.90352728054E+02  0.87928482357E+02  0.13252663246E+03  0.00000000000E+00 0.  1.
</event>
<event>
12    1  0.8344842E-002  0.2255553E+03  0.7818608E-02  0.1129882E+00
         21   -1    0    0  503  502  0.00000000000E+00  0.00000000000E+00  0.44007874159E+02  0.44007874159E+02  0.00000000000E+00 0. -1.
         21   -1    0    0  501  503 -0.00000000000E+00 -0.00000000000E+00 -0.23216396426E+04  0.23216396426E+04  0.00000000000E+00 0. -1.
          6    2    1    2  501    0  0.13919868109E+03 -0.44247259123E+02 -0.19781852658E+04  0.19910027920E+04  0.17187518397E+03 0.  0.
         24    2    3    3    0    0  0.69130759576E+02 -0.11536010378E+02 -0.16627642334E+04  0.16662073839E+04  0.80932124039E+02 0.  0.
         -6    2    1    2    0  502 -0.13919868109E+03  0.44247259123E+02 -0.29944650261E+03  0.37464472480E+03  0.17133700459E+03 0.  0.
        -24    2    5    5    0    0 -0.16832111839E+03  0.37618463197E+02 -0.28041987246E+03  0.33892134388E+03  0.80530893444E+02 0.  0.
          5    1    3    3  501    0  0.70067921510E+02 -0.32711248745E+02 -0.31542103243E+03  0.32479540809E+03  0.47000000000E+01 0. -1.
        -11    1    4    4    0    0 -0.90731446634E+01 -0.22312875462E+02 -0.22696269132E+03  0.22823726606E+03  0.00000000000E+00 0.  1.
         12    1    4    4    0    0  0.78203904240E+02  0.10776865084E+02 -0.14358015421E+04  0.14379701178E+04  0.00000000000E+00 0. -1.
         -5    1    5    5    0  502  0.29122437298E+02  0.66287959262E+01 -0.19026630142E+02  0.35723380918E+02  0.47000000000E+01 0.  1.
         13    1    6    6    0    0 -0.22614964227E+02  0.32946394550E+02 -0.33350260713E+02  0.52049413162E+02  0.00000000000E+00 0. -1.
        -14    1    6    6    0    0 -0.14570615416E+03  0.46720686470E+01 -0.24706961175E+03  0.28687193072E+03  0.00000000000E+00 0.  1.
</event>
<event>
12    1  0.8344842E-002  0.1853710E+03  0.7818608E-02  0.1163246E+00
         21   -1    0    0  501  502  0.00000000000E+00  0.00000000000E+00  0.13865697281E+04  0.13865697281E+04  0.00000000000E+00 0.  1.
         21   -1    0    0  502  503 -0.00000000000E+00 -0.00000000000E+00 -0.28541358430E+02  0.28541358430E+02  0.00000000000E+00 0.  1.
         -6    2    1    2    0  503  0.55527433208E+02 -0.28685293195E+02  0.40825303491E+03  0.44741505589E+03  0.17205682154E+03 0.  0.
        -24    2    3    3    0    0  0.89160013286E+02 -0.65563480905E+01  0.37733494718E+03  0.39643605234E+03  0.82385602878E+02 0.  0.
          6    2    1    2  501    0 -0.55527433208E+02  0.28685293195E+02  0.94977533478E+03  0.96769603067E+03  0.17451727512E+03 0.  0.
         24    2    5    5    0    0 -0.32033194271E+01 -0.21639378112E+02  0.21956178892E+03  0.23386750984E+03  0.77511993013E+02 0.  0.
          5    1    5    5  501    0 -0.52324113780E+02  0.50324671306E+02  0.73021354586E+03  0.73382852083E+03  0.47000000000E+01 0. -1.
        -13    1    6    6    0    0 -0.38490580390E+02 -0.11499969095E+02  0.79495071999E+02  0.89068740533E+02  0.00000000000E+00 0.  1.
         14    1    6    6    0    0  0.35287260963E+02 -0.10139409016E+02  0.14006671693E+03  0.14479876930E+03  0.00000000000E+00 0. -1.
         -5    1    3    3    0  503 -0.33632580078E+02 -0.22128945104E+02  0.30918087732E+02  0.50979003552E+02  0.47000000000E+01 0.  1.
         13    1    4    4    0    0  0.38647024430E+00 -0.29350772589E+02  0.10883906087E+03  0.11272780661E+03  0.00000000000E+00 0. -1.
        -14    1    4    4    0    0  0.88773543042E+02  0.22794424498E+02  0.26849588630E+03  0.28370824573E+03  0.00000000000E+00 0.  1.
</event>
<event>
12    1  0.8344842E-002  0.2029443E+03  0.7818608E-02  0.1147566E+00
         21   -1    0    0  503  502  0.00000000000E+00  0.00000000000E+00  0.11471006010E+03  0.11471006010E+03  0.00000000000E+00 0.  1.
         21   -1    0    0  501  503 -0.00000000000E+00 -0.00000000000E+00 -0.17637688122E+04  0.17637688122E+04  0.00000000000E+00 0. -1.
          6    2    1    2  501    0  0.45577086010E+02  0.96012125940E+02 -0.16628927514E+04  0.16750636050E+04  0.17126055922E+03 0.  0.
         24    2    3    3    0    0  0.44195795356E+02  0.13452386260E+03 -0.13240552399E+04  0.13340093409E+04  0.80054391465E+02 0.  0.
         -6    2    1    2    0  502 -0.45577086010E+02 -0.96012125940E+02  0.13833999288E+02  0.20341526727E+03  0.17288953793E+03 0.  0.
        -24    2    5    5    0    0  0.31024741591E+01 -0.76047472132E+02 -0.49674997188E+02  0.12080915604E+03  0.79588965777E+02 0.  0.
          5    1    3    3  501    0  0.13812906539E+01 -0.38511736661E+02 -0.33883751152E+03  0.34105426407E+03  0.47000000000E+01 0. -1.
        -11    1    4    4    0    0 -0.26424165766E+01  0.10550753095E+03 -0.76508387806E+03  0.77232905029E+03  0.00000000000E+00 0.  1.
         12    1    4    4    0    0  0.46838211933E+02  0.29016331649E+02 -0.55897136180E+03  0.56168029065E+03  0.00000000000E+00 0. -1.
         -5    1    5    5    0  502 -0.48679560169E+02 -0.19964653808E+02  0.63508996476E+02  0.82606111235E+02  0.47000000000E+01 0.  1.
         11    1    6    6    0    0  0.26373613910E+02 -0.77982967430E+02 -0.23244553738E+02  0.85540750513E+02  0.00000000000E+00 0. -1.
        -12    1    6    6    0    0 -0.23271139751E+02  0.19354952981E+01 -0.26430443449E+02  0.35268405525E+02  0.00000000000E+00 0.  1.
</event>
<event>
12    1  0.8344842E-002  0.1887516E+03  0.7818608E-02  0.1159605E+00
         21   -1    0    0  501  502  0.00000000000E+00  0.00000000000E+00  0.21988331024E+03  0.21988331024E+03  0.00000000000E+00 0.  1.
         21   -1    0    0  502  503 -0.00000000000E+00 -0.00000000000E+00 -0.18960666820E+03  0.18960666820E+03  0.00000000000E+00 0. -1.
         -6    2    1    2    0  503  0.36890811002E+00 -0.77353011279E+02 -0.63013615725E+02  0.19899216826E+03  0.17217300258E+03 0.  0.
        -24    2    3    3    0    0 -0.33901303084E+02 -0.32664915253E+02 -0.95596058087E+02  0.13376043632E+03  0.80851425247E+02 0.  0.
          6    2    1    2  501    0 -0.36890811002E+00  0.77353011279E+02  0.93290257760E+02  0.21049781018E+03  0.17211226409E+03 0.  0.
         24    2    5    5    0    0 -0.44566557394E+01  0.28948442879E+02  0.12552112982E+03  0.15201164911E+03  0.80586061505E+02 0.  0.
          5    1    5    5  501    0  0.40877476294E+01  0.48404568399E+02 -0.32230872059E+02  0.58486161067E+02  0.47000000000E+01 0. -1.
        -11    1    6    6    0    0 -0.17496013731E+02  0.10035665420E+02 -0.39204898181E+01  0.20547391983E+02  0.00000000000E+00 0.  1.
         12    1    6    6    0    0  0.13039357991E+02  0.18912777459E+02  0.12944161964E+03  0.13146425713E+03  0.00000000000E+00 0. -1.
         -5    1    3    3    0  503  0.34270211194E+02 -0.44688096026E+02  0.32582442361E+02  0.65231731940E+02  0.47000000000E+01 0.  1.
         13    1    4    4    0    0  0.18313405821E+02  0.83722306714E+01 -0.48006478876E+02  0.52058592886E+02  0.00000000000E+00 0. -1.
        -14    1    4    4    0    0 -0.52214708905E+02 -0.41037145924E+02 -0.47589579211E+02  0.81701843438E+02  0.00000000000E+00 0.  1.
</event>
<event>
12    1  0.8344842E-002  0.1983988E+03  0.7818608E-02  0.1153084E+00
         21   -1    0    0  501  502  0.00000000000E+00  0.00000000000E+00  0.23818934935E+03  0.23818934935E+03  0.00000000000E+00 0.  1.
         21   -1    0    0  502  503 -0.00000000000E+00 -0.00000000000E+00 -0.28339802881E+03  0.28339802881E+03  0.00000000000E+00 0.  1.
         -6    2    1    2    0  503  0.10101223053E+03  0.28778703921E+02 -0.19651029532E+03  0.27924611562E+03  0.16831640564E+03 0.  0.
        -24    2    3    3    0    0  0.36379275934E+02  0.41492274764E+02 -0.41161768027E+02  0.11044354267E+03  0.86362169891E+02 0.  0.
          6    2    1    2  501    0 -0.10101223053E+03 -0.28778703921E+02  0.15130161585E+03  0.24234126254E+03  0.15749737793E+03 0.  0.
         24    2    5    5    0    0 -0.90551186176E+02 -0.72486146811E+02  0.13265657778E+03  0.19345873542E+03  0.79842068390E+02 0.  0.
          5    1    5    5  501    0 -0.10461044356E+02  0.43707442889E+02  0.18645038067E+02  0.48882527118E+02  0.47000000000E+01 0. -1.
        -11    1    6    6    0    0 -0.89167201647E+02 -0.25752153618E+02  0.75688334106E+02  0.11976095852E+03  0.00000000000E+00 0.  1.
         12    1    6    6    0    0 -0.13839845294E+01 -0.46733993193E+02  0.56968243679E+02  0.73697776905E+02  0.00000000000E+00 0. -1.
         -5    1    3    3    0  503  0.64632954599E+02 -0.12713570842E+02 -0.15534852729E+03  0.16880257295E+03  0.47000000000E+01 0.  1.
         11    1    4    4    0    0 -0.82624652377E+01 -0.44815717494E+01  0.19849585498E+02  0.21962669728E+02  0.00000000000E+00 0. -1.
        -12    1    4    4    0    0  0.44641741172E+02  0.45973846513E+02 -0.61011353524E+02  0.88480872944E+02  0.00000000000E+00 0.  1.
</event>
<event>
12    1  0.8344842E-002  0.1931677E+03  0.7818608E-02  0.1156183E+00
         21   -1    0    0  503  502  0.00000000000E+00  0.00000000000E+00  0.15839583684E+03  0.15839583684E+03  0.00000000000E+00 0.  1.
         21   -1    0    0  501  503 -0.00000000000E+00 -0.00000000000E+00 -0.56523997517E+03  0.56523997517E+03  0.00000000000E+00 0. -1.
          6    2    1    2  501    0  0.79026429996E+02  0.26333776993E+02 -0.48045554246E+03  0.51691767495E+03  0.17154506681E+03 0.  0.
         24    2    3    3    0    0  0.33342719040E+02  0.49734193041E+01 -0.93751253630E+02  0.12691054255E+03  0.78616260655E+02 0.  0.
         -6    2    1    2    0  502 -0.79026429996E+02 -0.26333776993E+02  0.73611404117E+02  0.20671813706E+03  0.17428455160E+03 0.  0.
        -24    2    5    5    0    0 -0.81759909447E+02 -0.58350353406E+02  0.10138032815E+03  0.16398950244E+03  0.80778335212E+02 0.  0.
          5    1    3    3  501    0  0.45683710956E+02  0.21360357689E+02 -0.38670428883E+03  0.39000713240E+03  0.47000000000E+01 0. -1.
        -11    1    4    4    0    0 -0.56319873176E+01  0.35412861075E+02 -0.44022621216E+02  0.56778351415E+02  0.00000000000E+00 0.  1.
         12    1    4    4    0    0  0.38974706358E+02 -0.30439441771E+02 -0.49728632415E+02  0.70132191131E+02  0.00000000000E+00 0. -1.
         -5    1    5    5    0  502  0.27334794516E+01  0.32016576413E+02 -0.27768924029E+02  0.42728634624E+02  0.47000000000E+01 0.  1.
         11    1    6    6    0    0 -0.13201336330E+02 -0.36555826978E+02  0.79997762997E+02  0.88939562915E+02  0.00000000000E+00 0. -1.
        -12    1    6    6    0    0 -0.68558573118E+02 -0.21794526427E+02  0.21382565149E+02  0.75049939523E+02  0.00000000000E+00 0.  1.
</event>
<event>
12    1  0.8344842E-002  0.2282035E+03  0.7818608E-02  0.1128471E+00
         21   -1    0    0  503  502  0.00000000000E+00  0.00000000000E+00  0.11207465646E+03  0.11207465646E+03  0.00000000000E+00 0. -1.
         21   -1    0    0  501  503 -0.00000000000E+00 -0.00000000000E+00 -0.63758870934E+03  0.63758870934E+03  0.00000000000E+00 0. -1.
          6    2    1    2  501    0 -0.56692720512E+02 -0.13327685168E+03 -0.46020722208E+03  0.51229909192E+03  0.17228722695E+03 0.  0.
         24    2    3    3    0    0  0.27720768256E+02 -0.10499800095E+03 -0.29237449269E+03  0.32225897631E+03  0.81086266661E+02 0.  0.
         -6    2    1    2    0  502  0.56692720512E+02  0.13327685168E+03 -0.65306830795E+02  0.23736427388E+03  0.17635201334E+03 0.  0.
        -24    2    5    5    0    0  0.55006846307E+02  0.79092223619E+02 -0.10772321827E+03  0.16837111467E+03  0.86389857763E+02 0.  0.
          5    1    3    3  501    0 -0.84413488768E+02 -0.28278850732E+02 -0.16783272939E+03  0.19004011561E+03  0.47000000000E+01 0. -1.
        -13    1    4    4    0    0  0.17755106802E+02 -0.10166627288E+03 -0.16612520249E+03  0.19557315194E+03  0.00000000000E+00 0.  1.
         14    1    4    4    0    0  0.99656614537E+01 -0.33317280761E+01 -0.12624929020E+03  0.12668582437E+03  0.00000000000E+00 0. -1.
         -5    1    5    5    0  502  0.16858742052E+01  0.54184628064E+02  0.42416387475E+02  0.68993159202E+02  0.47000000000E+01 0.  1.
         13    1    6    6    0    0  0.19455061577E+02  0.89217770082E+02 -0.86321240962E+02  0.12565693996E+03  0.00000000000E+00 0. -1.
        -14    1    6    6    0    0  0.35551784730E+02 -0.10125546463E+02 -0.21401977309E+02  0.42714174712E+02  0.00000000000E+00 0.  1.
</event>
<event>
12    1  0.8344842E-002  0.1972984E+03  0.7818608E-02  0.1152244E+00
         21   -1    0    0  501  502  0.00000000000E+00  0.00000000000E+00  0.91077531661E+03  0.91077531661E+03  0.00000000000E+00 0.  1.
         21   -1    0    0  502  503 -0.00000000000E+00 -0.00000000000E+00 -0.50434031234E+02  0.50434031234E+02  0.00000000000E+00 0. -1.
         -6    2    1    2    0  503  0.86917370246E+02 -0.40124067719E+02  0.24083208154E+03  0.31133062352E+03  0.17251694287E+03 0.  0.
        -24    2    3    3    0    0  0.19882005653E+02 -0.69755220307E+02  0.19889234504E+03  0.22675653287E+03  0.81235924184E+02 0.  0.
          6    2    1    2  501    0 -0.86917370246E+02  0.40124067719E+02  0.61950920383E+03  0.64987872433E+03  0.17142383918E+03 0.  0.
         24    2    5    5    0    0 -0.11448342088E+03  0.20910461842E+02  0.33892122103E+03  0.36724688626E+03  0.80367781670E+02 0.  0.
          5    1    5    5  501    0  0.27566050630E+02  0.19213605877E+02  0.28058798280E+03  0.28263183807E+03  0.47000000000E+01 0. -1.
        -13    1    6    6    0    0 -0.10661834187E+03  0.74490313659E+01  0.33432455716E+03  0.35099268997E+03  0.00000000000E+00 0.  1.
         14    1    6    6    0    0 -0.78650790093E+01  0.13461430476E+02  0.45966638718E+01  0.16254196290E+02  0.00000000000E+00 0. -1.
         -5    1    3    3    0  503  0.67035364593E+02  0.29631152588E+02  0.41939736505E+02  0.84574090642E+02  0.47000000000E+01 0.  1.
         13    1    4    4    0    0 -0.23454199456E+02  0.32297674928E+01  0.51231097542E+02  0.56437188321E+02  0.00000000000E+00 0. -1.
        -14    1    4    4    0    0  0.43336205109E+02 -0.72984987800E+02  0.14766124749E+03  0.17031934455E+03  0.00000000000E+00 0.  1.
</event>
<event>
12    1  0.8344842E-002  0.3005044E+03  0.7818608E-02  0.1085023E+00
         21   -1    0    0  503  502  0.00000000000E+00  0.00000000000E+00  0.61682106827E+03  0.61682106827E+03  0.00000000000E+00 0. -1.
         21   -1    0    0  501  503 -0.00000000000E+00 -0.00000000000E+00 -0.27130031633E+03  0.27130031633E+03  0.00000000000E+00 0. -1.
          6    2    1    2  501    0 -0.18055789660E+03  0.17048554681E+03 -0.12874509156E+03  0.32666705515E+03  0.16872934133E+03 0.  0.
         24    2    3    3    0    0 -0.11098746131E+03  0.10558201772E+03 -0.76938927975E+01  0.17262811113E+03  0.79217988686E+02 0.  0.
         -6    2    1    2    0  502  0.18055789660E+03 -0.17048554681E+03  0.47426584349E+03  0.56145432945E+03  0.16922292414E+03 0.  0.
        -24    2    5    5    0    0  0.18819063393E+03 -0.97660696348E+02  0.37691264959E+03  0.43954677478E+03  0.78644106464E+02 0.  0.
          5    1    3    3  501    0 -0.69570435289E+02  0.64903529090E+02 -0.12105119876E+03  0.15403894402E+03  0.47000000000E+01 0. -1.
        -13    1    4    4    0    0 -0.12250369845E+03  0.93166452230E+02 -0.14036440950E+02  0.15454502784E+03  0.00000000000E+00 0.  1.
         14    1    4    4    0    0  0.11516237138E+02  0.12415565488E+02  0.63425481526E+01  0.18083083289E+02  0.00000000000E+00 0. -1.
         -5    1    5    5    0  502 -0.76327373293E+01 -0.72824850460E+02  0.97353193896E+02  0.12190755467E+03  0.47000000000E+01 0.  1.
         11    1    6    6    0    0  0.44809855025E+01 -0.27980416513E+02  0.65005169482E+02  0.70913010081E+02  0.00000000000E+00 0. -1.
        -12    1    6    6    0    0  0.18370964843E+03 -0.69680279835E+02  0.31190748011E+03  0.36863376470E+03  0.00000000000E+00 0.  1.
</event>
<event>
12    1  0.8344842E-002  0.2342226E+03  0.7818608E-02  0.1123792E+00
         21   -1    0    0  501  502  0.00000000000E+00  0.00000000000E+00  0.22653651798E+03  0.22653651798E+03  0.00000000000E+00 0. -1.
         21   -1    0    0  502  503 -0.00000000000E+00 -0.00000000000E+00 -0.24522282612E+03  0.24522282612E+03  0.00000000000E+00 0.  1.
         -6    2    1    2    0  503 -0.15066212314E+03 -0.49624128386E+02  0.19192295648E+02  0.23500758269E+03  0.17233278922E+03 0.  0.
        -24    2    3    3    0    0 -0.86110620995E+02 -0.11383241457E+02  0.77013596364E+02  0.14016742938E+03  0.78556966598E+02 0.  0.
          6    2    1    2  501    0  0.15066212314E+03  0.49624128386E+02 -0.37878603793E+02  0.23675176141E+03  0.17162452750E+03 0.  0.
         24    2    5    5    0    0  0.17524315789E+02  0.31391673532E+02  0.22003391076E+02  0.89557870689E+02  0.79018505253E+02 0.  0.
          5    1    5    5  501    0  0.13313780735E+03  0.18232454853E+02 -0.59881994869E+02  0.14719389072E+03  0.47000000000E+01 0. -1.
        -13    1    6    6    0    0  0.38272151271E+02  0.19224185527E+02 -0.15038051512E+02  0.45392398762E+02  0.00000000000E+00 0.  1.
         14    1    6    6    0    0 -0.20747835482E+02  0.12167488005E+02  0.37041442588E+02  0.44165471927E+02  0.00000000000E+00 0. -1.
         -5    1    3    3    0  503 -0.64551502145E+02 -0.38240886929E+02 -0.57821300716E+02  0.94840153304E+02  0.47000000000E+01 0.  1.
         11    1    4    4    0    0 -0.35225162489E+02 -0.44091033304E+02  0.41157928933E+02  0.69848453127E+02  0.00000000000E+00 0. -1.
        -12    1    4    4    0    0 -0.50885458506E+02  0.32707791847E+02  0.35855667431E+02  0.70318976257E+02  0.00000000000E+00 0.  1.
</event>
<event>
12    1  0.8344842E-002  0.1970189E+03  0.7818608E-02  0.1153245E+00
         21   -1    0    0  501  502  0.00000000000E+00  0.00000000000E+00  0.77351541806E+02  0.77351541806E+02  0.00000000000E+00 0.  1.
         21   -1    0    0  502  503 -0.00000000000E+00 -0.00000000000E+00 -0.52218945131E+03  0.52218945131E+03  0.00000000000E+00 0.  1.
         -6    2    1    2    0  503 -0.72055487745E+02 -0.59436937583E+02 -0.29854736727E+03  0.35769676889E+03  0.17346960860E+03 0.  0.
        -24    2    3    3    0    0 -0.27240524355E+02 -0.86774500391E+01 -0.27126954890E+03  0.28454572041E+03  0.81004657490E+02 0.  0.
          6    2    1    2  501    0  0.72055487745E+02  0.59436937583E+02 -0.14629054224E+03  0.24184422423E+03  0.16841307307E+03 0.  0.
         24    2    5    5    0    0  0.45778890724E+02  0.58309187271E+02 -0.17247919174E+03  0.20443210408E+03  0.80918140349E+02 0.  0.
          5    1    5    5  501    0  0.26276597020E+02  0.11277503121E+01  0.26188649500E+02  0.37412120153E+02  0.47000000000E+01 0. -1.
        -11    1    6    6    0    0  0.68275231477E+02  0.35103350586E+02 -0.11079487657E+03  0.13479338682E+03  0.00000000000E+00 0.  1.
         12    1    6    6    0    0 -0.22496340752E+02  0.23205836684E+02 -0.61684315166E+02  0.69638717256E+02  0.00000000000E+00 0. -1.
         -5    1    3    3    0  503 -0.44814963390E+02 -0.50759487544E+02 -0.27277818366E+02  0.73151048483E+02  0.47000000000E+01 0.  1.
         13    1    4    4    0    0 -0.35954957037E+02 -0.26907897312E+02 -0.25407626054E+03  0.25801461208E+03  0.00000000000E+00 0. -1.
        -14    1    4    4    0    0  0.87144326822E+01  0.18230447273E+02 -0.17193288358E+02  0.26531108331E+02  0.00000000000E+00 0.  1.
</event>
<event>
12    1  0.8344842E-002  0.1788597E+03  0.7818608E-02  0.1170046E+00
         21   -1    0    0  503  502  0.00000000000E+00  0.00000000000E+00  0.42349646153E+02  0.42349646153E+02  0.00000000000E+00 0.  1.
         21   -1    0    0  501  503 -0.00000000000E+00 -0.00000000000E+00 -0.18436028179E+04  0.18436028179E+04  0.00000000000E+00 0.  1.
          6    2    1    2  501    0 -0.37224068717E+02 -0.20894632920E+02 -0.16267834958E+04  0.16360915873E+04  0.16896426460E+03 0.  0.
         24    2    3    3    0    0  0.13686498808E+02 -0.45643002719E+02 -0.13704056181E+04  0.13734967018E+04  0.78810074222E+02 0.  0.
         -6    2    1    2    0  502  0.37224068717E+02  0.20894632920E+02 -0.17446967591E+03  0.24986087676E+03  0.17369102724E+03 0.  0.
        -24    2    5    5    0    0 -0.88335674873E+01 -0.22487447074E+02 -0.23688027077E+02  0.86274488747E+02  0.79362759474E+02 0.  0.
          5    1    3    3  501    0 -0.50910567525E+02  0.24748369798E+02 -0.25637787775E+03  0.26259488550E+03  0.47000000000E+01 0. -1.
        -11    1    4    4    0    0 -0.43270170081E+01 -0.65198192055E+02 -0.93554847480E+03  0.93782753000E+03  0.00000000000E+00 0.  1.
         12    1    4    4    0    0  0.18013515816E+02  0.19555189336E+02 -0.43485714326E+03  0.43566917177E+03  0.00000000000E+00 0. -1.
         -5    1    5    5    0  502  0.46057636205E+02  0.43382079994E+02 -0.15078164884E+03  0.16358638801E+03  0.47000000000E+01 0.  1.
         13    1    6    6    0    0  0.40615172496E+01 -0.41038494791E+02  0.12955377815E+02  0.43226100812E+02  0.00000000000E+00 0. -1.
        -14    1    6    6    0    0 -0.12895084737E+02  0.18551047717E+02 -0.36643404891E+02  0.43048387935E+02  0.00000000000E+00 0.  1.
</event>
<event>
12    1  0.8344842E-002  0.2102460E+03  0.7818608E-02  0.1141547E+00
         21   -1    0    0  501  502  0.00000000000E+00  0.00000000000E+00  0.26241527431E+04  0.26241527431E+04  0.00000000000E+00 0. -1.
         21   -1    0    0  502  503 -0.00000000000E+00 -0.00000000000E+00 -0.32192908569E+02  0.32192908569E+02  0.00000000000E+00 0.  1.
         -6    2    1    2    0  503  0.88182232620E+02 -0.81298166299E+02  0.22165934495E+04  0.22265421439E+04  0.17267860409E+03 0.  0.
        -24    2    3    3    0    0  0.75030435134E+02 -0.11767274202E+02  0.75305470066E+03  0.76128610006E+03  0.81835866316E+02 0.  0.
          6    2    1    2  501    0 -0.88182232620E+02  0.81298166299E+02  0.37536638497E+03  0.42980350769E+03  0.17159730260E+03 0.  0.
         24    2    5    5    0    0 -0.10652608854E+03  0.10569593481E+03  0.26500193063E+03  0.31519918430E+03  0.81271547095E+02 0.  0.
          5    1    5    5  501    0  0.18343855918E+02 -0.24397768507E+02  0.11036445434E+03  0.11460432339E+03  0.47000000000E+01 0. -1.
        -13    1    6    6    0    0 -0.58000225651E+02  0.28173045834E+02  0.50135867295E+02  0.81678343988E+02  0.00000000000E+00 0.  1.
         14    1    6    6    0    0 -0.48525862888E+02  0.77522888972E+02  0.21486606334E+03  0.23352084031E+03  0.00000000000E+00 0. -1.
         -5    1    3    3    0  503  0.13151797486E+02 -0.69530892098E+02  0.14635387488E+04  0.14652560439E+04  0.47000000000E+01 0.  1.
         11    1    4    4    0    0  0.31548897876E+02 -0.45410937170E+02  0.43714283762E+03  0.44062608486E+03  0.00000000000E+00 0. -1.
        -12    1    4    4    0    0  0.43481537258E+02  0.33643662969E+02  0.31591186304E+03  0.32066001520E+03  0.00000000000E+00 0.  1.
</event>
<event>
12    1  0.8344842E-002  0.2344711E+03  0.7818608E-02  0.1123534E+00
         21   -1    0    0  503  502  0.00000000000E+00  0.00000000000E+00  0.10672435791E+04  0.10672435791E+04  0.00000000000E+00 0. -1.
         21   -1    0    0  501  503 -0.00000000000E+00 -0.00000000000E+00 -0.66964302646E+02  0.66964302646E+02  0.00000000000E+00 0.  1.
          6    2    1    2  501    0 -0.14470047252E+03  0.66706911103E+02  0.22771366783E+03  0.32684894479E+03  0.17201360254E+03 0.  0.
         24    2    3    3    0    0 -0.14161675895E+03  0.68931470278E+01  0.20620818494E+03  0.26303851103E+03  0.81022347889E+02 0.  0.
         -6    2    1    2    0  502  0.14470047252E+03 -0.66706911103E+02  0.77256560867E+03  0.80735893700E+03  0.17199649623E+03 0.  0.
        -24    2    5    5    0    0  0.14099589230E+02 -0.46117208785E+02  0.43777149224E+03  0.44737321929E+03  0.78570494191E+02 0.  0.
          5    1    3    3  501    0 -0.30837135646E+01  0.59813764076E+02  0.21505482885E+02  0.63810433758E+02  0.47000000000E+01 0. -1.
        -11    1    4    4    0    0 -0.17256005985E+02  0.21685842641E+02  0.84738197978E+01  0.28980185223E+02  0.00000000000E+00 0.  1.
         12    1    4    4    0    0 -0.12436075297E+03 -0.14792695613E+02  0.19773436514E+03  0.23405832581E+03  0.00000000000E+00 0. -1.
         -5    1    5    5    0  502  0.13060088329E+03 -0.20589702318E+02  0.33479411644E+03  0.35998571771E+03  0.47000000000E+01 0.  1.
         11    1    6    6    0    0  0.29301414695E+02  0.47327112946E+01  0.26437953831E+03  0.26604043252E+03  0.00000000000E+00 0. -1.
        -12    1    6    6    0    0 -0.15201825465E+02 -0.50849920080E+02  0.17339195393E+03  0.18133278677E+03  0.00000000000E+00 0.  1.
</event>
<event>
12    1  0.8344842E-002  0.2531652E+03  0.7818608E-02  0.1111387E+00
         21   -1    0    0  503  502  0.00000000000E+00  0.00000000000E+00  0.20400582390E+03  0.20400582390E+03  0.00000000000E+00 0.  1.
         21   -1    0    0  501  503 -0.00000000000E+00 -0.00000000000E+00 -0.39503678586E+03  0.39503678586E+03  0.00000000000E+00 0.  1.
          6    2    1    2  501    0 -0.39896320264E+02 -0.18106479416E+03  0.40379636969E+02  0.25636526859E+03  0.17238462751E+03 0.  0.
         24    2    3    3    0    0 -0.35802579253E+01 -0.19575474111E+03  0.38605649695E+02  0.21686985169E+03  0.84908182579E+02 0.  0.
         -6    2    1    2    0  502  0.39896320264E+02  0.18106479416E+03 -0.23141059893E+03  0.34267734117E+03  0.17175773287E+03 0.  0.
        -24    2    5    5    0    0  0.11689166257E+02  0.14397398016E+02 -0.94533898691E+02  0.12512048529E+03  0.79840817625E+02 0.  0.
          5    1    3    3  501    0 -0.36316062339E+02  0.14689946953E+02  0.17739872735E+01  0.39495416900E+02  0.47000000000E+01 0. -1.
        -11    1    4    4    0    0  0.18399531817E+01 -0.88461548401E+02 -0.25099316244E+02  0.91971770936E+02  0.00000000000E+00 0.  1.
         12    1    4    4    0    0 -0.54202111069E+01 -0.10729319271E+03  0.63704965939E+02  0.12489808076E+03  0.00000000000E+00 0. -1.
         -5    1    5    5    0  502  0.28207154007E+02  0.16666739615E+03 -0.13687670024E+03  0.21755685589E+03  0.47000000000E+01 0.  1.
         13    1    6    6    0    0 -0.10162474031E+02  0.12700568768E+02 -0.10097457979E+03  0.10227632223E+03  0.00000000000E+00 0. -1.
        -14    1    6    6    0    0  0.21851640288E+02  0.16968292480E+01  0.64406810962E+01  0.22844163057E+02  0.00000000000E+00 0.  1.
</event>
<event>
12    1  0.8344842E-002  0.2162621E+03  0.7818608E-02  0.1136807E+00
         21   -1    0    0  501  502  0.00000000000E+00  0.00000000000E+00  0.58619116524E+02  0.58619116524E+02  0.00000000000E+00 0. -1.
         21   -1    0    0  502  503 -0.00000000000E+00 -0.00000000000E+00 -0.18949023181E+04  0.18949023181E+04  0.00000000000E+00 0.  1.
         -6    2    1    2    0  503  0.25667524284E+01 -0.13073592723E+03 -0.16615441705E+04  0.16754871867E+04  0.17155119135E+03 0.  0.
        -24    2    3    3    0    0 -0.34973963142E+02 -0.46425370588E+02 -0.47737510323E+03  0.48771782977E+03  0.81260071130E+02 0.  0.
          6    2    1    2  501    0 -0.25667524284E+01  0.13073592723E+03 -0.17473903110E+03  0.27803424799E+03  0.17225226610E+03 0.  0.
         24    2    5    5    0    0  0.10696487201E+02 -0.17249073886E+02 -0.38770853827E+02  0.76577281583E+02  0.62840715781E+02 0.  0.
          5    1    5    5  501    0 -0.13263239629E+02  0.14798500112E+03 -0.13596817727E+03  0.20145696640E+03  0.47000000000E+01 0. -1.
        -13    1    6    6    0    0 -0.66680756056E+01 -0.36505782939E+02 -0.33758786500E+02  0.50167629865E+02  0.00000000000E+00 0.  1.
         14    1    6    6    0    0  0.17364562806E+02  0.19256709053E+02 -0.50120673273E+01  0.26409651719E+02  0.00000000000E+00 0. -1.
         -5    1    3    3    0  503  0.37540715570E+02 -0.84310556646E+02 -0.11841690673E+04  0.11877693569E+04  0.47000000000E+01 0.  1.
         11    1    4    4    0    0 -0.41176204225E+02 -0.62073701719E+02 -0.44536918301E+03  0.45155545995E+03  0.00000000000E+00 0. -1.
        -12    1    4    4    0    0  0.62022410828E+01  0.15648331131E+02 -0.32005920223E+02  0.36162369820E+02  0.00000000000E+00 0.  1.
</event>
<event>
12    1  0.8344842E-002  0.1840997E+03  0.7818608E-02  0.1164284E+00
         21   -1    0    0  501  502  0.00000000000E+00  0.00000000000E+00  0.28514186965E+03  0.28514186965E+03  0.00000000000E+00 0. -1.
         21   -1    0    0  502  503 -0.00000000000E+00 -0.00000000000E+00 -0.49819237640E+03  0.49819237640E+03  0.00000000000E+00 0. -1.
         -6    2    1    2    0  503  0.16108756199E+02  0.66229222352E+02 -0.44865510595E+03  0.48433216834E+03  0.16923487607E+03 0.  0.
        -24    2    3    3    0    0 -0.30246358658E+01 -0.26008802881E+02 -0.26091396998E+03  0.27423037366E+03  0.80253298134E+02 0.  0.
          6    2    1    2  501    0 -0.16108756199E+02 -0.66229222352E+02  0.23560459920E+03  0.29900207771E+03  0.17101728975E+03 0.  0.
         24    2    5    5    0    0 -0.37853766978E+02 -0.20783814763E+02  0.23052102027E+03  0.24814872640E+03  0.81073886055E+02 0.  0.
          5    1    5    5  501    0  0.21745010778E+02 -0.45445407589E+02  0.50835789329E+01  0.50853351310E+02  0.47000000000E+01 0. -1.
        -11    1    6    6    0    0 -0.26168593044E+02  0.17162195647E+02  0.28709245626E+02  0.42468305896E+02  0.00000000000E+00 0.  1.
         12    1    6    6    0    0 -0.11685173934E+02 -0.37946010410E+02  0.20181177464E+03  0.20568042051E+03  0.00000000000E+00 0. -1.
         -5    1    3    3    0  503  0.19133392065E+02  0.92238025233E+02 -0.18774113597E+03  0.21010179468E+03  0.47000000000E+01 0.  1.
         11    1    4    4    0    0 -0.13375462994E+02  0.13754541480E+02 -0.19900107286E+03  0.19992377903E+03  0.00000000000E+00 0. -1.
        -12    1    4    4    0    0  0.10350827129E+02 -0.39763344361E+02 -0.61912897120E+02  0.74306594639E+02  0.00000000000E+00 0.  1.
</event>
<event>
12    1  0.8344842E-002  0.3099234E+03  0.7818608E-02  0.1080396E+00
         21   -1    0    0  503  502  0.00000000000E+00  0.00000000000E+00  0.42135464690E+03  0.42135464690E+03  0.00000000000E+00 0.  1.
         21   -1    0    0  501  503 -0.00000000000E+00 -0.00000000000E+00 -0.23055059547E+03  0.23055059547E+03  0.00000000000E+00 0.  1.
          6    2    1    2  501    0 -0.25221820733E+03 -0.55381057697E+02  0.13052395465E+03  0.33628710408E+03  0.17138094402E+03 0.  0.
         24    2    3    3    0    0 -0.15238599106E+03 -0.35650970394E+01  0.14124857177E+03  0.22320097497E+03  0.81445171822E+02 0.  0.
         -6    2    1    2    0  502  0.25221820733E+03  0.55381057697E+02  0.60280096773E+02  0.31561813830E+03  0.17117252553E+03 0.  0.
        -24    2    5    5    0    0  0.16378205927E+03 -0.25096703454E+02  0.62379853702E+01  0.18431595961E+03  0.80492565140E+02 0.  0.
          5    1    3    3  501    0 -0.99832216269E+02 -0.51815960658E+02 -0.10724617121E+02  0.11308612911E+03  0.47000000000E+01 0. -1.
        -11    1    4    4    0    0 -0.10771692646E+03 -0.39853034878E+02  0.10130315809E+03  0.15314545528E+03  0.00000000000E+00 0.  1.
         12    1    4    4    0    0 -0.44669064597E+02  0.36287937838E+02  0.39945413687E+02  0.70055519691E+02  0.00000000000E+00 0. -1.
         -5    1    5    5    0  502  0.88436148060E+02  0.80477761151E+02  0.54042111402E+02  0.13130217869E+03  0.47000000000E+01 0.  1.
         13    1    6    6    0    0  0.78386756461E+00 -0.12385040594E+02  0.16331590976E+02  0.20511570946E+02  0.00000000000E+00 0. -1.
        -14    1    6    6    0    0  0.16299819170E+03 -0.12711662860E+02 -0.10093605605E+02  0.16380438866E+03  0.00000000000E+00 0.  1.
</event>
<event>
12    1  0.8344842E-002  0.2183618E+03  0.7818608E-02  0.1135162E+00
         21   -1    0    0  501  502  0.00000000000E+00  0.00000000000E+00  0.10443301947E+03  0.10443301947E+03  0.00000000000E+00 0. -1.
         21   -1    0    0  502  503 -0.00000000000E+00 -0.00000000000E+00 -0.64093459088E+03  0.64093459088E+03  0.00000000000E+00 0.  1.
         -6    2    1    2    0  503  0.13798882274E+03 -0.16590173712E+02 -0.46856198264E+03  0.51694506757E+03  0.16842126422E+03 0.  0.
        -24    2    3    3    0    0  0.31278175441E+02 -0.54535106512E+02 -0.27199526346E+03  0.29003639594E+03  0.78659300289E+02 0.  0.
          6    2    1    2  501    0 -0.13798882274E+03  0.16590173712E+02 -0.67939588768E+02  0.22842254278E+03  0.16806225413E+03 0.  0.
         24    2    5    5    0    0 -0.14564348524E+03  0.38921854058E+02 -0.92453818481E+02  0.19406653511E+03  0.79919809677E+02 0.  0.
          5    1    5    5  501    0  0.76546624992E+01 -0.22331680346E+02  0.24514229713E+02  0.34356007677E+02  0.47000000000E+01 0. -1.
        -11    1    6    6    0    0 -0.95781275910E+01  0.33022240432E+01 -0.44234863502E+02  0.45380264001E+02  0.00000000000E+00 0.  1.
         12    1    6    6    0    0 -0.13606535765E+03  0.35619630015E+02 -0.48218954979E+02  0.14868627110E+03  0.00000000000E+00 0. -1.
         -5    1    3    3    0  503  0.10671064730E+03  0.37944932800E+02 -0.19656671918E+03  0.22690867163E+03  0.47000000000E+01 0.  1.
         13    1    4    4    0    0  0.36598972431E+02 -0.59419330001E+02 -0.12740523318E+03  0.14526608346E+03  0.00000000000E+00 0. -1.
        -14    1    4    4    0    0 -0.53207969899E+01  0.48842234891E+01 -0.14459003028E+03  0.14477031248E+03  0.00000000000E+00 0.  1.
</event>
<event>
12    1  0.8344842E-002  0.1930992E+03  0.7818608E-02  0.1155740E+00
         21   -1    0    0  501  502  0.00000000000E+00  0.00000000000E+00  0.68792725601E+03  0.68792725601E+03  0.00000000000E+00 0. -1.
         21   -1    0    0  502  503 -0.00000000000E+00 -0.00000000000E+00 -0.79180398720E+02  0.79180398720E+02  0.00000000000E+00 0.  1.
         -6    2    1    2    0  503 -0.42311031534E+01 -0.88705099012E+02  0.88812982532E+02  0.21254422218E+03  0.17146662559E+03 0.  0.
        -24    2    3    3    0    0  0.19585972602E+02 -0.68538434184E+01 -0.76070318123E+01  0.83758391026E+02  0.80789947654E+02 0.  0.
          6    2    1    2  501    0  0.42311031534E+01  0.88705099012E+02  0.51993387476E+03  0.55456343255E+03  0.17123921799E+03 0.  0.
         24    2    5    5    0    0 -0.57188075622E+02  0.41046830382E+02  0.24841813445E+03  0.27209836687E+03  0.85852393422E+02 0.  0.
          5    1    5    5  501    0  0.61419178775E+02  0.47658268631E+02  0.27151574031E+03  0.28246506568E+03  0.47000000000E+01 0. -1.
        -13    1    6    6    0    0 -0.22892734357E+02 -0.25969546472E+02  0.97121571288E+02  0.10310719781E+03  0.00000000000E+00 0.  1.
         14    1    6    6    0    0 -0.34295341264E+02  0.67016376853E+02  0.15129656316E+03  0.16899116907E+03  0.00000000000E+00 0. -1.
         -5    1    3    3    0  503 -0.23817075756E+02 -0.81851255594E+02  0.96420014345E+02  0.12878583115E+03  0.47000000000E+01 0.  1.
         13    1    4    4    0    0  0.64218460744E+01  0.67673905467E+01  0.35482699440E+02  0.36688685468E+02  0.00000000000E+00 0. -1.
        -14    1    4    4    0    0  0.13164126528E+02 -0.13621233965E+02 -0.43089731252E+02  0.47069705558E+02  0.00000000000E+00 0.  1.
</event>
<event>
12    1  0.8344842E-002  0.1797088E+03  0.7818608E-02  0.1168131E+00
         21   -1    0    0  503  502  0.00000000000E+00  0.00000000000E+00  0.40164925109E+03  0.40164925109E+03  0.00000000000E+00 0. -1.
         21   -1    0    0  501  503 -0.00000000000E+00 -0.00000000000E+00 -0.86974110779E+02  0.86974110779E+02  0.00000000000E+00 0. -1.
          6    2    1    2  501    0  0.47598326463E+01  0.49640465162E+02  0.89700251771E+02  0.20068421933E+03  0.17245633920E+03 0.  0.
         24    2    3    3    0    0 -0.53207423688E+02  0.15743362571E+02  0.91752404534E+02  0.13333796700E+03  0.79256711427E+02 0.  0.
         -6    2    1    2    0  502 -0.47598326463E+01 -0.49640465162E+02  0.22497488854E+03  0.28793914254E+03  0.17265114406E+03 0.  0.
        -24    2    5    5    0    0  0.43751173546E+02 -0.34245248841E+02  0.53246140443E+02  0.10876553028E+03  0.76862779358E+02 0.  0.
          5    1    3    3  501    0  0.57967256334E+02  0.33897102591E+02 -0.20521527634E+01  0.67346252323E+02  0.47000000000E+01 0. -1.
        -13    1    4    4    0    0  0.58561264038E+01  0.84563676515E+01 -0.10708304254E+02  0.14848304628E+02  0.00000000000E+00 0.  1.
         14    1    4    4    0    0 -0.59063550091E+02  0.72869949191E+01  0.10246070879E+03  0.11848966238E+03  0.00000000000E+00 0. -1.
         -5    1    5    5    0  502 -0.48511006193E+02 -0.15395216321E+02  0.17172874809E+03  0.17917361226E+03  0.47000000000E+01 0.  1.
         11    1    6    6    0    0  0.44117449356E+02 -0.52384710308E+02  0.58289692672E+02  0.89934395442E+02  0.00000000000E+00 0. -1.
        -12    1    6    6    0    0 -0.36627580916E+00  0.18139461467E+02 -0.50435522290E+01  0.18831134840E+02  0.00000000000E+00 0.  1.
</event>
<event>
12    1  0.8344842E-002  0.2004257E+03  0.7818608E-02  0.1149389E+00
         21   -1    0    0  503  502  0.00000000000E+00  0.00000000000E+00  0.10225853937E+03  0.10225853937E+03  0.00000000000E+00 0. -1.
         21   -1    0    0  501  503 -0.00000000000E+00 -0.00000000000E+00 -0.48483129315E+03  0.48483129315E+03  0.00000000000E+00 0. -1.
          6    2    1    2  501    0 -0.98570199977E+02  0.24964755435E+02 -0.31922640630E+03  0.37692965356E+03  0.17271694160E+03 0.  0.
         24    2    3    3    0    0 -0.10241015909E+03  0.72822748321E+02 -0.20826643763E+03  0.25593652393E+03  0.79609056540E+02 0.  0.
         -6    2    1    2    0  502  0.98570199977E+02 -0.24964755435E+02 -0.63346347480E+02  0.21016017897E+03  0.17267083641E+03 0.  0.
        -24    2    5    5    0    0 -0.14046216487E+01 -0.16517368975E+02  0.13474855622E+02  0.83708960931E+02  0.80937148247E+02 0.  0.
          5    1    3    3  501    0  0.38399591116E+01 -0.47857992887E+02 -0.11095996867E+03  0.12099312963E+03  0.47000000000E+01 0. -1.
        -13    1    4    4    0    0 -0.30788225432E+02  0.20701929848E+02 -0.94580396672E+01  0.38287585965E+02  0.00000000000E+00 0.  1.
         14    1    4    4    0    0 -0.71621933657E+02  0.52120818474E+02 -0.19880839796E+03  0.21764893797E+03  0.00000000000E+00 0. -1.
         -5    1    5    5    0  502  0.99974821626E+02 -0.84473864600E+01 -0.76821203102E+02  0.12645121804E+03  0.47000000000E+01 0.  1.
         13    1    6    6    0    0  0.16164231854E+01  0.21046881862E+02  0.34581752364E+02  0.40515202784E+02  0.00000000000E+00 0. -1.
        -14    1    6    6    0    0 -0.30210448341E+01 -0.37564250837E+02 -0.21106896742E+02  0.43193758148E+02  0.00000000000E+00 0.  1.
</event>
<event>
12    1  0.8344842E-002  0.1751712E+03  0.7818608E-02  0.1172639E+00
         21   -1    0    0  501  502  0.00000000000E+00  0.00000000000E+00  0.37708237280E+02  0.37708237280E+02  0.00000000000E+00 0.  1.
         21   -1    0    0  502  503 -0.00000000000E+00 -0.00000000000E+00 -0.15999987340E+04  0.15999987340E+04  0.00000000000E+00 0.  1.
         -6    2    1    2    0  503 -0.26695694332E+02  0.17917180170E+02 -0.13560558892E+04  0.13673231174E+04  0.17219537546E+03 0.  0.
        -24    2    3    3    0    0  0.15074075708E+02 -0.38711731493E+02 -0.10215948626E+04  0.10255076473E+04  0.79271970883E+02 0.  0.
          6    2    1    2  501    0  0.26695694332E+02 -0.17917180170E+02 -0.20623460749E+03  0.27038385384E+03  0.17187504080E+03 0.  0.
         24    2    5    5    0    0 -0.44964310291E+02 -0.29830850891E+02 -0.15106333716E+03  0.17904355122E+03  0.79528564277E+02 0.  0.
          5    1    5    5  501    0  0.71660004623E+02  0.11913670721E+02 -0.55171270338E+02  0.91340302623E+02  0.47000000000E+01 0. -1.
        -11    1    6    6    0    0  0.17813109606E+02 -0.22142892312E+02 -0.24353049950E+02  0.37425734403E+02  0.00000000000E+00 0.  1.
         12    1    6    6    0    0 -0.62777419897E+02 -0.76879585795E+01 -0.12671028721E+03  0.14161781682E+03  0.00000000000E+00 0. -1.
         -5    1    3    3    0  503 -0.41769770040E+02  0.56628911663E+02 -0.33446102658E+03  0.34181547013E+03  0.47000000000E+01 0.  1.
         13    1    4    4    0    0  0.45209018982E+02 -0.36637788776E+02 -0.59240046554E+03  0.59525162288E+03  0.00000000000E+00 0. -1.
        -14    1    4    4    0    0 -0.30134943275E+02 -0.20739427168E+01 -0.42919439706E+03  0.43025602438E+03  0.00000000000E+00 0.  1.
</event>
<event>
12    1  0.8344842E-002  0.2469345E+03  0.7818608E-02  0.1115685E+00
         21   -1    0    0  503  502  0.00000000000E+00  0.00000000000E+00  0.23757884188E+03  0.23757884188E+03  0.00000000000E+00 0. -1.
         21   -1    0    0  501  503 -0.00000000000E+00 -0.00000000000E+00 -0.29271666697E+03  0.29271666697E+03  0.00000000000E+00 0. -1.
          6    2    1    2  501    0 -0.84875444715E+02 -0.15504452566E+03 -0.12423481164E+03  0.27642526246E+03  0.17243546982E+03 0.  0.
         24    2    3    3    0    0 -0.66930617373E+01 -0.11432092838E+03 -0.12643958193E+03  0.18811984136E+03  0.79297131694E+02 0.  0.
         -6    2    1    2    0  502  0.84875444715E+02  0.15504452566E+03  0.69096986544E+02  0.25387024638E+03  0.16862106154E+03 0.  0.
        -24    2    5    5    0    0  0.74860187115E+01  0.14374158837E+03  0.25438320159E+02  0.16417605036E+03  0.74759498910E+02 0.  0.
          5    1    3    3  501    0 -0.78182382978E+02 -0.40723597283E+02  0.22047702938E+01  0.88305421101E+02  0.47000000000E+01 0. -1.
        -13    1    4    4    0    0 -0.29948963649E+02 -0.27134108265E+02 -0.11550250008E+02  0.42031042459E+02  0.00000000000E+00 0.  1.
         14    1    4    4    0    0  0.23255901912E+02 -0.87186820112E+02 -0.11488933192E+03  0.14608879890E+03  0.00000000000E+00 0. -1.
         -5    1    5    5    0  502  0.77389426003E+02  0.11302937290E+02  0.43658666385E+02  0.89694196017E+02  0.47000000000E+01 0.  1.
         11    1    6    6    0    0 -0.19614767059E+02  0.31543411015E+02 -0.17451863682E+02  0.41040143898E+02  0.00000000000E+00 0. -1.
        -12    1    6    6    0    0  0.27100785770E+02  0.11219817735E+03  0.42890183841E+02  0.12313590647E+03  0.00000000000E+00 0.  1.
</event>
<event>
12    1  0.8344842E-002  0.1984718E+03  0.7818608E-02  0.1152372E+00
         21   -1    0    0  501  502  0.00000000000E+00  0.00000000000E+00  0.47888363066E+03  0.47888363066E+03  0.00000000000E+00 0.  1.
         21   -1    0    0  502  503 -0.00000000000E+00 -0.00000000000E+00 -0.79892315375E+02  0.79892315375E+02  0.00000000000E+00 0. -1.
         -6    2    1    2    0  503 -0.80627964198E+02  0.29468816058E+02  0.18963001418E+03  0.27450063241E+03  0.17894629135E+03 0.  0.
        -24    2    3    3    0    0  0.87942816618E+01  0.47367867942E+02  0.45521613099E+02  0.10389572224E+03  0.80006559341E+02 0.  0.
          6    2    1    2  501    0  0.80627964198E+02 -0.29468816058E+02  0.20936130110E+03  0.28427531362E+03  0.17207852801E+03 0.  0.
         24    2    5    5    0    0  0.11926444317E+03 -0.47244832554E+01  0.14516236543E+03  0.20522689267E+03  0.82459911424E+02 0.  0.
          5    1    5    5  501    0 -0.38636478968E+02 -0.24744332802E+02  0.64198935673E+02  0.79048420949E+02  0.47000000000E+01 0. -1.
        -13    1    6    6    0    0  0.48323900264E+02 -0.38592691044E+02  0.89972904314E+02  0.10917746402E+03  0.00000000000E+00 0.  1.
         14    1    6    6    0    0  0.70940542902E+02  0.33868207788E+02  0.55189461113E+02  0.96049428650E+02  0.00000000000E+00 0. -1.
         -5    1    3    3    0  503 -0.89422245860E+02 -0.17899051884E+02  0.14410840108E+03  0.17060491017E+03  0.47000000000E+01 0.  1.
         11    1    4    4    0    0 -0.26581116525E+02  0.93158669801E+01 -0.80237428842E+01  0.29286884149E+02  0.00000000000E+00 0. -1.
        -12    1    4    4    0    0  0.35375398187E+02  0.38052000962E+02  0.53545355983E+02  0.74608838092E+02  0.00000000000E+00 0.  1.
</event>
<event>
12    1  0.8344842E-002  0.1842380E+03  0.7818608E-02  0.1163875E+00
         21   -1    0    0  501  502  0.00000000000E+00  0.00000000000E+00  0.25767565159E+04  0.25767565159E+04  0.00000000000E+00 0.  1.
         21   -1    0    0  502  503 -0.00000000000E+00 -0.00000000000E+00 -0.13139039665E+02  0.13139039665E+02  0.00000000000E+00 0.  1.
         -6    2    1    2    0  503 -0.58608373404E+02 -0.30742014894E+02  0.12819242462E+04  0.12950283073E+04  0.17143083386E+03 0.  0.
        -24    2    3    3    0    0 -0.13039562646E+02 -0.72466109453E+02  0.55280349835E+03  0.56327932608E+03  0.79186641421E+02 0.  0.
          6    2    1    2  501    0  0.58608373404E+02  0.30742014894E+02  0.12816932301E+04  0.12948672483E+04  0.17194080900E+03 0.  0.
         24    2    5    5    0    0 -0.29068453873E+02  0.20587170458E+02  0.83256302429E+03  0.83712236449E+03  0.79648334087E+02 0.  0.
          5    1    5    5  501    0  0.87676827277E+02  0.10154844436E+02  0.44913020577E+03  0.45774488380E+03  0.47000000000E+01 0. -1.
        -11    1    6    6    0    0 -0.87819021791E+01 -0.55525168911E+01  0.71271267381E+03  0.71278840314E+03  0.00000000000E+00 0.  1.
         12    1    6    6    0    0 -0.20286551694E+02  0.26139687349E+02  0.11985035048E+03  0.12433396135E+03  0.00000000000E+00 0. -1.
         -5    1    3    3    0  503 -0.45568810758E+02  0.41724094559E+02  0.72912074780E+03  0.73174898118E+03  0.47000000000E+01 0.  1.
         13    1    4    4    0    0  0.36235708542E+01 -0.23345860614E+02  0.42062146026E+03  0.42128443159E+03  0.00000000000E+00 0. -1.
        -14    1    4    4    0    0 -0.16663133500E+02 -0.49120248838E+02  0.13218203810E+03  0.14199489448E+03  0.00000000000E+00 0.  1.
</event>
<event>
12    1  0.8344842E-002  0.2147588E+03  0.7818608E-02  0.1137960E+00
         21   -1    0    0  501  502  0.00000000000E+00  0.00000000000E+00  0.85401252459E+02  0.85401252459E+02  0.00000000000E+00 0.  1.
         21   -1    0    0  502  503 -0.00000000000E+00 -0.00000000000E+00 -0.57789412029E+03  0.57789412029E+03  0.00000000000E+00 0.  1.
         -6    2    1    2    0  503  0.86829264264E+02  0.94872450507E+02 -0.15951806413E+03  0.26707125315E+03  0.17129196851E+03 0.  0.
        -24    2    3    3    0    0  0.41943140556E+01  0.10394705593E+03 -0.13928741479E+03  0.18138430763E+03  0.51736838236E+02 0.  0.
          6    2    1    2  501    0 -0.86829264264E+02 -0.94872450507E+02 -0.33297480370E+03  0.39622411960E+03  0.17199194765E+03 0.  0.
         24    2    5    5    0    0 -0.51704352025E+02 -0.10739375028E+03 -0.14581846364E+03  0.20533114426E+03  0.81799124985E+02 0.  0.
          5    1    5    5  501    0 -0.35124912238E+02  0.12521299776E+02 -0.18715634006E+03  0.19089297534E+03  0.47000000000E+01 0. -1.
        -13    1    6    6    0    0 -0.45881343330E+02 -0.12117087536E+03 -0.13211769944E+03  0.18504746744E+03  0.00000000000E+00 0.  1.
         14    1    6    6    0    0 -0.58230086955E+01  0.13777125079E+02 -0.13700764202E+02  0.20283676822E+02  0.00000000000E+00 0. -1.
         -5    1    3    3    0  503  0.82634950208E+02 -0.90746054211E+01 -0.20230649348E+02  0.85686945519E+02  0.47000000000E+01 0.  1.
         11    1    4    4    0    0  0.24665893077E+02  0.45469540650E+02 -0.45004328772E+02  0.68565844386E+02  0.00000000000E+00 0. -1.
        -12    1    4    4    0    0 -0.20471579021E+02  0.58477515279E+02 -0.94283086014E+02  0.11281846325E+03  0.00000000000E+00 0.  1.
</event>
<event>
12    1  0.8344842E-002  0.2473104E+03  0.7818608E-02  0.1117451E+00
         21   -1    0    0  503  502  0.00000000000E+00  0.00000000000E+00  0.52692749021E+03  0.52692749021E+03  0.00000000000E+00 0.  1.
         21   -1    0    0  501  503 -0.00000000000E+00 -0.00000000000E+00 -0.22864597875E+03  0.22864597875E+03  0.00000000000E+00 0.  1.
          6    2    1    2  501    0 -0.15008681270E+03  0.44934693457E+02 -0.12595162581E+03  0.26451726335E+03  0.17193135996E+03 0.  0.
         24    2    3    3    0    0 -0.16667551595E+03  0.43282284322E+02 -0.14466540230E+03  0.23901802881E+03  0.80916350149E+02 0.  0.
         -6    2    1    2    0  502  0.15008681270E+03 -0.44934693457E+02  0.42423313727E+03  0.49105620562E+03  0.19135638034E+03 0.  0.
        -24    2    5    5    0    0  0.16311077294E+03 -0.84834628734E+02  0.35700404740E+03  0.41166181728E+03  0.90617456716E+02 0.  0.
          5    1    3    3  501    0  0.16588703249E+02  0.16524091358E+01  0.18713776484E+02  0.25499234532E+02  0.47000000000E+01 0. -1.
        -13    1    4    4    0    0 -0.31471003844E+01  0.86564259062E+01 -0.41679646052E+02  0.42685253254E+02  0.00000000000E+00 0.  1.
         14    1    4    4    0    0 -0.16352841557E+03  0.34625858415E+02 -0.10298575625E+03  0.19633277556E+03  0.00000000000E+00 0. -1.
         -5    1    5    5    0  502 -0.13023960238E+02  0.39899935277E+02  0.67229089871E+02  0.79394388342E+02  0.47000000000E+01 0.  1.
         13    1    6    6    0    0  0.82249113209E+02 -0.80968001512E+01  0.89307148420E+02  0.12168090054E+03  0.00000000000E+00 0. -1.
        -14    1    6    6    0    0  0.80861659733E+02 -0.76737828583E+02  0.26769689898E+03  0.28998091674E+03  0.00000000000E+00 0.  1.
</event>
<event>
12    1  0.8344842E-002  0.2153027E+03  0.7818608E-02  0.1137477E+00
         21   -1    0    0  503  502  0.00000000000E+00  0.00000000000E+00  0.38772379189E+02  0.38772379189E+02  0.00000000000E+00 0. -1.
         21   -1    0    0  501  503 -0.00000000000E+00 -0.00000000000E+00 -0.13920167803E+04  0.13920167803E+04  0.00000000000E+00 0. -1.
          6    2    1    2  501    0  0.69193267843E+02 -0.10868931138E+03 -0.94591047485E+03  0.97005478345E+03  0.17221667092E+03 0.  0.
         24    2    3    3    0    0 -0.90741266667E+01 -0.96189147220E+02 -0.63688362264E+03  0.65099095828E+03  0.93988228805E+02 0.  0.
         -6    2    1    2    0  502 -0.69193267843E+02  0.10868931138E+03 -0.40733392626E+03  0.46073437604E+03  0.17249395078E+03 0.  0.
        -24    2    5    5    0    0 -0.48539690831E+02  0.62934175819E+02 -0.39227911838E+03  0.40811460871E+03  0.79735908161E+02 0.  0.
          5    1    3    3  501    0  0.78267394510E+02 -0.12500164159E+02 -0.30902685220E+03  0.31906382517E+03  0.47000000000E+01 0. -1.
        -13    1    4    4    0    0  0.24864461085E+02 -0.38400464693E+02 -0.10032339322E+03  0.11026159957E+03  0.00000000000E+00 0.  1.
         14    1    4    4    0    0 -0.33938587752E+02 -0.57788682526E+02 -0.53656022942E+03  0.54072935871E+03  0.00000000000E+00 0. -1.
         -5    1    5    5    0  502 -0.20653577012E+02  0.45755135560E+02 -0.15054807878E+02  0.52619767329E+02  0.47000000000E+01 0.  1.
         13    1    6    6    0    0 -0.28499819353E+02 -0.14886667855E+02 -0.10577998508E+03  0.11055884328E+03  0.00000000000E+00 0. -1.
        -14    1    6    6    0    0 -0.20039871478E+02  0.77820843674E+02 -0.28649913330E+03  0.29755576543E+03  0.00000000000E+00 0.  1.
</event>
<event>
12    1  0.8344842E-002  0.2792490E+03  0.7818608E-02  0.1096522E+00
         21   -1    0    0  501  502  0.00000000000E+00  0.00000000000E+00  0.66261416568E+03  0.66261416568E+03  0.00000000000E+00 0.  1.
         21   -1    0    0  502  503 -0.00000000000E+00 -0.00000000000E+00 -0.11653668578E+03  0.11653668578E+03  0.00000000000E+00 0.  1.
         -6    2    1    2    0  503  0.14240157887E+03  0.16266729962E+03  0.28796174304E+03  0.40112586583E+03  0.17675161881E+03 0.  0.
        -24    2    3    3    0    0  0.80853449803E+02  0.10834267850E+02  0.98147960703E+02  0.15034148893E+03  0.79466215463E+02 0.  0.
          6    2    1    2  501    0 -0.14240157887E+03 -0.16266729962E+03  0.25811573686E+03  0.37802498563E+03  0.17187290686E+03 0.  0.
         24    2    5    5    0    0 -0.97986283770E+02 -0.30254487489E+02  0.81917986633E+02  0.15313921809E+03  0.78894979323E+02 0.  0.
          5    1    5    5  501    0 -0.44415295102E+02 -0.13241281213E+03  0.17619775023E+03  0.22488576754E+03  0.47000000000E+01 0. -1.
        -13    1    6    6    0    0 -0.67554898991E+02 -0.28846630464E+02  0.94914369688E+02  0.12001887368E+03  0.00000000000E+00 0.  1.
         14    1    6    6    0    0 -0.30431384779E+02 -0.14078570246E+01 -0.12996383056E+02  0.33120344405E+02  0.00000000000E+00 0. -1.
         -5    1    3    3    0  503  0.61548129069E+02  0.15183303177E+03  0.18981378234E+03  0.25078437689E+03  0.47000000000E+01 0.  1.
         11    1    4    4    0    0 -0.48603873619E+01 -0.69508608634E+01 -0.87416843966E+01  0.12180101729E+02  0.00000000000E+00 0. -1.
        -12    1    4    4    0    0  0.85713837165E+02  0.17785128714E+02  0.10688964510E+03  0.13816138720E+03  0.00000000000E+00 0.  1.
</event>
<event>
12    1  0.8344842E-002  0.2542328E+03  0.7818608E-02  0.1112189E+00
         21   -1    0    0  503  502  0.00000000000E+00  0.00000000000E+00  0.20080183696E+03  0.20080183696E+03  0.00000000000E+00 0. -1.
         21   -1    0    0  501  503 -0.00000000000E+00 -0.00000000000E+00 -0.13563223564E+04  0.13563223564E+04  0.00000000000E+00 0.  1.
          6    2    1    2  501    0  0.13900820771E+03 -0.10388204639E+03 -0.12590811432E+04  0.12826079929E+04  0.17228806345E+03 0.  0.
         24    2    3    3    0    0  0.15062957325E+03 -0.44599941394E+02 -0.78538530009E+03  0.80505248206E+03  0.81246576340E+02 0.  0.
         -6    2    1    2    0  502 -0.13900820771E+03  0.10388204639E+03  0.10356062372E+03  0.27451620054E+03  0.18579445687E+03 0.  0.
        -24    2    5    5    0    0 -0.63580051469E+02  0.29952094884E+02 -0.10755799441E+00  0.12644788393E+03  0.10511662499E+03 0.  0.
          5    1    3    3  501    0 -0.11621365547E+02 -0.59282104992E+02 -0.47369584311E+03  0.47755551080E+03  0.47000000000E+01 0. -1.
        -13    1    4    4    0    0  0.37302319792E+02 -0.78691945178E+01 -0.39651134916E+03  0.39833985151E+03  0.00000000000E+00 0.  1.
         14    1    4    4    0    0  0.11332725346E+03 -0.36730746876E+02 -0.38887395093E+03  0.40671263056E+03  0.00000000000E+00 0. -1.
         -5    1    5    5    0  502 -0.75428156238E+02  0.73929951503E+02  0.10366818172E+03  0.14806831661E+03  0.47000000000E+01 0.  1.
         11    1    6    6    0    0 -0.68551413087E+02 -0.21724909925E+02  0.12582078223E+02  0.73003949482E+02  0.00000000000E+00 0. -1.
        -12    1    6    6    0    0  0.49713616179E+01  0.51677004809E+02 -0.12689636218E+02  0.53443934452E+02  0.00000000000E+00 0.  1.
</event>
<event>
12    1  0.8344842E-002  0.1919636E+03  0.7818608E-02  0.1157558E+00
         21   -1    0    0  501  502  0.00000000000E+00  0.00000000000E+00  0.33956672575E+02  0.33956672575E+02  0.00000000000E+00 0.  1.
         21   -1    0    0  502  503 -0.00000000000E+00 -0.00000000000E+00 -0.18350953762E+04  0.18350953762E+04  0.00000000000E+00 0.  1.
         -6    2    1    2    0  503 -0.25787979712E+02 -0.71831134108E+02 -0.15011838773E+04  0.15129299728E+04  0.17198644551E+03 0.  0.
        -24    2    3    3    0    0 -0.74345677099E+02 -0.82219421163E+02 -0.96760910809E+03  0.97702896440E+03  0.77658858402E+02 0.  0.
          6    2    1    2  501    0  0.25787979712E+02  0.71831134108E+02 -0.29995482635E+03  0.35612207599E+03  0.17614001087E+03 0.  0.
         24    2    5    5    0    0 -0.36559193983E+02  0.27270885982E+02 -0.69774474764E+02  0.11347445074E+03  0.76991543406E+02 0.  0.
          5    1    5    5  501    0  0.62347173695E+02  0.44560248126E+02 -0.23018035158E+03  0.24264762524E+03  0.47000000000E+01 0. -1.
        -11    1    6    6    0    0 -0.34260227800E+02  0.46712118450E+02 -0.73460926777E+02  0.93553690371E+02  0.00000000000E+00 0.  1.
         12    1    6    6    0    0 -0.22989661831E+01 -0.19441232468E+02  0.36864520132E+01  0.19920760373E+02  0.00000000000E+00 0. -1.
         -5    1    3    3    0  503  0.48557697388E+02  0.10388287054E+02 -0.53357476920E+03  0.53590100841E+03  0.47000000000E+01 0.  1.
         13    1    4    4    0    0 -0.31207388672E+02  0.36344683136E+01 -0.12207558254E+03  0.12605379138E+03  0.00000000000E+00 0. -1.
        -14    1    4    4    0    0 -0.43138288427E+02 -0.85853889476E+02 -0.84553352555E+03  0.85097517302E+03  0.00000000000E+00 0.  1.
</event>
<event>
12    1  0.8344842E-002  0.2078996E+03  0.7818608E-02  0.1143647E+00
         21   -1    0    0  501  502  0.00000000000E+00  0.00000000000E+00  0.24889217770E+03  0.24889217770E+03  0.00000000000E+00 0.  1.
         21   -1    0    0  502  503 -0.00000000000E+00 -0.00000000000E+00 -0.54364295400E+03  0.54364295400E+03  0.00000000000E+00 0.  1.
         -6    2    1    2    0  503  0.11296252923E+03  0.48963900862E+01 -0.47524973646E+03  0.51873361500E+03  0.17446416158E+03 0.  0.
        -24    2    3    3    0    0  0.17059666774E+01 -0.14951482629E+02 -0.26313078792E+03  0.27834122932E+03  0.89496207913E+02 0.  0.
          6    2    1    2  501    0 -0.11296252923E+03 -0.48963900862E+01  0.18049896016E+03  0.27380151670E+03  0.17205489903E+03 0.  0.
         24    2    5    5    0    0 -0.14490517490E+03 -0.22337359792E+02  0.15836559686E+03  0.23094716093E+03  0.82222025757E+02 0.  0.
          5    1    5    5  501    0  0.31942645670E+02  0.17440969706E+02  0.22133363305E+02  0.42854355763E+02  0.47000000000E+01 0. -1.
        -13    1    6    6    0    0 -0.66318738069E+02 -0.43556125401E+02  0.44476480306E+02  0.90958608056E+02  0.00000000000E+00 0.  1.
         14    1    6    6    0    0 -0.78586436832E+02  0.21218765609E+02  0.11388911655E+03  0.13998855288E+03  0.00000000000E+00 0. -1.
         -5    1    3    3    0  503  0.11125656255E+03  0.19847872715E+02 -0.21211894854E+03  0.24039238568E+03  0.47000000000E+01 0.  1.
         13    1    4    4    0    0 -0.13522369268E+02  0.13973481013E+02 -0.78399871307E+01  0.20966116485E+02  0.00000000000E+00 0. -1.
        -14    1    4    4    0    0  0.15228335945E+02 -0.28924963642E+02 -0.25529080079E+03  0.25737511283E+03  0.00000000000E+00 0.  1.
</event>
<event>
12    1  0.8344842E-002  0.1912055E+03  0.7818608E-02  0.1158380E+00
         21   -1    0    0  503  502  0.00000000000E+00  0.00000000000E+00  0.13534482408E+03  0.13534482408E+03  0.00000000000E+00 0.  1.
         21   -1    0    0  501  503 -0.00000000000E+00 -0.00000000000E+00 -0.26391839489E+03  0.26391839489E+03  0.00000000000E+00 0. -1.
          6    2    1    2  501    0 -0.23062239498E+01 -0.80660615313E+02 -0.62378941659E+02  0.19692370439E+03  0.16845284045E+03 0.  0.
         24    2    3    3    0    0  0.62353462941E+02 -0.60558358216E+02 -0.39803413922E+02  0.12539245037E+03  0.81139914713E+02 0.  0.
         -6    2    1    2    0  502  0.23062239498E+01  0.80660615313E+02 -0.66194629149E+02  0.20233951458E+03  0.17334386837E+03 0.  0.
        -24    2    5    5    0    0 -0.72445738578E+01  0.74581904343E+02 -0.11046781675E+03  0.15640071174E+03  0.81505213264E+02 0.  0.
          5    1    3    3  501    0 -0.64659686891E+02 -0.20102257097E+02 -0.22575527738E+02  0.71531254021E+02  0.47000000000E+01 0. -1.
        -11    1    4    4    0    0 -0.10917631618E+02  0.10024918198E+02 -0.14100590389E+02  0.20457769046E+02  0.00000000000E+00 0.  1.
         12    1    4    4    0    0  0.73271094559E+02 -0.70583276414E+02 -0.25702823532E+02  0.10493468132E+03  0.00000000000E+00 0. -1.
         -5    1    5    5    0  502  0.95507978076E+01  0.60787109697E+01  0.44273187603E+02  0.45938802839E+02  0.47000000000E+01 0.  1.
         13    1    6    6    0    0 -0.10105705859E+02  0.78741889769E+02 -0.46033114355E+02  0.91768502835E+02  0.00000000000E+00 0. -1.
        -14    1    6    6    0    0  0.28611320017E+01 -0.41599854260E+01 -0.64434702396E+02  0.64632208905E+02  0.00000000000E+00 0.  1.
</event>
<event>
12    1  0.8344842E-002  0.1767889E+03  0.7818608E-02  0.1171619E+00
         21   -1    0    0  501  502  0.00000000000E+00  0.00000000000E+00  0.10645384665E+04  0.10645384665E+04  0.00000000000E+00 0. -1.
         21   -1    0    0  502  503 -0.00000000000E+00 -0.00000000000E+00 -0.37479627819E+02  0.37479627819E+02  0.00000000000E+00 0. -1.
         -6    2    1    2    0  503  0.28809599095E+01 -0.31173604854E+02  0.25316829091E+03  0.30878552718E+03  0.17399489849E+03 0.  0.
        -24    2    3    3    0    0 -0.24645049352E+02 -0.59666153181E+02  0.24974306380E+03  0.26874394033E+03  0.75394159309E+02 0.  0.
          6    2    1    2  501    0 -0.28809599095E+01  0.31173604854E+02  0.77389054782E+03  0.79323256719E+03  0.17126363326E+03 0.  0.
         24    2    5    5    0    0  0.14333885491E+02  0.84343655919E+02  0.47190458950E+03  0.48608274340E+03  0.79140250651E+02 0.  0.
          5    1    5    5  501    0 -0.17214845401E+02 -0.53170051065E+02  0.30198595832E+03  0.30714982379E+03  0.47000000000E+01 0. -1.
        -11    1    6    6    0    0 -0.18339546285E+02 -0.63957809488E+01  0.61274432107E+02  0.64279086816E+02  0.00000000000E+00 0.  1.
         12    1    6    6    0    0  0.32673431776E+02  0.90739436868E+02  0.41063015739E+03  0.42180365658E+03  0.00000000000E+00 0. -1.
         -5    1    3    3    0  503  0.27526009262E+02  0.28492548327E+02  0.34252271118E+01  0.40041586842E+02  0.47000000000E+01 0.  1.
         11    1    4    4    0    0 -0.31109526439E+01 -0.49710987578E+02  0.23626638542E+03  0.24145944834E+03  0.00000000000E+00 0. -1.
        -12    1    4    4    0    0 -0.21534096708E+02 -0.99551656026E+01  0.13476678373E+02  0.27284491991E+02  0.00000000000E+00 0.  1.
</event>
<event>
12    1  0.8344842E-002  0.2294872E+03  0.7818608E-02  0.1127042E+00
         21   -1    0    0  501  502  0.00000000000E+00  0.00000000000E+00  0.58104802588E+03  0.58104802588E+03  0.00000000000E+00 0.  1.
         21   -1    0    0  502  503 -0.00000000000E+00 -0.00000000000E+00 -0.21846795757E+03  0.21846795757E+03  0.00000000000E+00 0.  1.
         -6    2    1    2    0  503  0.13087884877E+03  0.76127833368E+02 -0.12456959279E+03  0.26111677020E+03  0.17245191841E+03 0.  0.
        -24    2    3    3    0    0  0.78761587839E+02  0.43464028774E+01 -0.12900757728E+03  0.17217539425E+03  0.82335487183E+02 0.  0.
          6    2    1    2  501    0 -0.13087884877E+03 -0.76127833368E+02  0.48714966109E+03  0.53839921324E+03  0.17214586967E+03 0.  0.
         24    2    5    5    0    0 -0.98996857688E+02  0.23257514821E+01  0.38591921518E+03  0.40633438253E+03  0.79801020213E+02 0.  0.
          5    1    5    5  501    0 -0.31881991083E+02 -0.78453584850E+02  0.10123044591E+03  0.13206483071E+03  0.47000000000E+01 0. -1.
        -11    1    6    6    0    0 -0.21446571426E+02 -0.33948586857E+02  0.96604680993E+02  0.10461800211E+03  0.00000000000E+00 0.  1.
         12    1    6    6    0    0 -0.77550286262E+02  0.36274338339E+02  0.28931453419E+03  0.30171638042E+03  0.00000000000E+00 0. -1.
         -5    1    3    3    0  503  0.52117260932E+02  0.71781430491E+02  0.44379844992E+01  0.88941375955E+02  0.47000000000E+01 0.  1.
         11    1    4    4    0    0  0.12859777163E+02 -0.33812724457E+02 -0.28371862330E+02  0.45974305606E+02  0.00000000000E+00 0. -1.
        -12    1    4    4    0    0  0.65901810676E+02  0.38159127334E+02 -0.10063571495E+03  0.12620108864E+03  0.00000000000E+00 0.  1.
</event>
<event>
12    1  0.8344842E-002  0.3067619E+03  0.7818608E-02  0.1082474E+00
         21   -1    0    0  501  502  0.00000000000E+00  0.00000000000E+00  0.36554053536E+03  0.36554053536E+03  0.00000000000E+00 0. -1.
         21   -1    0    0  502  503 -0.00000000000E+00 -0.00000000000E+00 -0.34770518423E+03  0.34770518423E+03  0.00000000000E+00 0. -1.
         -6    2    1    2    0  503 -0.79949696825E+01  0.24801991155E+03 -0.17668459754E+03  0.35000907914E+03  0.17236911674E+03 0.  0.
        -24    2    3    3    0    0 -0.29724165630E+02  0.18598214337E+03 -0.55453650558E+02  0.21202402508E+03  0.80038716739E+02 0.  0.
          6    2    1    2  501    0  0.79949696825E+01 -0.24801991155E+03  0.19451994866E+03  0.36323664045E+03  0.18034702791E+03 0.  0.
         24    2    5    5    0    0  0.20393427003E+02 -0.50865381826E+02  0.11184076880E+03  0.14903681058E+03  0.81856181255E+02 0.  0.
          5    1    5    5  501    0 -0.12398457320E+02 -0.19715452972E+03  0.82679179857E+02  0.21419982987E+03  0.47000000000E+01 0. -1.
        -13    1    6    6    0    0 -0.18250223130E+02 -0.21703004311E+02  0.92763936159E+02  0.97001231395E+02  0.00000000000E+00 0.  1.
         14    1    6    6    0    0  0.38643650133E+02 -0.29162377515E+02  0.19076832643E+02  0.52035579190E+02  0.00000000000E+00 0. -1.
         -5    1    3    3    0  503  0.21729195947E+02  0.62037768179E+02 -0.12123094698E+03  0.13798505405E+03  0.47000000000E+01 0.  1.
         13    1    4    4    0    0  0.99272449404E+00  0.14004432932E+03 -0.67498573363E+02  0.15546529221E+03  0.00000000000E+00 0. -1.
        -14    1    4    4    0    0 -0.30716890124E+02  0.45937814048E+02  0.12044922804E+02  0.56558732869E+02  0.00000000000E+00 0.  1.
</event>
<event>
12    1  0.8344842E-002  0.1890831E+03  0.7818608E-02  0.1162018E+00
         21   -1    0    0  501  502  0.00000000000E+00  0.00000000000E+00  0.13376637765E+03  0.13376637765E+03  0.00000000000E+00 0. -1.
         21   -1    0    0  502  503 -0.00000000000E+00 -0.00000000000E+00 -0.59995525682E+03  0.59995525682E+03  0.00000000000E+00 0. -1.
         -6    2    1    2    0  503 -0.33192190191E+02  0.21626702569E+02 -0.50968725455E+03  0.53969962610E+03  0.17298888175E+03 0.  0.
        -24    2    3    3    0    0 -0.72248779713E+02 -0.24686210832E+02 -0.39022955977E+03  0.40567524782E+03  0.80399018623E+02 0.  0.
          6    2    1    2  501    0  0.33192190191E+02 -0.21626702569E+02  0.43498375379E+02  0.19402200838E+03  0.18488643898E+03 0.  0.
         24    2    5    5    0    0  0.30888687622E+01 -0.83080029581E+02  0.49846077619E+02  0.12513728811E+03  0.79138340877E+02 0.  0.
          5    1    5    5  501    0  0.30103321429E+02  0.61453327012E+02 -0.63477022400E+01  0.68884720263E+02  0.47000000000E+01 0. -1.
        -13    1    6    6    0    0  0.84081268443E+01 -0.14012871491E+02 -0.20629133901E+02  0.26317642941E+02  0.00000000000E+00 0.  1.
         14    1    6    6    0    0 -0.53192580820E+01 -0.69067158090E+02  0.70475211519E+02  0.98819645172E+02  0.00000000000E+00 0. -1.
         -5    1    3    3    0  503  0.39056589522E+02  0.46312913401E+02 -0.11945769478E+03  0.13402437828E+03  0.47000000000E+01 0.  1.
         13    1    4    4    0    0 -0.74767798378E+02 -0.42807454414E+02 -0.25380214234E+03  0.26802654586E+03  0.00000000000E+00 0. -1.
        -14    1    4    4    0    0  0.25190186646E+01  0.18121243581E+02 -0.13642741743E+03  0.13764870196E+03  0.00000000000E+00 0.  1.
</event>
<event>
12    1  0.8344842E-002  0.3212121E+03  0.7818608E-02  0.1075126E+00
         21   -1    0    0  501  502  0.00000000000E+00  0.00000000000E+00  0.20278473999E+03  0.20278473999E+03  0.00000000000E+00 0.  1.
         21   -1    0    0  502  503 -0.00000000000E+00 -0.00000000000E+00 -0.54791113006E+03  0.54791113006E+03  0.00000000000E+00 0. -1.
         -6    2    1    2    0  503  0.26367121389E+03 -0.63062491915E+02 -0.27335936593E+03  0.42156409175E+03  0.17173105016E+03 0.  0.
        -24    2    3    3    0    0  0.45394885987E+02 -0.33155363797E+02 -0.10462626029E+03  0.14401780269E+03  0.81452435970E+02 0.  0.
          6    2    1    2  501    0 -0.26367121389E+03  0.63062491915E+02 -0.71767024127E+02  0.32913177830E+03  0.17227255966E+03 0.  0.
         24    2    5    5    0    0 -0.21556100926E+03  0.58731113354E+02  0.59451729658E+01  0.23750957462E+03  0.80371391457E+02 0.  0.
          5    1    5    5  501    0 -0.48110204631E+02  0.43313785611E+01 -0.77712197093E+02  0.91622203678E+02  0.47000000000E+01 0. -1.
        -13    1    6    6    0    0 -0.76048275766E+02  0.33820190922E+02  0.39111388580E+02  0.91961112855E+02  0.00000000000E+00 0.  1.
         14    1    6    6    0    0 -0.13951273349E+03  0.24910922432E+02 -0.33166215614E+02  0.14554846176E+03  0.00000000000E+00 0. -1.
         -5    1    3    3    0  503  0.21827632790E+03 -0.29907128118E+02 -0.16873310564E+03  0.27754628907E+03  0.47000000000E+01 0.  1.
         13    1    4    4    0    0  0.52832813746E+02  0.92879670558E+01 -0.72891912533E+02  0.90503057700E+02  0.00000000000E+00 0. -1.
        -14    1    4    4    0    0 -0.74379277591E+01 -0.42443330852E+02 -0.31734347760E+02  0.53514744986E+02  0.00000000000E+00 0.  1.
</event>
<event>
12    1  0.8344842E-002  0.2124013E+03  0.7818608E-02  0.1139889E+00
         21   -1    0    0  503  502  0.00000000000E+00  0.00000000000E+00  0.28511460490E+03  0.28511460490E+03  0.00000000000E+00 0.  1.
         21   -1    0    0  501  503 -0.00000000000E+00 -0.00000000000E+00 -0.18715063560E+03  0.18715063560E+03  0.00000000000E+00 0. -1.
          6    2    1    2  501    0 -0.41515919476E+02 -0.11598024917E+03  0.14318150541E+03  0.25615475163E+03  0.17302983421E+03 0.  0.
         24    2    3    3    0    0 -0.49435873302E+02 -0.62735112589E+02  0.11401650138E+02  0.11372655747E+03  0.80150685132E+02 0.  0.
         -6    2    1    2    0  502  0.41515919476E+02  0.11598024917E+03 -0.45217536104E+02  0.21611048886E+03  0.17170942915E+03 0.  0.
        -24    2    5    5    0    0  0.46108934232E+02  0.23120931257E+02  0.28009964779E+02  0.97669340637E+02  0.78064913343E+02 0.  0.
          5    1    3    3  501    0  0.79199538256E+01 -0.53245136582E+02  0.13177985527E+03  0.14242819416E+03  0.47000000000E+01 0. -1.
        -13    1    4    4    0    0  0.40481681986E+01 -0.46052630270E+02  0.29511725434E+02  0.54846826332E+02  0.00000000000E+00 0.  1.
         14    1    4    4    0    0 -0.53484041500E+02 -0.16682482318E+02 -0.18110075296E+02  0.58879731137E+02  0.00000000000E+00 0. -1.
         -5    1    5    5    0  502 -0.45930147555E+01  0.92859317913E+02 -0.73227500883E+02  0.11844114823E+03  0.47000000000E+01 0.  1.
         13    1    6    6    0    0  0.30693061062E+02 -0.21089660178E+02  0.34049834549E+02  0.50460172380E+02  0.00000000000E+00 0. -1.
        -14    1    6    6    0    0  0.15415873169E+02  0.44210591435E+02 -0.60398697705E+01  0.47209168256E+02  0.00000000000E+00 0.  1.
</event>
<event>
12    1  0.8344842E-002  0.1952098E+03  0.7818608E-02  0.1154401E+00
         21   -1    0    0  501  502  0.00000000000E+00  0.00000000000E+00  0.78107025033E+02  0.78107025033E+02  0.00000000000E+00 0. -1.
         21   -1    0    0  502  503 -0.00000000000E+00 -0.00000000000E+00 -0.65657254183E+03  0.65657254183E+03  0.00000000000E+00 0. -1.
         -6    2    1    2    0  503  0.73868510205E+02 -0.27523714609E+02 -0.48027664094E+03  0.51843276111E+03  0.17858545375E+03 0.  0.
        -24    2    3    3    0    0  0.10475599190E+03 -0.27693040865E+01 -0.22981984439E+03  0.26482378196E+03  0.79580071212E+02 0.  0.
          6    2    1    2  501    0 -0.73868510205E+02  0.27523714609E+02 -0.98188875860E+02  0.21624680576E+03  0.17580532982E+03 0.  0.
         24    2    5    5    0    0 -0.82539501665E+02 -0.33071945355E+02 -0.98976024316E+02  0.15484868118E+03  0.79217029530E+02 0.  0.
          5    1    5    5  501    0  0.86709914596E+01  0.60595659965E+02  0.78714845662E+00  0.61398124582E+02  0.47000000000E+01 0. -1.
        -11    1    6    6    0    0  0.13757803636E+02 -0.14120582134E+02 -0.88848230811E+01  0.21624247544E+02  0.00000000000E+00 0.  1.
         12    1    6    6    0    0 -0.96297305301E+02 -0.18951363221E+02 -0.90091201235E+02  0.13322443363E+03  0.00000000000E+00 0. -1.
         -5    1    3    3    0  503 -0.30887481690E+02 -0.24754410523E+02 -0.25045679655E+03  0.25360897915E+03  0.47000000000E+01 0.  1.
         11    1    4    4    0    0  0.31219544972E+02  0.18319144105E+02 -0.19699877080E+02  0.41210874608E+02  0.00000000000E+00 0. -1.
        -12    1    4    4    0    0  0.73536446924E+02 -0.21088448191E+02 -0.21011996731E+03  0.22361290735E+03  0.00000000000E+00 0.  1.
</event>
<event>
12    1  0.8344842E-002  0.1831510E+03  0.7818608E-02  0.1165581E+00
         21   -1    0    0  503  502  0.00000000000E+00  0.00000000000E+00  0.30742297250E+03  0.30742297250E+03  0.00000000000E+00 0. -1.
         21   -1    0    0  501  503 -0.00000000000E+00 -0.00000000000E+00 -0.12129930222E+03  0.12129930222E+03  0.00000000000E+00 0. -1.
          6    2    1    2  501    0  0.49500298910E+02 -0.25915591326E+01  0.19086914861E+02  0.18084014799E+03  0.17286368339E+03 0.  0.
         24    2    3    3    0    0 -0.23506917900E+02 -0.31914433537E+02  0.51468154841E+02  0.95631466672E+02  0.70180483028E+02 0.  0.
         -6    2    1    2    0  502 -0.49500298910E+02  0.25915591326E+01  0.16703675542E+03  0.24788212674E+03  0.17631583968E+03 0.  0.
        -24    2    5    5    0    0  0.80994421238E+01 -0.57662410217E+02  0.93517810655E+02  0.13663736853E+03  0.80830904075E+02 0.  0.
          5    1    3    3  501    0  0.73007216809E+02  0.29322874405E+02 -0.32381239979E+02  0.85208681320E+02  0.47000000000E+01 0. -1.
        -11    1    4    4    0    0 -0.11040398962E+01  0.21833261220E+02  0.18985491713E+02  0.28954431357E+02  0.00000000000E+00 0.  1.
         12    1    4    4    0    0 -0.22402878004E+02 -0.53747694758E+02  0.32482663128E+02  0.66677035316E+02  0.00000000000E+00 0. -1.
         -5    1    5    5    0  502 -0.57599741033E+02  0.60253969350E+02  0.73518944764E+02  0.11124475821E+03  0.47000000000E+01 0.  1.
         13    1    6    6    0    0 -0.15257921452E+02  0.12003701119E+02  0.43828923347E+02  0.47936077534E+02  0.00000000000E+00 0. -1.
        -14    1    6    6    0    0  0.23357363576E+02 -0.69666111336E+02  0.49688887308E+02  0.88701290993E+02  0.00000000000E+00 0.  1.
</event>
<event>
12    1  0.8344842E-002  0.4251760E+03  0.7818608E-02  0.1035420E+00
         21   -1    0    0  501  502  0.00000000000E+00  0.00000000000E+00  0.51468190458E+03  0.51468190458E+03  0.00000000000E+00 0. -1.
         21   -1    0    0  502  503 -0.00000000000E+00 -0.00000000000E+00 -0.47740368835E+03  0.47740368835E+03  0.00000000000E+00 0.  1.
         -6    2    1    2    0  503 -0.36096911554E+03 -0.14396244705E+03 -0.23663994429E+03  0.48631309381E+03  0.17169179785E+03 0.  0.
        -24    2    3    3    0    0 -0.23199583440E+03 -0.61147919284E+02 -0.80609843119E+02  0.26754418439E+03  0.86722595584E+02 0.  0.
          6    2    1    2  501    0  0.36096911554E+03  0.14396244705E+03  0.27391816052E+03  0.50577249912E+03  0.17248412584E+03 0.  0.
         24    2    5    5    0    0  0.24381355330E+03  0.76130123423E+02  0.24857599691E+03  0.36796478834E+03  0.91472480861E+02 0.  0.
          5    1    5    5  501    0  0.11715556224E+03  0.67832323625E+02  0.25342163604E+02  0.13780771077E+03  0.47000000000E+01 0. -1.
        -13    1    6    6    0    0  0.18174116380E+03  0.15082306375E+02  0.18788828140E+03  0.26183837166E+03  0.00000000000E+00 0.  1.
         14    1    6    6    0    0  0.62072389502E+02  0.61047817048E+02  0.60687715512E+02  0.10612641669E+03  0.00000000000E+00 0. -1.
         -5    1    3    3    0  503 -0.12897328114E+03 -0.82814527764E+02 -0.15603010117E+03  0.21876890942E+03  0.47000000000E+01 0.  1.
         13    1    4    4    0    0  0.69146652725E+01  0.64514499779E+00 -0.73839563225E+01  0.10136647319E+02  0.00000000000E+00 0. -1.
        -14    1    4    4    0    0 -0.23891049967E+03 -0.61793064282E+02 -0.73225886797E+02  0.25740753707E+03  0.00000000000E+00 0.  1.
</event>
<event>
12    1  0.8344842E-002  0.2230186E+03  0.7818608E-02  0.1131943E+00
         21   -1    0    0  503  502  0.00000000000E+00  0.00000000000E+00  0.37883420366E+03  0.37883420366E+03  0.00000000000E+00 0. -1.
         21   -1    0    0  501  503 -0.00000000000E+00 -0.00000000000E+00 -0.16429912775E+03  0.16429912775E+03  0.00000000000E+00 0.  1.
          6    2    1    2  501    0  0.30579051364E+02  0.13560795206E+03 -0.16457202558E+02  0.22204968087E+03  0.17236770642E+03 0.  0.
         24    2    3    3    0    0  0.15989923978E+01  0.41829085511E+02 -0.80794444717E+02  0.10459462412E+03  0.51575807564E+02 0.  0.
         -6    2    1    2    0  502 -0.30579051364E+02 -0.13560795206E+03  0.23099227847E+03  0.32108365054E+03  0.17439232463E+03 0.  0.
        -24    2    5    5    0    0 -0.66841633751E+02 -0.76643669851E+02  0.74843520056E+02  0.15021444264E+03  0.81368115075E+02 0.  0.
          5    1    3    3  501    0  0.28980058966E+02  0.93778866544E+02  0.64337242159E+02  0.11745505675E+03  0.47000000000E+01 0. -1.
        -11    1    4    4    0    0  0.22271259852E+02  0.44089317761E+01 -0.36877727014E+02  0.43306055518E+02  0.00000000000E+00 0.  1.
         12    1    4    4    0    0 -0.20672267454E+02  0.37420153735E+02 -0.43916717703E+02  0.61288568600E+02  0.00000000000E+00 0. -1.
         -5    1    5    5    0  502  0.36262582388E+02 -0.58964282204E+02  0.15614875841E+03  0.17086920791E+03  0.47000000000E+01 0.  1.
         13    1    6    6    0    0 -0.24543370818E+01 -0.35605248857E+00  0.46327705680E+02  0.46394039030E+02  0.00000000000E+00 0. -1.
        -14    1    6    6    0    0 -0.64387296669E+02 -0.76287617363E+02  0.28515814376E+02  0.10382040361E+03  0.00000000000E+00 0.  1.
</event>
<event>
12    1  0.8344842E-002  0.1981278E+03  0.7818608E-02  0.1151710E+00
         21   -1    0    0  503  502  0.00000000000E+00  0.00000000000E+00  0.11067521936E+04  0.11067521936E+04  0.00000000000E+00 0.  1.
         21   -1    0    0  501  503 -0.00000000000E+00 -0.00000000000E+00 -0.21771011343E+03  0.21771011343E+03  0.00000000000E+00 0.  1.
          6    2    1    2  501    0 -0.58086388115E+02  0.80421441744E+02 -0.16222117006E+03  0.25469174146E+03  0.16944184364E+03 0.  0.
         24    2    3    3    0    0 -0.29973490736E+02  0.46459094272E+02 -0.18469331423E+03  0.20498396231E+03  0.69641560111E+02 0.  0.
         -6    2    1    2    0  502  0.58086388115E+02 -0.80421441744E+02  0.10512632502E+04  0.10697705655E+04  0.17150220079E+03 0.  0.
        -24    2    5    5    0    0  0.50630172919E+02 -0.86761639724E+02  0.10510188373E+04  0.10589104093E+04  0.80991740681E+02 0.  0.
          5    1    3    3  501    0 -0.28112897379E+02  0.33962347472E+02  0.22472144170E+02  0.49707779154E+02  0.47000000000E+01 0. -1.
        -11    1    4    4    0    0 -0.52329817792E+02  0.26672169925E+02 -0.13057154634E+03  0.14317382161E+03  0.00000000000E+00 0.  1.
         12    1    4    4    0    0  0.22356327055E+02  0.19786924347E+02 -0.54121767888E+02  0.61810140704E+02  0.00000000000E+00 0. -1.
         -5    1    5    5    0  502  0.74562151960E+01  0.63401979799E+01  0.24441290679E+00  0.10860156221E+02  0.47000000000E+01 0.  1.
         11    1    6    6    0    0  0.63203461486E+02 -0.50813290187E+02  0.49595082740E+03  0.50253745254E+03  0.00000000000E+00 0. -1.
        -12    1    6    6    0    0 -0.12573288566E+02 -0.35948349537E+02  0.55506800988E+03  0.55637295676E+03  0.00000000000E+00 0.  1.
</event>
<event>
12    1  0.8344842E-002  0.1957858E+03  0.7818608E-02  0.1153407E+00
         21   -1    0    0  501  502  0.00000000000E+00  0.00000000000E+00  0.15100831783E+03  0.15100831783E+03  0.00000000000E+00 0.  1.
         21   -1    0    0  502  503 -0.00000000000E+00 -0.00000000000E+00 -0.29683358354E+03  0.29683358354E+03  0.00000000000E+00 0. -1.
         -6    2    1    2    0  503 -0.84114310262E+02 -0.43607654629E+02 -0.15845571165E+03  0.25164911881E+03  0.17100357221E+03 0.  0.
        -24    2    3    3    0    0 -0.12402629852E+03 -0.40637289963E+02 -0.10996456490E+03  0.18859936714E+03  0.80272060463E+02 0.  0.
          6    2    1    2  501    0  0.84114310262E+02  0.43607654629E+02  0.12630445946E+02  0.19619278256E+03  0.17133369496E+03 0.  0.
         24    2    5    5    0    0  0.65450729858E+02  0.82643652108E+02  0.45723467921E+02  0.14151759224E+03  0.82600376045E+02 0.  0.
          5    1    5    5  501    0  0.18663580404E+02 -0.39035997479E+02 -0.33093021974E+02  0.54675190316E+02  0.47000000000E+01 0. -1.
        -13    1    6    6    0    0 -0.53403247212E+01  0.24092577784E+02  0.43038179811E+02  0.49611050119E+02  0.00000000000E+00 0.  1.
         14    1    6    6    0    0  0.70791054580E+02  0.58551074324E+02  0.26852881094E+01  0.91906542124E+02  0.00000000000E+00 0. -1.
         -5    1    3    3    0  503  0.39911988255E+02 -0.29703646658E+01 -0.48491146753E+02  0.63049751674E+02  0.47000000000E+01 0.  1.
         11    1    4    4    0    0 -0.34016946225E+01  0.18380102621E+02 -0.17054098331E+02  0.25303003153E+02  0.00000000000E+00 0. -1.
        -12    1    4    4    0    0 -0.12062460390E+03 -0.59017392584E+02 -0.92910466567E+02  0.16329636398E+03  0.00000000000E+00 0.  1.
</event>
<event>
12    1  0.8344842E-002  0.1848720E+03  0.7818608E-02  0.1163270E+00
         21   -1    0    0  503  502  0.00000000000E+00  0.00000000000E+00  0.95366228127E+02  0.95366228127E+02  0.00000000000E+00 0. -1.
         21   -1    0    0  501  503 -0.00000000000E+00 -0.00000000000E+00 -0.59085461435E+03  0.59085461435E+03  0.00000000000E+00 0.  1.
          6    2    1    2  501    0 -0.65891071995E+02  0.19263933977E+02 -0.46351944401E+03  0.49902697446E+03  0.17165346996E+03 0.  0.
         24    2    3    3    0    0  0.26791276210E+01 -0.42200179907E+02 -0.26571455392E+03  0.28078725738E+03  0.80307078342E+02 0.  0.
         -6    2    1    2    0  502  0.65891071995E+02 -0.19263933977E+02 -0.31968942218E+02  0.18719386802E+03  0.17119228498E+03 0.  0.
        -24    2    5    5    0    0  0.25503266765E+02  0.17989745055E+02  0.41297624725E+02  0.95492770726E+02  0.80245422986E+02 0.  0.
          5    1    3    3  501    0 -0.68570199616E+02  0.61464113884E+02 -0.19780489009E+03  0.21823971709E+03  0.47000000000E+01 0. -1.
        -11    1    4    4    0    0 -0.81785406574E+01  0.19887916129E+02 -0.30801957245E+02  0.37565653266E+02  0.00000000000E+00 0.  1.
         12    1    4    4    0    0  0.10857668278E+02 -0.62088096036E+02 -0.23491259667E+03  0.24322160411E+03  0.00000000000E+00 0. -1.
         -5    1    5    5    0  502  0.40387805231E+02 -0.37253679032E+02 -0.73266566943E+02  0.91701097291E+02  0.47000000000E+01 0.  1.
         11    1    6    6    0    0  0.30267738942E+01 -0.21322810146E+02  0.45171695933E+02  0.50043038538E+02  0.00000000000E+00 0. -1.
        -12    1    6    6    0    0  0.22476492871E+02  0.39312555201E+02 -0.38740712076E+01  0.45449732187E+02  0.00000000000E+00 0.  1.
</event>
<event>
12    1  0.8344842E-002  0.1915845E+03  0.7818608E-02  0.1157188E+00
         21   -1    0    0  503  502  0.00000000000E+00  0.00000000000E+00  0.15408777988E+04  0.15408777988E+04  0.00000000000E+00 0.  1.
         21   -1    0    0  501  503 -0.00000000000E+00 -0.00000000000E+00 -0.29714379704E+02  0.29714379704E+02  0.00000000000E+00 0.  1.
          6    2    1    2  501    0 -0.81136153037E+02 -0.14019362504E+02  0.40445649221E+03  0.44753734070E+03  0.17298843713E+03 0.  0.
         24    2    3    3    0    0 -0.82838475587E+02 -0.48470858410E+02  0.17170080911E+03  0.21219269664E+03  0.79579743073E+02 0.  0.
         -6    2    1    2    0  502  0.81136153037E+02  0.14019362504E+02  0.11067069269E+04  0.11230548378E+04  0.17225657849E+03 0.  0.
        -24    2    5    5    0    0  0.11063181595E+03 -0.10478206150E+02  0.60806160658E+03  0.62291548676E+03  0.77042811065E+02 0.  0.
          5    1    3    3  501    0  0.17023225497E+01  0.34451495906E+02  0.23275568310E+03  0.23534464406E+03  0.47000000000E+01 0. -1.
        -13    1    4    4    0    0  0.11897321428E+02 -0.87754115548E+01  0.53941002867E+02  0.55930187694E+02  0.00000000000E+00 0.  1.
         14    1    4    4    0    0 -0.94735797015E+02 -0.39695446855E+02  0.11775980624E+03  0.15626250895E+03  0.00000000000E+00 0. -1.
         -5    1    5    5    0  502 -0.29495662913E+02  0.24497568654E+02  0.49864532035E+03  0.50013935109E+03  0.47000000000E+01 0.  1.
         13    1    6    6    0    0  0.10235572945E+03 -0.19086032399E+02  0.59885055043E+03  0.60783464341E+03  0.00000000000E+00 0. -1.
        -14    1    6    6    0    0  0.82760865047E+01  0.86078262492E+01  0.92110561591E+01  0.15080843350E+02  0.00000000000E+00 0.  1.
</event>
<event>
12    1  0.8344842E-002  0.2110732E+03  0.7818608E-02  0.1140801E+00
         21   -1    0    0  501  502  0.00000000000E+00  0.00000000000E+00  0.18665977090E+03  0.18665977090E+03  0.00000000000E+00 0. -1.
         21   -1    0    0  502  503 -0.00000000000E+00 -0.00000000000E+00 -0.24268549050E+03  0.24268549050E+03  0.00000000000E+00 0.  1.
         -6    2    1    2    0  503  0.70271844225E+02  0.10047904592E+03 -0.57201326404E+02  0.21868670998E+03  0.17180720188E+03 0.  0.
        -24    2    3    3    0    0  0.24205208171E+02  0.37494731951E+02 -0.95247173416E+02  0.13174572288E+03  0.79329467574E+02 0.  0.
          6    2    1    2  501    0 -0.70271844225E+02 -0.10047904592E+03  0.11756067974E+01  0.21065855142E+03  0.17129352724E+03 0.  0.
         24    2    5    5    0    0 -0.73402297036E+02 -0.35242571051E+02 -0.55472451080E+02  0.12407512431E+03  0.75415566163E+02 0.  0.
          5    1    5    5  501    0  0.31304528102E+01 -0.65236474869E+02  0.56648057878E+02  0.86583427106E+02  0.47000000000E+01 0. -1.
        -11    1    6    6    0    0 -0.32216988915E+02 -0.34668517658E+02  0.84067566224E+01  0.48067806776E+02  0.00000000000E+00 0.  1.
         12    1    6    6    0    0 -0.41185308120E+02 -0.57405339366E+00 -0.63879207703E+02  0.76007317536E+02  0.00000000000E+00 0. -1.
         -5    1    3    3    0  503  0.46066636054E+02  0.62984313969E+02  0.38045847013E+02  0.86940987103E+02  0.47000000000E+01 0.  1.
         13    1    4    4    0    0  0.96414003793E+01 -0.19486679383E+02 -0.58467789824E+02  0.62379241111E+02  0.00000000000E+00 0. -1.
        -14    1    4    4    0    0  0.14563807792E+02  0.56981411334E+02 -0.36779383592E+02  0.69366481765E+02  0.00000000000E+00 0.  1.
</event>
<event>
12    1  0.8344842E-002  0.1798725E+03  0.7818608E-02  0.1168166E+00
         21   -1    0    0  503  502  0.00000000000E+00  0.00000000000E+00  0.71297000265E+03  0.71297000265E+03  0.00000000000E+00 0.  1.
         21   -1    0    0  501  503 -0.00000000000E+00 -0.00000000000E+00 -0.95575902066E+02  0.95575902066E+02  0.00000000000E+00 0.  1.
          6    2    1    2  501    0  0.42146890879E+02  0.23202001958E+02  0.15394013424E+02  0.18053007747E+03  0.17331889659E+03 0.  0.
         24    2    3    3    0    0  0.96091342488E+01 -0.53174764537E+02  0.17525220069E+01  0.96266821212E+02  0.79651355847E+02 0.  0.
         -6    2    1    2    0  502 -0.42146890879E+02 -0.23202001958E+02  0.60200008716E+03  0.62801582725E+03  0.17229358963E+03 0.  0.
        -24    2    5    5    0    0 -0.46419254284E+02  0.11544402321E+02  0.25433202138E+03  0.27855804773E+03  0.10306206123E+03 0.  0.
          5    1    3    3  501    0  0.32537756630E+02  0.76376766496E+02  0.13641491417E+02  0.84263256256E+02  0.47000000000E+01 0. -1.
        -13    1    4    4    0    0  0.24904658620E+02 -0.55965511564E+02 -0.24322014918E+02  0.65908579982E+02  0.00000000000E+00 0.  1.
         14    1    4    4    0    0 -0.15295524371E+02  0.27907470267E+01  0.26074536925E+02  0.30358241230E+02  0.00000000000E+00 0. -1.
         -5    1    5    5    0  502  0.42723634052E+01 -0.34746404279E+02  0.34766806578E+03  0.34945777952E+03  0.47000000000E+01 0.  1.
         11    1    6    6    0    0  0.25038362161E+02 -0.20534878861E+02  0.48409628196E+02  0.58241676930E+02  0.00000000000E+00 0. -1.
        -12    1    6    6    0    0 -0.71457616445E+02  0.32079281181E+02  0.20592239318E+03  0.22031637080E+03  0.00000000000E+00 0.  1.
</event>
<event>
12    1  0.8344842E-002  0.1796650E+03  0.7818608E-02  0.1168714E+00
         21   -1    0    0  503  502  0.00000000000E+00  0.00000000000E+00  0.52815117579E+03  0.52815117579E+03  0.00000000000E+00 0. -1.
         21   -1    0    0  501  503 -0.00000000000E+00 -0.00000000000E+00 -0.61535010476E+02  0.61535010476E+02  0.00000000000E+00 0. -1.
          6    2    1    2  501    0  0.30487381613E+02  0.37535430836E+02  0.27346655990E+03  0.32589406892E+03  0.17054206452E+03 0.  0.
         24    2    3    3    0    0  0.71056747344E+02  0.64408420245E+02  0.16900447274E+03  0.21055782722E+03  0.81083789121E+02 0.  0.
         -6    2    1    2    0  502 -0.30487381613E+02 -0.37535430836E+02  0.19314960542E+03  0.26379211735E+03  0.17303503141E+03 0.  0.
        -24    2    5    5    0    0 -0.41305242880E+02 -0.87349062833E+02  0.14904035848E+03  0.19621889987E+03  0.83383729476E+02 0.  0.
          5    1    3    3  501    0 -0.40569365731E+02 -0.26872989409E+02  0.10446208716E+03  0.11533624170E+03  0.47000000000E+01 0. -1.
        -13    1    4    4    0    0 -0.13141394814E+02  0.28931911085E+01  0.52528025962E+02  0.54224167342E+02  0.00000000000E+00 0.  1.
         14    1    4    4    0    0  0.84198142158E+02  0.61515229137E+02  0.11647644677E+03  0.15633365988E+03  0.00000000000E+00 0. -1.
         -5    1    5    5    0  502  0.10817861267E+02  0.49813631997E+02  0.44109246939E+02  0.67573217480E+02  0.47000000000E+01 0.  1.
         13    1    6    6    0    0 -0.64782188408E+02 -0.77796291573E+02  0.12853968272E+03  0.16361981834E+03  0.00000000000E+00 0. -1.
        -14    1    6    6    0    0  0.23476945529E+02 -0.95527712600E+01  0.20500675756E+02  0.32599081529E+02  0.00000000000E+00 0.  1.
</event>
<event>
12    1  0.8344842E-002  0.2703142E+03  0.7818608E-02  0.1101239E+00
         21   -1    0    0  503  502  0.00000000000E+00  0.00000000000E+00  0.56965386466E+03  0.56965386466E+03  0.00000000000E+00 0.  1.
         21   -1    0    0  501  503 -0.00000000000E+00 -0.00000000000E+00 -0.12843441799E+03  0.12843441799E+03  0.00000000000E+00 0.  1.
          6    2    1    2  501    0 -0.20567073747E+03  0.14024765716E+02  0.24458369174E+03  0.36381985268E+03  0.17333942607E+03 0.  0.
         24    2    3    3    0    0 -0.15675003515E+03  0.89993105829E+01  0.25836994528E+03  0.31253007688E+03  0.79173601779E+02 0.  0.
         -6    2    1    2    0  502  0.20567073747E+03 -0.14024765716E+02  0.19663575493E+03  0.33426842997E+03  0.17485026980E+03 0.  0.
        -24    2    5    5    0    0  0.11165569391E+03 -0.74420025252E+02  0.89751304145E+02  0.17956616234E+03  0.78634444869E+02 0.  0.
          5    1    3    3  501    0 -0.48920702323E+02  0.50254551334E+01 -0.13786253538E+02  0.51289775801E+02  0.47000000000E+01 0. -1.
        -11    1    4    4    0    0 -0.66073418728E+02  0.40361559233E+02  0.14171320764E+03  0.16148493845E+03  0.00000000000E+00 0.  1.
         12    1    4    4    0    0 -0.90676616420E+02 -0.31362248650E+02  0.11665673763E+03  0.15104513842E+03  0.00000000000E+00 0. -1.
         -5    1    5    5    0  502  0.94015043561E+02  0.60395259535E+02  0.10688445078E+03  0.15470226763E+03  0.47000000000E+01 0.  1.
         13    1    6    6    0    0  0.42691073156E+01 -0.42501078917E+02  0.16924684892E+02  0.45945750022E+02  0.00000000000E+00 0. -1.
        -14    1    6    6    0    0  0.10738658660E+03 -0.31918946335E+02  0.72826619254E+02  0.13362041232E+03  0.00000000000E+00 0.  1.
</event>
<event>
12    1  0.8344842E-002  0.1831072E+03  0.7818608E-02  0.1165145E+00
         21   -1    0    0  503  502  0.00000000000E+00  0.00000000000E+00  0.31567141867E+02  0.31567141867E+02  0.00000000000E+00 0. -1.
         21   -1    0    0  501  503 -0.00000000000E+00 -0.00000000000E+00 -0.17669290358E+04  0.17669290358E+04  0.00000000000E+00 0. -1.
          6    2    1    2  501    0  0.41049458365E+02 -0.41709655761E+02 -0.14368285045E+04  0.14482813169E+04  0.17209842543E+03 0.  0.
         24    2    3    3    0    0 -0.20085509390E+01 -0.71120825211E+02 -0.12406045791E+04  0.12451928437E+04  0.79644774776E+02 0.  0.
         -6    2    1    2    0  502 -0.41049458365E+02  0.41709655761E+02 -0.29853338941E+03  0.35021486077E+03  0.17350363310E+03 0.  0.
        -24    2    5    5    0    0 -0.64033904865E+02  0.66822152510E+02 -0.11798748076E+03  0.16642738186E+03  0.72190628057E+02 0.  0.
          5    1    3    3  501    0  0.43058009304E+02  0.29411169450E+02 -0.19622392540E+03  0.20308847322E+03  0.47000000000E+01 0. -1.
        -13    1    4    4    0    0 -0.36162641483E+02 -0.16692600299E+02 -0.61770202418E+03  0.61898478998E+03  0.00000000000E+00 0.  1.
         14    1    4    4    0    0  0.34154090544E+02 -0.54428224912E+02 -0.62290255493E+03  0.62620805369E+03  0.00000000000E+00 0. -1.
         -5    1    5    5    0  502  0.22984446500E+02 -0.25112496749E+02 -0.18054590865E+03  0.18378747891E+03  0.47000000000E+01 0.  1.
         11    1    6    6    0    0 -0.48375452418E+02 -0.36858129320E+00 -0.49563011964E+02  0.69259023988E+02  0.00000000000E+00 0. -1.
        -12    1    6    6    0    0 -0.15658452447E+02  0.67190733803E+02 -0.68424468791E+02  0.97168357872E+02  0.00000000000E+00 0.  1.
</event>
<event>
12    1  0.8344842E-002  0.1762749E+03  0.7818608E-02  0.1172398E+00
         21   -1    0    0  503  502  0.00000000000E+00  0.00000000000E+00  0.12526869022E+02  0.12526869022E+02  0.00000000000E+00 0. -1.
         21   -1    0    0  501  503 -0.00000000000E+00 -0.00000000000E+00 -0.24330990975E+04  0.24330990975E+04  0.00000000000E+00 0. -1.
          6    2    1    2  501    0  0.38501120323E+02  0.77427079900E+01 -0.11424236723E+04  0.11553792589E+04  0.16800922320E+03 0.  0.
         24    2    3    3    0    0 -0.38912980959E+01 -0.35451477188E+02 -0.37858335508E+03  0.38913062107E+03  0.82615580097E+02 0.  0.
         -6    2    1    2    0  502 -0.38501120323E+02 -0.77427079900E+01 -0.12781485562E+04  0.12902467077E+04  0.17184454913E+03 0.  0.
        -24    2    5    5    0    0 -0.47696956861E+02  0.57427563397E+02 -0.95425489053E+03  0.95970030493E+03  0.69637306479E+02 0.  0.
          5    1    3    3  501    0  0.42392418419E+02  0.43194185178E+02 -0.76384031717E+03  0.76624863778E+03  0.47000000000E+01 0. -1.
        -11    1    4    4    0    0 -0.36683199321E+02 -0.74731189508E+00 -0.23422145608E+03  0.23707784813E+03  0.00000000000E+00 0.  1.
         12    1    4    4    0    0  0.32791901225E+02 -0.34704165293E+02 -0.14436189900E+03  0.15205277294E+03  0.00000000000E+00 0. -1.
         -5    1    5    5    0  502  0.91958365384E+01 -0.65170271387E+02 -0.32389366569E+03  0.33054640273E+03  0.47000000000E+01 0.  1.
         13    1    6    6    0    0 -0.19080587126E+02 -0.12793858950E+02 -0.34141285393E+03  0.34218487468E+03  0.00000000000E+00 0. -1.
        -14    1    6    6    0    0 -0.28616369736E+02  0.70221422347E+02 -0.61284203659E+03  0.61751543024E+03  0.00000000000E+00 0.  1.
</event>
<event>
12    1  0.8344842E-002  0.1921118E+03  0.7818608E-02  0.1156752E+00
         21   -1    0    0  503  502  0.00000000000E+00  0.00000000000E+00  0.34784412180E+03  0.34784412180E+03  0.00000000000E+00 0.  1.
         21   -1    0    0  501  503 -0.00000000000E+00 -0.00000000000E+00 -0.12069136147E+03  0.12069136147E+03  0.00000000000E+00 0.  1.
          6    2    1    2  501    0 -0.70054394329E+02 -0.47803485564E+02  0.31091999721E+02  0.19461152235E+03  0.17237790110E+03 0.  0.
         24    2    3    3    0    0 -0.76231996767E+02  0.42491224765E+01 -0.25537990014E+02  0.11730251568E+03  0.85313063930E+02 0.  0.
         -6    2    1    2    0  502  0.70054394329E+02  0.47803485564E+02  0.19606076061E+03  0.27392396092E+03  0.17146930664E+03 0.  0.
        -24    2    5    5    0    0 -0.15760638541E+02 -0.58746881288E+01  0.22119847356E+02  0.72620464926E+02  0.67093476518E+02 0.  0.
          5    1    3    3  501    0  0.61776024384E+01 -0.52052608040E+02  0.56629989735E+02  0.77309006675E+02  0.47000000000E+01 0. -1.
        -11    1    4    4    0    0 -0.30651471203E+02 -0.40379810921E+02 -0.10966039565E+02  0.51868061856E+02  0.00000000000E+00 0.  1.
         12    1    4    4    0    0 -0.45580525564E+02  0.44628933398E+02 -0.14571950449E+02  0.65434453820E+02  0.00000000000E+00 0. -1.
         -5    1    5    5    0  502  0.85815032870E+02  0.53678173692E+02  0.17394091325E+03  0.20130349600E+03  0.47000000000E+01 0.  1.
         13    1    6    6    0    0 -0.22502202051E+02  0.23407131165E+02 -0.41182307488E+01  0.32729233279E+02  0.00000000000E+00 0. -1.
        -14    1    6    6    0    0  0.67415635096E+01 -0.29281819294E+02  0.26238078105E+02  0.39891231648E+02  0.00000000000E+00 0.  1.
</event>
<event>
12    1  0.8344842E-002  0.2019072E+03  0.7818608E-02  0.1148224E+00
         21   -1    0    0  501  502  0.00000000000E+00  0.00000000000E+00  0.97448820186E+02  0.97448820186E+02  0.00000000000E+00 0.  1.
         21   -1    0    0  502  503 -0.00000000000E+00 -0.00000000000E+00 -0.42245057859E+03  0.42245057859E+03  0.00000000000E+00 0.  1.
         -6    2    1    2    0  503 -0.50731809432E+02  0.93700646982E+02 -0.19080149769E+03  0.27779798003E+03  0.17150212376E+03 0.  0.
        -24    2    3    3    0    0 -0.97995986762E+02  0.50553336276E+02 -0.11520504411E+03  0.17863898309E+03  0.80503607758E+02 0.  0.
          6    2    1    2  501    0  0.50731809432E+02 -0.93700646982E+02 -0.13420026071E+03  0.24210141874E+03  0.17102590227E+03 0.  0.
         24    2    5    5    0    0 -0.40716382950E+01  0.15382376392E+01 -0.99224613704E+02  0.12669236836E+03  0.78654229525E+02 0.  0.
          5    1    5    5  501    0  0.54803447727E+02 -0.95238884621E+02 -0.34975647003E+02  0.11540905038E+03  0.47000000000E+01 0. -1.
        -11    1    6    6    0    0  0.31114260974E+02  0.54415571232E+01 -0.80860748302E+02  0.86811107560E+02  0.00000000000E+00 0.  1.
         12    1    6    6    0    0 -0.35185899269E+02 -0.39033194840E+01 -0.18363865402E+02  0.39881260799E+02  0.00000000000E+00 0. -1.
         -5    1    3    3    0  503  0.47264177330E+02  0.43147310705E+02 -0.75596453583E+02  0.99158996940E+02  0.47000000000E+01 0.  1.
         11    1    4    4    0    0 -0.15981734661E+02  0.45285588830E+02 -0.17848237496E+02  0.51232411422E+02  0.00000000000E+00 0. -1.
        -12    1    4    4    0    0 -0.82014252101E+02  0.52677474466E+01 -0.97356806614E+02  0.12740657167E+03  0.00000000000E+00 0.  1.
</event>
<event>
12    1  0.8344842E-002  0.2334790E+03  0.7818608E-02  0.1124307E+00
         21   -1    0    0  503  502  0.00000000000E+00  0.00000000000E+00  0.10157274468E+03  0.10157274468E+03  0.00000000000E+00 0.  1.
         21   -1    0    0  501  503 -0.00000000000E+00 -0.00000000000E+00 -0.90082851640E+03  0.90082851640E+03  0.00000000000E+00 0. -1.
          6    2    1    2  501    0 -0.13365374168E+03  0.80186646293E+02 -0.71855111627E+03  0.75536745666E+03  0.17312153819E+03 0.  0.
         24    2    3    3    0    0 -0.11684187974E+03  0.23477391117E+02 -0.65152924430E+03  0.66585433111E+03  0.68325846647E+02 0.  0.
         -6    2    1    2    0  502  0.13365374168E+03 -0.80186646293E+02 -0.80704655448E+02  0.24703380441E+03  0.17383681486E+03 0.  0.
        -24    2    5    5    0    0  0.61196357705E+02 -0.10498433587E+03 -0.87476459099E+02  0.17000819032E+03  0.80522971296E+02 0.  0.
          5    1    3    3  501    0 -0.16811861942E+02  0.56709255176E+02 -0.67021871967E+02  0.89513125555E+02  0.47000000000E+01 0. -1.
        -13    1    4    4    0    0 -0.48560399640E+02  0.30765631263E+02 -0.17007337779E+03  0.17952601570E+03  0.00000000000E+00 0.  1.
         14    1    4    4    0    0 -0.68281480103E+02 -0.72882401463E+01 -0.48145586651E+03  0.48632831541E+03  0.00000000000E+00 0. -1.
         -5    1    5    5    0  502  0.72457383980E+02  0.24797689573E+02  0.67718036516E+01  0.77025614091E+02  0.47000000000E+01 0.  1.
         13    1    6    6    0    0  0.19709564571E+02  0.11332863992E+01 -0.43693416991E+02  0.47946490612E+02  0.00000000000E+00 0. -1.
        -14    1    6    6    0    0  0.41486793133E+02 -0.10611762227E+03 -0.43783042108E+02  0.12206169971E+03  0.00000000000E+00 0.  1.
</event>
<event>
12    1  0.8344842E-002  0.2686820E+03  0.7818608E-02  0.1102738E+00
         21   -1    0    0  501  502  0.00000000000E+00  0.00000000000E+00  0.53865311035E+02  0.53865311035E+02  0.00000000000E+00 0. -1.
         21   -1    0    0  502  503 -0.00000000000E+00 -0.00000000000E+00 -0.13224011858E+04  0.13224011858E+04  0.00000000000E+00 0.  1.
         -6    2    1    2    0  503  0.54080316633E+02 -0.19261669741E+03 -0.68702600734E+03  0.73769557071E+03  0.17934365762E+03 0.  0.
        -24    2    3    3    0    0 -0.33277974396E+02 -0.91199450453E+02 -0.22973594422E+03  0.26119455202E+03  0.77583674803E+02 0.  0.
          6    2    1    2  501    0 -0.54080316633E+02  0.19261669741E+03 -0.58150986748E+03  0.63857092617E+03  0.17202682642E+03 0.  0.
         24    2    5    5    0    0  0.30160824899E+02  0.42257974906E+02 -0.19093973263E+03  0.21163833712E+03  0.75082570814E+02 0.  0.
          5    1    5    5  501    0 -0.84241141532E+02  0.15035872250E+03 -0.39057013484E+03  0.42693258905E+03  0.47000000000E+01 0. -1.
        -11    1    6    6    0    0  0.29584691475E+02  0.41023517540E+00 -0.20154305150E+02  0.35799696627E+02  0.00000000000E+00 0.  1.
         12    1    6    6    0    0  0.57613342398E+00  0.41847739731E+02 -0.17078542748E+03  0.17583864050E+03  0.00000000000E+00 0. -1.
         -5    1    3    3    0  503  0.87358291029E+02 -0.10141724695E+03 -0.45729006311E+03  0.47650101869E+03  0.47000000000E+01 0.  1.
         13    1    4    4    0    0 -0.34040665704E+02 -0.66232190884E+01 -0.10424087350E+03  0.10985806143E+03  0.00000000000E+00 0. -1.
        -14    1    4    4    0    0  0.76269130767E+00 -0.84576231365E+02 -0.12549507072E+03  0.15133649059E+03  0.00000000000E+00 0.  1.
</event>
<event>
12    1  0.8344842E-002  0.1836188E+03  0.7818608E-02  0.1164599E+00
         21   -1    0    0  501  502  0.00000000000E+00  0.00000000000E+00  0.11815780231E+03  0.11815780231E+03  0.00000000000E+00 0.  1.
         21   -1    0    0  502  503 -0.00000000000E+00 -0.00000000000E+00 -0.33525947003E+03  0.33525947003E+03  0.00000000000E+00 0.  1.
         -6    2    1    2    0  503  0.59379227761E+02 -0.17176901871E+02 -0.19773909170E+03  0.26984553749E+03  0.17290149529E+03 0.  0.
        -24    2    3    3    0    0  0.25301031591E+02 -0.59990394928E+02 -0.18769021855E+03  0.21401195895E+03  0.79589639719E+02 0.  0.
          6    2    1    2  501    0 -0.59379227761E+02  0.17176901871E+02 -0.19362576019E+02  0.18357173484E+03  0.17176359869E+03 0.  0.
         24    2    5    5    0    0 -0.39050707767E+02 -0.55249361042E+02 -0.30577743083E+02  0.10737014525E+03  0.77562233372E+02 0.  0.
          5    1    5    5  501    0 -0.20328519993E+02  0.72426262913E+02  0.11215167064E+02  0.76201589596E+02  0.47000000000E+01 0. -1.
        -11    1    6    6    0    0 -0.24086289615E+02 -0.71165230618E+02 -0.73599438866E+01  0.75490450855E+02  0.00000000000E+00 0.  1.
         12    1    6    6    0    0 -0.14964418153E+02  0.15915869576E+02 -0.23217799196E+02  0.31879694392E+02  0.00000000000E+00 0. -1.
         -5    1    3    3    0  503  0.34078196170E+02  0.42813493057E+02 -0.10048873152E+02  0.55833578549E+02  0.47000000000E+01 0.  1.
         13    1    4    4    0    0 -0.19761989376E+02  0.79393278556E+01 -0.40257280309E+02  0.45543580984E+02  0.00000000000E+00 0. -1.
        -14    1    4    4    0    0  0.45063020967E+02 -0.67929722783E+02 -0.14743293824E+03  0.16846837796E+03  0.00000000000E+00 0.  1.
</event>
<event>
12    1  0.8344842E-002  0.2588818E+03  0.7818608E-02  0.1107961E+00
         21   -1    0    0  503  502  0.00000000000E+00  0.00000000000E+00  0.22227629015E+03  0.22227629015E+03  0.00000000000E+00 0. -1.
         21   -1    0    0  501  503 -0.00000000000E+00 -0.00000000000E+00 -0.50473631407E+03  0.50473631407E+03  0.00000000000E+00 0.  1.
          6    2    1    2  501    0  0.36120478135E+02 -0.18944447181E+03 -0.37235655098E+03  0.45296664396E+03  0.17127604224E+03 0.  0.
         24    2    3    3    0    0  0.76258934162E+02 -0.75294832736E+02 -0.15988704775E+03  0.20841273262E+03  0.79920349110E+02 0.  0.
         -6    2    1    2    0  502 -0.36120478135E+02  0.18944447181E+03  0.89896527062E+02  0.27404596026E+03  0.17270178319E+03 0.  0.
        -24    2    5    5    0    0 -0.83222213665E+02  0.17092764674E+03  0.86879426916E+02  0.22312799493E+03  0.78076052865E+02 0.  0.
          5    1    3    3  501    0 -0.40138456027E+02 -0.11414963907E+03 -0.21246950322E+03  0.24455391134E+03  0.47000000000E+01 0. -1.
        -11    1    4    4    0    0  0.12822032929E+02 -0.39531575967E+02 -0.11639187382E+03  0.12358890856E+03  0.00000000000E+00 0.  1.
         12    1    4    4    0    0  0.63436901232E+02 -0.35763256769E+02 -0.43495173930E+02  0.84823824058E+02  0.00000000000E+00 0. -1.
         -5    1    5    5    0  502  0.47101735530E+02  0.18516825067E+02  0.30171001460E+01  0.50917965334E+02  0.47000000000E+01 0.  1.
         11    1    6    6    0    0 -0.20535497294E+02  0.11125585116E+03  0.75078092007E+02  0.13578030404E+03  0.00000000000E+00 0. -1.
        -12    1    6    6    0    0 -0.62686716371E+02  0.59671795582E+02  0.11801334909E+02  0.87347690885E+02  0.00000000000E+00 0.  1.
</event>
<event>
12    1  0.8344842E-002  0.2388896E+03  0.7818608E-02  0.1123644E+00
         21   -1    0    0  503  502  0.00000000000E+00  0.00000000000E+00  0.67810138332E+02  0.67810138332E+02  0.00000000000E+00 0. -1.
         21   -1    0    0  501  503 -0.00000000000E+00 -0.00000000000E+00 -0.83898692636E+03  0.83898692636E+03  0.00000000000E+00 0. -1.
          6    2    1    2  501    0  0.14001919824E+03 -0.85080165842E+01 -0.51958622943E+03  0.57187242401E+03  0.19336612246E+03 0.  0.
         24    2    3    3    0    0  0.14272688368E+03 -0.14564783367E+02 -0.53345139469E+03  0.55579919185E+03  0.61312763134E+02 0.  0.
         -6    2    1    2    0  502 -0.14001919824E+03  0.85080165842E+01 -0.25159055860E+03  0.33492464068E+03  0.17087698363E+03 0.  0.
        -24    2    5    5    0    0 -0.15781619047E+03  0.27950224261E+02 -0.16229929365E+03  0.24170579940E+03  0.79959162922E+02 0.  0.
          5    1    3    3  501    0 -0.27076854444E+01  0.60567667824E+01  0.13865165264E+02  0.16073232162E+02  0.47000000000E+01 0. -1.
        -13    1    4    4    0    0  0.10577135181E+02 -0.20876526633E+02 -0.93614643125E+02  0.96495629747E+02  0.00000000000E+00 0.  1.
         14    1    4    4    0    0  0.13214974850E+03  0.63117432668E+01 -0.43983675157E+03  0.45930356210E+03  0.00000000000E+00 0. -1.
         -5    1    5    5    0  502  0.17796992234E+02 -0.19442207677E+02 -0.89291264952E+02  0.93218841275E+02  0.47000000000E+01 0.  1.
         13    1    6    6    0    0 -0.37809540613E+02 -0.80830748246E+01 -0.87788647526E+02  0.95925721756E+02  0.00000000000E+00 0. -1.
        -14    1    6    6    0    0 -0.12000664986E+03  0.36033299086E+02 -0.74510646124E+02  0.14578007765E+03  0.00000000000E+00 0.  1.
</event>
<event>
12    1  0.8344842E-002  0.2151589E+03  0.7818608E-02  0.1137671E+00
         21   -1    0    0  503  502  0.00000000000E+00  0.00000000000E+00  0.32013527973E+03  0.32013527973E+03  0.00000000000E+00 0. -1.
         21   -1    0    0  501  503 -0.00000000000E+00 -0.00000000000E+00 -0.14728740868E+03  0.14728740868E+03  0.00000000000E+00 0. -1.
          6    2    1    2  501    0  0.12068414016E+03  0.46615442065E+02  0.52256401579E+02  0.22077386858E+03  0.17109268955E+03 0.  0.
         24    2    3    3    0    0  0.70522574488E+02 -0.36037894957E+02  0.52669868109E+02  0.12397501660E+03  0.79520603295E+02 0.  0.
         -6    2    1    2    0  502 -0.12068414016E+03 -0.46615442065E+02  0.12059146947E+03  0.24664881982E+03  0.17191764506E+03 0.  0.
        -24    2    5    5    0    0 -0.75344274416E+02 -0.72234671504E+02  0.17125646921E+02  0.13072076119E+03  0.76811601779E+02 0.  0.
          5    1    3    3  501    0  0.50161565672E+02  0.82653337022E+02 -0.41346652950E+00  0.96798851987E+02  0.47000000000E+01 0. -1.
        -13    1    4    4    0    0  0.10452154064E+02  0.23351023770E+02  0.24459783661E+01  0.25700207117E+02  0.00000000000E+00 0.  1.
         14    1    4    4    0    0  0.60070420424E+02 -0.59388918727E+02  0.50223889743E+02  0.98274809480E+02  0.00000000000E+00 0. -1.
         -5    1    5    5    0  502 -0.45339865743E+02  0.25619229439E+02  0.10346582255E+03  0.11592805863E+03  0.47000000000E+01 0.  1.
         11    1    6    6    0    0 -0.65073544157E+02 -0.64340909326E+02  0.43509732153E+02  0.10132825644E+03  0.00000000000E+00 0. -1.
        -12    1    6    6    0    0 -0.10270730258E+02 -0.78937621782E+01 -0.26384085233E+02  0.29392504741E+02  0.00000000000E+00 0.  1.
</event>
<event>
12    1  0.8344842E-002  0.1983349E+03  0.7818608E-02  0.1151321E+00
         21   -1    0    0  503  502  0.00000000000E+00  0.00000000000E+00  0.28293269259E+03  0.28293269259E+03  0.00000000000E+00 0.  1.
         21   -1    0    0  501  503 -0.00000000000E+00 -0.00000000000E+00 -0.16587784928E+03  0.16587784928E+03  0.00000000000E+00 0.  1.
          6    2    1    2  501    0 -0.54551156150E+02 -0.82020284413E+02 -0.32578977948E+02  0.20099286215E+03  0.17214408250E+03 0.  0.
         24    2    3    3    0    0 -0.66595972462E+02 -0.11539172487E+03 -0.47144380335E+02  0.16235387168E+03  0.79911909837E+02 0.  0.
         -6    2    1    2    0  502  0.54551156150E+02  0.82020284413E+02  0.14963382125E+03  0.24781767972E+03  0.17123132373E+03 0.  0.
        -24    2    5    5    0    0  0.38172223803E+02 -0.14203296492E+02  0.34184598078E+02  0.96563390262E+02  0.80604275891E+02 0.  0.
          5    1    3    3  501    0  0.12044816313E+02  0.33371440458E+02  0.14565402388E+02  0.38638990476E+02  0.47000000000E+01 0. -1.
        -11    1    4    4    0    0 -0.80763461208E+02 -0.94359088087E+02 -0.21062976631E+02  0.12597628013E+03  0.00000000000E+00 0.  1.
         12    1    4    4    0    0  0.14167488746E+02 -0.21032636785E+02 -0.26081403704E+02  0.36377591546E+02  0.00000000000E+00 0. -1.
         -5    1    5    5    0  502  0.16378932346E+02  0.96223580905E+02  0.11544922318E+03  0.15125428946E+03  0.47000000000E+01 0.  1.
         11    1    6    6    0    0 -0.15955128365E+01  0.18199296556E+02 -0.16378079701E+02  0.24535719900E+02  0.00000000000E+00 0. -1.
        -12    1    6    6    0    0  0.39767736640E+02 -0.32402593048E+02  0.50562677778E+02  0.72027670362E+02  0.00000000000E+00 0.  1.
</event>
<event>
12    1  0.8344842E-002  0.1821384E+03  0.7818608E-02  0.1165779E+00
         21   -1    0    0  503  502  0.00000000000E+00  0.00000000000E+00  0.69712006779E+02  0.69712006779E+02  0.00000000000E+00 0.  1.
         21   -1    0    0  501  503 -0.00000000000E+00 -0.00000000000E+00 -0.19264293872E+04  0.19264293872E+04  0.00000000000E+00 0.  1.
          6    2    1    2  501    0  0.58324923229E+02  0.12030456554E+02 -0.17946016735E+04  0.18038208196E+04  0.17212743597E+03 0.  0.
         24    2    3    3    0    0  0.54834773336E+02 -0.54402027703E+02 -0.88903530669E+03  0.89580210241E+03  0.78174146323E+02 0.  0.
         -6    2    1    2    0  502 -0.58324923229E+02 -0.12030456554E+02 -0.62115706912E+02  0.19232057435E+03  0.17199509795E+03 0.  0.
        -24    2    5    5    0    0 -0.80325963130E+02  0.41338813081E+02 -0.30881415965E+02  0.12651787206E+03  0.83017782901E+02 0.  0.
          5    1    3    3  501    0  0.34901498935E+01  0.66432484258E+02 -0.90556636679E+03  0.90801871719E+03  0.47000000000E+01 0. -1.
        -11    1    4    4    0    0 -0.39524658246E+01 -0.33351846127E+02 -0.13235228051E+03  0.13654703872E+03  0.00000000000E+00 0.  1.
         12    1    4    4    0    0  0.58787239160E+02 -0.21050181576E+02 -0.75668302618E+03  0.75925506369E+03  0.00000000000E+00 0. -1.
         -5    1    5    5    0  502  0.22001039901E+02 -0.53369269636E+02 -0.31234290947E+02  0.65802702293E+02  0.47000000000E+01 0.  1.
         11    1    6    6    0    0  0.58144410593E+01  0.50211912432E+01  0.19046168763E+02  0.20537201145E+02  0.00000000000E+00 0. -1.
        -12    1    6    6    0    0 -0.86140404189E+02  0.36317621838E+02 -0.49927584728E+02  0.10598067091E+03  0.00000000000E+00 0.  1.
</event>
<event>
12    1  0.8344842E-002  0.1847407E+03  0.7818608E-02  0.1167116E+00
         21   -1    0    0  503  502  0.00000000000E+00  0.00000000000E+00  0.38906339167E+03  0.38906339167E+03  0.00000000000E+00 0.  1.
         21   -1    0    0  501  503 -0.00000000000E+00 -0.00000000000E+00 -0.90057853974E+02  0.90057853974E+02  0.00000000000E+00 0.  1.
          6    2    1    2  501    0 -0.31176720941E+02  0.51004564156E+02  0.77300984087E+02  0.20026121303E+03  0.17480176718E+03 0.  0.
         24    2    3    3    0    0  0.60913746862E+02  0.91066175859E+01  0.53695485589E+02  0.96264089291E+02  0.50893562204E+02 0.  0.
         -6    2    1    2    0  502  0.31176720941E+02 -0.51004564156E+02  0.22170455361E+03  0.27886003261E+03  0.15822943849E+03 0.  0.
        -24    2    5    5    0    0  0.43595462347E+02 -0.87628648189E+01  0.55109723392E+02  0.10648104968E+03  0.79522199366E+02 0.  0.
          5    1    3    3  501    0 -0.92090467803E+02  0.41897946570E+02  0.23605498498E+02  0.10399712374E+03  0.47000000000E+01 0. -1.
        -13    1    4    4    0    0  0.48130559443E+02  0.11884958113E+02  0.98979517544E+01  0.50554647962E+02  0.00000000000E+00 0.  1.
         14    1    4    4    0    0  0.12783187419E+02 -0.27783405269E+01  0.43797533834E+02  0.45709441329E+02  0.00000000000E+00 0. -1.
         -5    1    5    5    0  502 -0.12418741406E+02 -0.42241699337E+02  0.16659483022E+03  0.17237898293E+03  0.47000000000E+01 0.  1.
         13    1    6    6    0    0  0.56986878854E+02 -0.15203515114E+02  0.65657387933E+02  0.88258392369E+02  0.00000000000E+00 0. -1.
        -14    1    6    6    0    0 -0.13391416507E+02  0.64406502953E+01 -0.10547664542E+02  0.18222657313E+02  0.00000000000E+00 0.  1.
</event>
<event>
12    1  0.8344842E-002  0.2172122E+03  0.7818608E-02  0.1136087E+00
         21   -1    0    0  503  502  0.00000000000E+00  0.00000000000E+00  0.18867745911E+03  0.18867745911E+03  0.00000000000E+00 0.  1.
         21   -1    0    0  501  503 -0.00000000000E+00 -0.00000000000E+00 -0.25992475494E+03  0.25992475494E+03  0.00000000000E+00 0.  1.
          6    2    1    2  501    0  0.27873552816E+02  0.12981094837E+03 -0.80707188799E+02  0.23118408193E+03  0.17118589940E+03 0.  0.
         24    2    3    3    0    0  0.47119926799E-01  0.10866101659E+02  0.51851622747E+01  0.81779353428E+02  0.80888208991E+02 0.  0.
         -6    2    1    2    0  502 -0.27873552816E+02 -0.12981094837E+03  0.94598929647E+01  0.21741813212E+03  0.17191084123E+03 0.  0.
        -24    2    5    5    0    0 -0.82844839720E+02 -0.10806822977E+03  0.13903048214E+02  0.15795032717E+03  0.78822594167E+02 0.  0.
          5    1    3    3  501    0  0.27826432890E+02  0.11894484671E+03 -0.85892351073E+02  0.14940472851E+03  0.47000000000E+01 0. -1.
        -13    1    4    4    0    0  0.10859856677E+02  0.38514796096E+02 -0.18225593851E+02  0.43971562135E+02  0.00000000000E+00 0.  1.
         14    1    4    4    0    0 -0.10812736751E+02 -0.27648694437E+02  0.23410756126E+02  0.37807791293E+02  0.00000000000E+00 0. -1.
         -5    1    5    5    0  502  0.54971286903E+02 -0.21742718604E+02 -0.44431552497E+01  0.59467804942E+02  0.47000000000E+01 0.  1.
         13    1    6    6    0    0 -0.31902107899E+02  0.19734153400E+00 -0.14391255785E+02  0.34998452468E+02  0.00000000000E+00 0. -1.
        -14    1    6    6    0    0 -0.50942731820E+02 -0.10826557130E+03  0.28294303999E+02  0.12295187471E+03  0.00000000000E+00 0.  1.
</event>
<event>
12    1  0.8344842E-002  0.2150485E+03  0.7818608E-02  0.1137923E+00
         21   -1    0    0  501  502  0.00000000000E+00  0.00000000000E+00  0.58515574308E+03  0.58515574308E+03  0.00000000000E+00 0.  1.
         21   -1    0    0  502  503 -0.00000000000E+00 -0.00000000000E+00 -0.10099989305E+03  0.10099989305E+03  0.00000000000E+00 0.  1.
         -6    2    1    2    0  503  0.12237769562E+03 -0.35074205667E+02  0.80721523270E+02  0.22969945210E+03  0.17331870554E+03 0.  0.
        -24    2    3    3    0    0  0.40245819119E+02 -0.36454601759E+02 -0.23280682165E+02  0.97086860821E+02  0.77040278011E+02 0.  0.
          6    2    1    2  501    0 -0.12237769562E+03  0.35074205667E+02  0.40343432677E+03  0.45645618403E+03  0.17142488629E+03 0.  0.
         24    2    5    5    0    0 -0.12305734496E+03  0.75637666830E+02  0.36155030267E+03  0.39795645942E+03  0.82380552580E+02 0.  0.
          5    1    5    5  501    0  0.67964934379E+00 -0.40563461163E+02  0.41884024098E+02  0.58499724610E+02  0.47000000000E+01 0. -1.
        -13    1    6    6    0    0 -0.13537325009E+03  0.69876940131E+02  0.32424547020E+03  0.35825106915E+03  0.00000000000E+00 0.  1.
         14    1    6    6    0    0  0.12315905126E+02  0.57607266988E+01  0.37304832470E+02  0.39705390273E+02  0.00000000000E+00 0. -1.
         -5    1    3    3    0  503  0.82131876501E+02  0.13803960920E+01  0.10400220544E+03  0.13261259128E+03  0.47000000000E+01 0.  1.
         13    1    4    4    0    0 -0.10459046520E+02 -0.30688468441E+02  0.12514119968E+02  0.34753085445E+02  0.00000000000E+00 0. -1.
        -14    1    4    4    0    0  0.50704865640E+02 -0.57661333182E+01 -0.35794802133E+02  0.62333775377E+02  0.00000000000E+00 0.  1.
</event>
<event>
12    1  0.8344842E-002  0.2556406E+03  0.7818608E-02  0.1109796E+00
         21   -1    0    0  503  502  0.00000000000E+00  0.00000000000E+00  0.72783788528E+03  0.72783788528E+03  0.00000000000E+00 0. -1.
         21   -1    0    0  501  503 -0.00000000000E+00 -0.00000000000E+00 -0.90204080278E+02  0.90204080278E+02  0.00000000000E+00 0.  1.
          6    2    1    2  501    0 -0.15988932326E+03  0.10043718440E+03  0.29071016641E+03  0.38710328582E+03  0.17229140819E+03 0.  0.
         24    2    3    3    0    0 -0.26188168757E+02  0.37747952347E+02  0.49760948654E+02  0.10446472853E+03  0.79536151567E+02 0.  0.
         -6    2    1    2    0  502  0.15988932326E+03 -0.10043718440E+03  0.34692363859E+03  0.43093867974E+03  0.17233662112E+03 0.  0.
        -24    2    5    5    0    0  0.16157821498E+03 -0.12401754161E+03  0.34244742890E+03  0.40642313254E+03  0.80135203998E+02 0.  0.
          5    1    3    3  501    0 -0.13370115450E+03  0.62689232054E+02  0.24094921776E+03  0.28263855729E+03  0.47000000000E+01 0. -1.
        -11    1    4    4    0    0 -0.18068955330E+02 -0.23589925761E+02  0.12488404447E+02  0.32232467944E+02  0.00000000000E+00 0.  1.
         12    1    4    4    0    0 -0.81192134276E+01  0.61337878108E+02  0.37272544207E+02  0.72232260584E+02  0.00000000000E+00 0. -1.
         -5    1    5    5    0  502 -0.16888917262E+01  0.23580357207E+02  0.44762096905E+01  0.24515547199E+02  0.47000000000E+01 0.  1.
         13    1    6    6    0    0  0.78570564680E+01  0.78766855566E+01  0.46409995592E+02  0.47724869854E+02  0.00000000000E+00 0. -1.
        -14    1    6    6    0    0  0.15372115851E+03 -0.13189422717E+03  0.29603743331E+03  0.35869826269E+03  0.00000000000E+00 0.  1.
</event>
<event>
12    1  0.8344842E-002  0.1862698E+03  0.7818608E-02  0.1162048E+00
         21   -1    0    0  501  502  0.00000000000E+00  0.00000000000E+00  0.59068233085E+03  0.59068233085E+03  0.00000000000E+00 0.  1.
         21   -1    0    0  502  503 -0.00000000000E+00 -0.00000000000E+00 -0.65165374928E+02  0.65165374928E+02  0.00000000000E+00 0.  1.
         -6    2    1    2    0  503 -0.34687452656E+02  0.63941363355E+02  0.36815086472E+03  0.41259120393E+03  0.17147805996E+03 0.  0.
        -24    2    3    3    0    0  0.35406159752E+02 -0.13476565978E+02  0.15485664337E+03  0.17505559577E+03  0.72309526592E+02 0.  0.
          6    2    1    2  501    0  0.34687452656E+02 -0.63941363355E+02  0.15736609120E+03  0.24325650184E+03  0.17063974247E+03 0.  0.
         24    2    5    5    0    0 -0.52677811308E+01  0.22707699469E+02  0.42947527136E+02  0.94198866691E+02  0.80532895550E+02 0.  0.
          5    1    5    5  501    0  0.39955233787E+02 -0.86649062825E+02  0.11441856406E+03  0.14905763515E+03  0.47000000000E+01 0. -1.
        -13    1    6    6    0    0 -0.40497605809E+02 -0.22818937883E+01  0.18692723017E+02  0.44661851835E+02  0.00000000000E+00 0.  1.
         14    1    6    6    0    0  0.35229824678E+02  0.24989593258E+02  0.24254804119E+02  0.49537014857E+02  0.00000000000E+00 0. -1.
         -5    1    3    3    0  503 -0.70093612408E+02  0.77417929333E+02  0.21329422135E+03  0.23753560816E+03  0.47000000000E+01 0.  1.
         11    1    4    4    0    0 -0.64768628103E+01 -0.27948514542E+02  0.25729922363E+02  0.38536970843E+02  0.00000000000E+00 0. -1.
        -12    1    4    4    0    0  0.41883022562E+02  0.14471948564E+02  0.12912672101E+03  0.13651862493E+03  0.00000000000E+00 0.  1.
</event>
<event>
12    1  0.8344842E-002  0.1973380E+03  0.7818608E-02  0.1153190E+00
         21   -1    0    0  501  502  0.00000000000E+00  0.00000000000E+00  0.67819153124E+02  0.67819153124E+02  0.00000000000E+00 0. -1.
         21   -1    0    0  502  503 -0.00000000000E+00 -0.00000000000E+00 -0.55856267849E+03  0.55856267849E+03  0.00000000000E+00 0. -1.
         -6    2    1    2    0  503 -0.15323601022E+02 -0.96736411269E+02 -0.23831615823E+03  0.30597295638E+03  0.16502155239E+03 0.  0.
        -24    2    3    3    0    0  0.68712806582E+01 -0.12537645350E+03 -0.20457275264E+03  0.25623793641E+03  0.89673849806E+02 0.  0.
          6    2    1    2  501    0  0.15323601022E+02  0.96736411269E+02 -0.25242736714E+03  0.32040887523E+03  0.17131703253E+03 0.  0.
         24    2    5    5    0    0  0.32945626055E+02  0.13207349515E+03 -0.20310576999E+03  0.25705309248E+03  0.79344288719E+02 0.  0.
          5    1    5    5  501    0 -0.17622025032E+02 -0.35337083878E+02 -0.49321597153E+02  0.63355782759E+02  0.47000000000E+01 0. -1.
        -11    1    6    6    0    0  0.71688519172E+01  0.70212474859E+02 -0.16615827235E+03  0.18052632920E+03  0.00000000000E+00 0.  1.
         12    1    6    6    0    0  0.25776774137E+02  0.61861020289E+02 -0.36947497640E+02  0.76526763279E+02  0.00000000000E+00 0. -1.
         -5    1    3    3    0  503 -0.22194881681E+02  0.28640042230E+02 -0.33743405583E+02  0.49735019977E+02  0.47000000000E+01 0.  1.
         11    1    4    4    0    0 -0.12974901513E+02 -0.99048450186E+01 -0.93088450548E+02  0.94508801969E+02  0.00000000000E+00 0. -1.
        -12    1    4    4    0    0  0.19846182172E+02 -0.11547160848E+03 -0.11148430210E+03  0.16172913444E+03  0.00000000000E+00 0.  1.
</event>
<event>
12    1  0.8344842E-002  0.4867158E+03  0.7818608E-02  0.1017363E+00
         21   -1    0    0  501  502  0.00000000000E+00  0.00000000000E+00  0.84262461375E+03  0.84262461375E+03  0.00000000000E+00 0. -1.
         21   -1    0    0  502  503 -0.00000000000E+00 -0.00000000000E+00 -0.61613449803E+03  0.61613449803E+03  0.00000000000E+00 0.  1.
         -6    2    1    2    0  503 -0.84207264127E+02  0.44681093639E+03 -0.42492386174E+03  0.64610569994E+03  0.17367040913E+03 0.  0.
        -24    2    3    3    0    0  0.27503770166E+02  0.16406188214E+03 -0.16335618762E+03  0.24502450989E+03  0.75359192341E+02 0.  0.
          6    2    1    2  501    0  0.84207264127E+02 -0.44681093639E+03  0.65141397746E+03  0.81265341184E+03  0.17127323648E+03 0.  0.
         24    2    5    5    0    0 -0.21126150154E+02 -0.22258226866E+03  0.35119393223E+03  0.42338770676E+03  0.77011633238E+02 0.  0.
          5    1    5    5  501    0  0.10533341428E+03 -0.22422866773E+03  0.30022004523E+03  0.38926570508E+03  0.47000000000E+01 0. -1.
        -11    1    6    6    0    0 -0.47151119846E+02 -0.96652339506E+02  0.14863885930E+03  0.18346229402E+03  0.00000000000E+00 0.  1.
         12    1    6    6    0    0  0.26024969692E+02 -0.12592992915E+03  0.20255507294E+03  0.23992541274E+03  0.00000000000E+00 0. -1.
         -5    1    3    3    0  503 -0.11171103429E+03  0.28274905425E+03 -0.26156767413E+03  0.40108119005E+03  0.47000000000E+01 0.  1.
         13    1    4    4    0    0 -0.20441941412E+02  0.30500064299E+02 -0.14814706806E+02  0.39592959332E+02  0.00000000000E+00 0. -1.
        -14    1    4    4    0    0  0.47945711579E+02  0.13356181784E+03 -0.14854148081E+03  0.20543155056E+03  0.00000000000E+00 0.  1.
</event>
<event>
12    1  0.8344842E-002  0.1769379E+03  0.7818608E-02  0.1171056E+00
         21   -1    0    0  501  502  0.00000000000E+00  0.00000000000E+00  0.73561954833E+03  0.73561954833E+03  0.00000000000E+00 0. -1.
         21   -1    0    0  502  503 -0.00000000000E+00 -0.00000000000E+00 -0.65459910069E+02  0.65459910069E+02  0.00000000000E+00 0. -1.
         -6    2    1    2    0  503  0.17698075450E+02  0.28198512529E+02  0.96256504011E+02  0.20051987741E+03  0.17272674572E+03 0.  0.
        -24    2    3    3    0    0  0.19781831339E+01 -0.15275809968E+02 -0.16282568664E+02  0.78764940712E+02  0.75508478096E+02 0.  0.
          6    2    1    2  501    0 -0.17698075450E+02 -0.28198512529E+02  0.57390313425E+03  0.60055958099E+03  0.17377751534E+03 0.  0.
         24    2    5    5    0    0  0.31040598711E+02  0.24250026796E+02  0.43773352111E+03  0.44664219673E+03  0.79542654134E+02 0.  0.
          5    1    5    5  501    0 -0.48738674162E+02 -0.52448539324E+02  0.13616961314E+03  0.15391738426E+03  0.47000000000E+01 0. -1.
        -11    1    6    6    0    0  0.28152161483E+02  0.37185055415E+02  0.12170131332E+03  0.13033219942E+03  0.00000000000E+00 0.  1.
         12    1    6    6    0    0  0.28884372279E+01 -0.12935028619E+02  0.31603220780E+03  0.31630999731E+03  0.00000000000E+00 0. -1.
         -5    1    3    3    0  503  0.15719892316E+02  0.43474322497E+02  0.11253907267E+03  0.12175493669E+03  0.47000000000E+01 0.  1.
         11    1    4    4    0    0  0.23802873391E+02 -0.17470221321E+02  0.20495641243E+02  0.35942408442E+02  0.00000000000E+00 0. -1.
        -12    1    4    4    0    0 -0.21824690257E+02  0.21944113520E+01 -0.36778209907E+02  0.42822532269E+02  0.00000000000E+00 0.  1.
</event>
<event>
12    1  0.8344842E-002  0.2340000E+03  0.7818608E-02  0.1124197E+00
         21   -1    0    0  501  502  0.00000000000E+00  0.00000000000E+00  0.20050427278E+03  0.20050427278E+03  0.00000000000E+00 0. -1.
         21   -1    0    0  502  503 -0.00000000000E+00 -0.00000000000E+00 -0.30754365542E+03  0.30754365542E+03  0.00000000000E+00 0.  1.
         -6    2    1    2    0  503 -0.13565983401E+03  0.80971831523E+02  0.34096541790E+02  0.23647105373E+03  0.17261505446E+03 0.  0.
        -24    2    3    3    0    0 -0.55998665513E+02  0.43877187805E+02  0.83021285572E+02  0.13578523093E+03  0.80523517880E+02 0.  0.
          6    2    1    2  501    0  0.13565983401E+03 -0.80971831523E+02 -0.14113592443E+03  0.27157687448E+03  0.16992534103E+03 0.  0.
         24    2    5    5    0    0  0.37815034956E+02 -0.95099756838E+02 -0.51567205150E+02  0.13809336071E+03  0.77049717746E+02 0.  0.
          5    1    5    5  501    0  0.97844799050E+02  0.14127925315E+02 -0.89568719284E+02  0.13348351377E+03  0.47000000000E+01 0. -1.
        -13    1    6    6    0    0  0.32472399512E+02 -0.73918293436E+02 -0.72003242731E+02  0.10817965520E+03  0.00000000000E+00 0.  1.
         14    1    6    6    0    0  0.53426354438E+01 -0.21181463402E+02  0.20436037581E+02  0.29913705510E+02  0.00000000000E+00 0. -1.
         -5    1    3    3    0  503 -0.79661168493E+02  0.37094643718E+02 -0.48924743783E+02  0.10068582280E+03  0.47000000000E+01 0.  1.
         13    1    4    4    0    0 -0.69154913903E+02  0.45120430748E+02  0.41904895405E+02  0.92597384665E+02  0.00000000000E+00 0. -1.
        -14    1    4    4    0    0  0.13156248390E+02 -0.12432429432E+01  0.41116390167E+02  0.43187846266E+02  0.00000000000E+00 0.  1.
</event>
<event>
12    1  0.8344842E-002  0.2289929E+03  0.7818608E-02  0.1127468E+00
         21   -1    0    0  501  502  0.00000000000E+00  0.00000000000E+00  0.88168263453E+03  0.88168263453E+03  0.00000000000E+00 0. -1.
         21   -1    0    0  502  503 -0.00000000000E+00 -0.00000000000E+00 -0.70111810231E+02  0.70111810231E+02  0.00000000000E+00 0. -1.
         -6    2    1    2    0  503  0.76344539645E+02 -0.13117889186E+03  0.21842335414E+03  0.31597870742E+03  0.17057957528E+03 0.  0.
        -24    2    3    3    0    0  0.17043505999E+02 -0.51843190457E+02  0.26602921364E+02  0.10004368354E+03  0.79516197701E+02 0.  0.
          6    2    1    2  501    0 -0.76344539645E+02  0.13117889186E+03  0.59314747016E+03  0.63581573734E+03  0.17146818973E+03 0.  0.
         24    2    5    5    0    0  0.15245721003E+02  0.87124929952E+02  0.40604736544E+03  0.42284140416E+03  0.78084599424E+02 0.  0.
          5    1    5    5  501    0 -0.91590260649E+02  0.44053961912E+02  0.18710010472E+03  0.21297433318E+03  0.47000000000E+01 0. -1.
        -11    1    6    6    0    0  0.24331096461E+02  0.84977478578E+02  0.22777610668E+03  0.24432586620E+03  0.00000000000E+00 0.  1.
         12    1    6    6    0    0 -0.90853754579E+01  0.21474513737E+01  0.17827125876E+03  0.17851553797E+03  0.00000000000E+00 0. -1.
         -5    1    3    3    0  503  0.59301033646E+02 -0.79335701407E+02  0.19182043277E+03  0.21593502388E+03  0.47000000000E+01 0.  1.
         11    1    4    4    0    0 -0.83828151454E+01  0.12650208052E+02 -0.13193058004E+02  0.20108608431E+02  0.00000000000E+00 0. -1.
        -12    1    4    4    0    0  0.25426321145E+02 -0.64493398509E+02  0.39795979368E+02  0.79935075106E+02  0.00000000000E+00 0.  1.
</event>
<event>
12    1  0.8344842E-002  0.2573505E+03  0.7818608E-02  0.1108879E+00
         21   -1    0    0  501  502  0.00000000000E+00  0.00000000000E+00  0.67150120650E+02  0.67150120650E+02  0.00000000000E+00 0.  1.
         21   -1    0    0  502  503 -0.00000000000E+00 -0.00000000000E+00 -0.99114854181E+03  0.99114854181E+03  0.00000000000E+00 0. -1.
         -6    2    1    2    0  503 -0.17949361222E+03 -0.56400875931E+02 -0.41462512244E+03  0.48799924974E+03  0.17558547765E+03 0.  0.
        -24    2    3    3    0    0 -0.20419066078E+03 -0.33015498958E+02 -0.37564190342E+03  0.43605118502E+03  0.79056607742E+02 0.  0.
          6    2    1    2  501    0  0.17949361222E+03  0.56400875931E+02 -0.50937329872E+03  0.57029941272E+03  0.17430217171E+03 0.  0.
         24    2    5    5    0    0  0.19864362348E+03  0.73146703037E+02 -0.41909925771E+03  0.47639180846E+03  0.80593039629E+02 0.  0.
          5    1    5    5  501    0 -0.19150011269E+02 -0.16745827106E+02 -0.90274041012E+02  0.93907604259E+02  0.47000000000E+01 0. -1.
        -11    1    6    6    0    0  0.14460738801E+03  0.40974967923E+02 -0.21142675281E+03  0.25940608410E+03  0.00000000000E+00 0.  1.
         12    1    6    6    0    0  0.54036235474E+02  0.32171735114E+02 -0.20767250490E+03  0.21698572436E+03  0.00000000000E+00 0. -1.
         -5    1    3    3    0  503  0.24697048563E+02 -0.23385376974E+02 -0.38983219016E+02  0.51948064726E+02  0.47000000000E+01 0.  1.
         13    1    4    4    0    0 -0.28567068210E+02  0.62397956658E+01 -0.11941450705E+03  0.12294241306E+03  0.00000000000E+00 0. -1.
        -14    1    4    4    0    0 -0.17562359257E+03 -0.39255294623E+02 -0.25622739638E+03  0.31310877196E+03  0.00000000000E+00 0.  1.
</event>
<event>
12    1  0.8344842E-002  0.2508391E+03  0.7818608E-02  0.1113137E+00
         21   -1    0    0  501  502  0.00000000000E+00  0.00000000000E+00  0.36152702212E+03  0.36152702212E+03  0.00000000000E+00 0.  1.
         21   -1    0    0  502  503 -0.00000000000E+00 -0.00000000000E+00 -0.20181404536E+03  0.20181404536E+03  0.00000000000E+00 0.  1.
         -6    2    1    2    0  503  0.16253747796E+03 -0.74220641758E+02  0.18759118757E+03  0.31322627260E+03  0.17604859781E+03 0.  0.
        -24    2    3    3    0    0  0.37610857540E+01 -0.35145806081E+02  0.59359474579E+02  0.10537476859E+03  0.79567086043E+02 0.  0.
          6    2    1    2  501    0 -0.16253747796E+03  0.74220641758E+02 -0.27878210822E+02  0.25011479488E+03  0.17278044037E+03 0.  0.
         24    2    5    5    0    0 -0.13463195086E+03  0.10697077980E+03 -0.63160920435E+02  0.19427350565E+03  0.64686808596E+02 0.  0.
          5    1    5    5  501    0 -0.27905527100E+02 -0.32750138040E+02  0.35282709613E+02  0.55841289223E+02  0.47000000000E+01 0. -1.
        -13    1    6    6    0    0 -0.98948842064E+02  0.67583996340E+02 -0.72873563143E+02  0.14024630516E+03  0.00000000000E+00 0.  1.
         14    1    6    6    0    0 -0.35683108794E+02  0.39386783459E+02  0.97126427074E+01  0.54027200490E+02  0.00000000000E+00 0. -1.
         -5    1    3    3    0  503  0.15877639220E+03 -0.39074835677E+02  0.12823171300E+03  0.20785150402E+03  0.47000000000E+01 0.  1.
         13    1    4    4    0    0  0.12985776175E+02 -0.49186076172E+02  0.82005563948E+01  0.51528143740E+02  0.00000000000E+00 0. -1.
        -14    1    4    4    0    0 -0.92246904211E+01  0.14040270092E+02  0.51158918184E+02  0.53846624846E+02  0.00000000000E+00 0.  1.
</event>
<event>
12    1  0.8344842E-002  0.3204697E+03  0.7818608E-02  0.1075841E+00
         21   -1    0    0  503  502  0.00000000000E+00  0.00000000000E+00  0.16391794510E+03  0.16391794510E+03  0.00000000000E+00 0. -1.
         21   -1    0    0  501  503 -0.00000000000E+00 -0.00000000000E+00 -0.89634613184E+03  0.89634613184E+03  0.00000000000E+00 0.  1.
          6    2    1    2  501    0 -0.13819323955E+02  0.26989467270E+03 -0.65934751903E+03  0.73156726643E+03  0.16558202316E+03 0.  0.
         24    2    3    3    0    0 -0.52622864450E+01  0.15383584789E+03 -0.52998110209E+03  0.55749649479E+03  0.78925365848E+02 0.  0.
         -6    2    1    2    0  502  0.13819323955E+02 -0.26989467270E+03 -0.73080667718E+02  0.32869681051E+03  0.17224024261E+03 0.  0.
        -24    2    5    5    0    0 -0.31844348466E+02 -0.22505550778E+03 -0.97207567194E+02  0.26014085549E+03  0.80993268016E+02 0.  0.
          5    1    3    3  501    0 -0.85570375105E+01  0.11605882482E+03 -0.12936641694E+03  0.17407077165E+03  0.47000000000E+01 0. -1.
        -11    1    4    4    0    0 -0.40450256372E+02  0.10652972496E+03 -0.34158471597E+03  0.36009016055E+03  0.00000000000E+00 0.  1.
         12    1    4    4    0    0  0.35187969927E+02  0.47306122925E+02 -0.18839638612E+03  0.19740633423E+03  0.00000000000E+00 0. -1.
         -5    1    5    5    0  502  0.45663672421E+02 -0.44839164921E+02  0.24126899476E+02  0.68555955016E+02  0.47000000000E+01 0.  1.
         13    1    6    6    0    0 -0.50285609717E+02 -0.12753597142E+03 -0.81974775745E+02  0.15973080608E+03  0.00000000000E+00 0. -1.
        -14    1    6    6    0    0  0.18441261251E+02 -0.97519536360E+02 -0.15232791449E+02  0.10041004942E+03  0.00000000000E+00 0.  1.
</event>
<event>
12    1  0.8344842E-002  0.2675984E+03  0.7818608E-02  0.1102898E+00
         21   -1    0    0  501  502  0.00000000000E+00  0.00000000000E+00  0.96411410160E+03  0.96411410160E+03  0.00000000000E+00 0. -1.
         21   -1    0    0  502  503 -0.00000000000E+00 -0.00000000000E+00 -0.15931494633E+03  0.15931494633E+03  0.00000000000E+00 0.  1.
         -6    2    1    2    0  503 -0.88453181846E+02 -0.18359443968E+03 -0.96432503369E+01  0.26615118180E+03  0.17091686763E+03 0.  0.
        -24    2    3    3    0    0  0.13712271434E+02 -0.53628682036E+02  0.19975281665E+02  0.98138606556E+02  0.78537330578E+02 0.  0.
          6    2    1    2  501    0  0.88453181846E+02  0.18359443968E+03  0.81444240561E+03  0.85727786613E+03  0.17343017049E+03 0.  0.
         24    2    5    5    0    0  0.51600927336E+02  0.19607269886E+03  0.58196262618E+03  0.62151795974E+03  0.80603455687E+02 0.  0.
          5    1    5    5  501    0  0.36852254509E+02 -0.12478259188E+02  0.23247977943E+03  0.23575990639E+03  0.47000000000E+01 0. -1.
        -13    1    6    6    0    0 -0.18297653407E+02  0.43834960483E+02  0.89196308151E+02  0.10105587201E+03  0.00000000000E+00 0.  1.
         14    1    6    6    0    0  0.69898580744E+02  0.15223773838E+03  0.49276631803E+03  0.52046208772E+03  0.00000000000E+00 0. -1.
         -5    1    3    3    0  503 -0.10216545328E+03 -0.12996575764E+03 -0.29618532002E+02  0.16801257525E+03  0.47000000000E+01 0.  1.
         13    1    4    4    0    0  0.51525441304E+01 -0.10134470675E+02  0.45559686552E+02  0.46956801910E+02  0.00000000000E+00 0. -1.
        -14    1    4    4    0    0  0.85597273041E+01 -0.43494211361E+02 -0.25584404887E+02  0.51181804646E+02  0.00000000000E+00 0.  1.
</event>
<event>
12    1  0.8344842E-002  0.3945885E+03  0.7818608E-02  0.1045700E+00
         21   -1    0    0  501  502  0.00000000000E+00  0.00000000000E+00  0.28923004492E+03  0.28923004492E+03  0.00000000000E+00 0.  1.
         21   -1    0    0  502  503 -0.00000000000E+00 -0.00000000000E+00 -0.76416701234E+03  0.76416701234E+03  0.00000000000E+00 0. -1.
         -6    2    1    2    0  503  0.16529297246E+03 -0.31480760601E+03 -0.52402614641E+03  0.65576679648E+03  0.17029707481E+03 0.  0.
        -24    2    3    3    0    0  0.17024312453E+03 -0.28677102026E+03 -0.52469976539E+03  0.62690336098E+03  0.80483791510E+02 0.  0.
          6    2    1    2  501    0 -0.16529297246E+03  0.31480760601E+03  0.49089179001E+02  0.39763026078E+03  0.17109787037E+03 0.  0.
         24    2    5    5    0    0 -0.60591652050E+02  0.19982146288E+03  0.78821333850E+02  0.23923117417E+03  0.86132378911E+02 0.  0.
          5    1    5    5  501    0 -0.10470132041E+03  0.11498614313E+03 -0.29732154849E+02  0.15839908661E+03  0.47000000000E+01 0. -1.
        -13    1    6    6    0    0 -0.29490370702E+02  0.56953186034E+02  0.66673194043E+02  0.92513037824E+02  0.00000000000E+00 0.  1.
         14    1    6    6    0    0 -0.31101281348E+02  0.14286827685E+03  0.12148139807E+02  0.14671813634E+03  0.00000000000E+00 0. -1.
         -5    1    3    3    0  503 -0.49501520697E+01 -0.28036585754E+02  0.67361897748E+00  0.28863435498E+02  0.47000000000E+01 0.  1.
         13    1    4    4    0    0 -0.32328816305E+01 -0.40708506222E+02 -0.80874320006E+02  0.90599611693E+02  0.00000000000E+00 0. -1.
        -14    1    4    4    0    0  0.17347600616E+03 -0.24606251404E+03 -0.44382544538E+03  0.53630374929E+03  0.00000000000E+00 0.  1.
</event>
<event>
12    1  0.8344842E-002  0.1725557E+03  0.7818608E-02  0.1176206E+00
         21   -1    0    0  501  502  0.00000000000E+00  0.00000000000E+00  0.14582175907E+04  0.14582175907E+04  0.00000000000E+00 0. -1.
         21   -1    0    0  502  503 -0.00000000000E+00 -0.00000000000E+00 -0.12758770674E+03  0.12758770674E+03  0.00000000000E+00 0. -1.
         -6    2    1    2    0  503  0.63759399736E+01  0.73827557502E+01 -0.64079823567E+02  0.18046169695E+03  0.16841924648E+03 0.  0.
        -24    2    3    3    0    0  0.58448903816E+02 -0.44755471234E+01 -0.76136212158E+02  0.12551026916E+03  0.80745278394E+02 0.  0.
          6    2    1    2  501    0 -0.63759399736E+01 -0.73827557502E+01  0.13947097076E+04  0.14053436005E+04  0.17227974196E+03 0.  0.
         24    2    5    5    0    0 -0.59872311289E+02 -0.40985135182E+02  0.97795972954E+03  0.98380639478E+03  0.78773820840E+02 0.  0.
          5    1    5    5  501    0  0.53496371316E+02  0.33602379432E+02  0.41674997802E+03  0.42153720575E+03  0.47000000000E+01 0. -1.
        -11    1    6    6    0    0 -0.57566777558E+02 -0.10745330577E+02  0.33129750002E+03  0.33643339538E+03  0.00000000000E+00 0.  1.
         12    1    6    6    0    0 -0.23055337312E+01 -0.30239804606E+02  0.64666222952E+03  0.64737299940E+03  0.00000000000E+00 0. -1.
         -5    1    3    3    0  503 -0.52072963842E+02  0.11858302874E+02  0.12056388591E+02  0.54951427790E+02  0.47000000000E+01 0.  1.
         11    1    4    4    0    0 -0.45676355586E+01 -0.28200090663E+02 -0.78879896197E+01  0.29636612294E+02  0.00000000000E+00 0. -1.
        -12    1    4    4    0    0  0.63016539374E+02  0.23724543540E+02 -0.68248222538E+02  0.95873656864E+02  0.00000000000E+00 0.  1.
</event>
<event>
12    1  0.8344842E-002  0.2344145E+03  0.7818608E-02  0.1124481E+00
         21   -1    0    0  503  502  0.00000000000E+00  0.00000000000E+00  0.13878981177E+04  0.13878981177E+04  0.00000000000E+00 0.  1.
         21   -1    0    0  501  503 -0.00000000000E+00 -0.00000000000E+00 -0.40884136367E+02  0.40884136367E+02  0.00000000000E+00 0. -1.
          6    2    1    2  501    0  0.14159259412E+03  0.42418878947E+02  0.83092780830E+03  0.86195326960E+03  0.17514163514E+03 0.  0.
         24    2    3    3    0    0  0.90828443544E+02  0.48742034857E+02  0.77517144692E+03  0.78613873855E+03  0.80608634774E+02 0.  0.
         -6    2    1    2    0  502 -0.14159259412E+03 -0.42418878947E+02  0.51608617302E+03  0.56682898446E+03  0.18194047279E+03 0.  0.
        -24    2    5    5    0    0 -0.13662732317E+02  0.31432948474E+02  0.20347267634E+03  0.22104085530E+03  0.79266822784E+02 0.  0.
          5    1    3    3  501    0  0.50764150576E+02 -0.63231559098E+01  0.55756361378E+02  0.75814531051E+02  0.47000000000E+01 0. -1.
        -13    1    4    4    0    0  0.90713310845E+02  0.65624043745E+02  0.71205038852E+03  0.72079898424E+03  0.00000000000E+00 0.  1.
         14    1    4    4    0    0  0.11513269862E+00 -0.16882008888E+02  0.63121058401E+02  0.65339754310E+02  0.00000000000E+00 0. -1.
         -5    1    5    5    0  502 -0.12792986180E+03 -0.73851827421E+02  0.31261349668E+03  0.34578812915E+03  0.47000000000E+01 0.  1.
         13    1    6    6    0    0 -0.25071488924E+02  0.26976289943E+01  0.13565695069E+02  0.28633631306E+02  0.00000000000E+00 0. -1.
        -14    1    6    6    0    0  0.11408756607E+02  0.28735319480E+02  0.18990698127E+03  0.19240722400E+03  0.00000000000E+00 0.  1.
</event>
<event>
12    1  0.8344842E-002  0.2381890E+03  0.7818608E-02  0.1121043E+00
         21   -1    0    0  503  502  0.00000000000E+00  0.00000000000E+00  0.60734470228E+03  0.60734470228E+03  0.00000000000E+00 0.  1.
         21   -1    0    0  501  503 -0.00000000000E+00 -0.00000000000E+00 -0.10228373921E+03  0.10228373921E+03  0.00000000000E+00 0.  1.
          6    2    1    2  501    0 -0.13581270914E+03 -0.92611219852E+02  0.35764532708E+03  0.42970242651E+03  0.17237188099E+03 0.  0.
         24    2    3    3    0    0 -0.84446342609E+02 -0.28966738410E+02  0.31401127236E+03  0.33688462455E+03  0.83174000598E+02 0.  0.
         -6    2    1    2    0  502  0.13581270914E+03  0.92611219852E+02  0.14741563598E+03  0.27992601498E+03  0.17206183227E+03 0.  0.
        -24    2    5    5    0    0  0.32775610044E+02 -0.71740165487E+01  0.90233587124E+02  0.12544101925E+03  0.80421650934E+02 0.  0.
          5    1    3    3  501    0 -0.51366366533E+02 -0.63644481442E+02  0.43634054721E+02  0.92817801957E+02  0.47000000000E+01 0. -1.
        -11    1    4    4    0    0 -0.49338711179E+02 -0.27780304505E+02  0.68497014532E+02  0.88870100366E+02  0.00000000000E+00 0.  1.
         12    1    4    4    0    0 -0.35107631430E+02 -0.11864339048E+01  0.24551425783E+03  0.24801452418E+03  0.00000000000E+00 0. -1.
         -5    1    5    5    0  502  0.10303709910E+03  0.99785236401E+02  0.57182048859E+02  0.15448499573E+03  0.47000000000E+01 0.  1.
         11    1    6    6    0    0  0.59018411523E+02 -0.80389104015E+01  0.52052596609E+02  0.79102906349E+02  0.00000000000E+00 0. -1.
        -12    1    6    6    0    0 -0.26242801479E+02  0.86489385282E+00  0.38180990515E+02  0.46338112905E+02  0.00000000000E+00 0.  1.
</event>
<event>
12    1  0.8344842E-002  0.2447495E+03  0.7818608E-02  0.1116729E+00
         21   -1    0    0  501  502  0.00000000000E+00  0.00000000000E+00  0.33695324503E+03  0.33695324503E+03  0.00000000000E+00 0. -1.
         21   -1    0    0  502  503 -0.00000000000E+00 -0.00000000000E+00 -0.22359946138E+03  0.22359946138E+03  0.00000000000E+00 0.  1.
         -6    2    1    2    0  503  0.13910816196E+03  0.10469667309E+03 -0.70540904944E+02  0.25471226968E+03  0.17201699617E+03 0.  0.
        -24    2    3    3    0    0  0.42555486843E+02  0.76147849205E+02 -0.94407360087E+02  0.15113064921E+03  0.79487477580E+02 0.  0.
          6    2    1    2  501    0 -0.13910816196E+03 -0.10469667309E+03  0.18389468859E+03  0.30584043674E+03  0.17148948122E+03 0.  0.
         24    2    5    5    0    0 -0.16209754210E+03 -0.91843214110E+02  0.11708218685E+03  0.23387014150E+03  0.79222569233E+02 0.  0.
          5    1    5    5  501    0  0.22989380140E+02 -0.12853458983E+02  0.66812501742E+02  0.71970295234E+02  0.47000000000E+01 0. -1.
        -11    1    6    6    0    0 -0.11861966250E+03 -0.88198847771E+02  0.11963728951E+03  0.19016503917E+03  0.00000000000E+00 0.  1.
         12    1    6    6    0    0 -0.43477879603E+02 -0.36443663384E+01 -0.25551026603E+01  0.43705102338E+02  0.00000000000E+00 0. -1.
         -5    1    3    3    0  503  0.96552675119E+02  0.28548823887E+02  0.23866455143E+02  0.10358162047E+03  0.47000000000E+01 0.  1.
         13    1    4    4    0    0  0.16267733578E+02 -0.63931145305E+01  0.60365411812E+01  0.18491914412E+02  0.00000000000E+00 0. -1.
        -14    1    4    4    0    0  0.26287753265E+02  0.82540963735E+02 -0.10044390127E+03  0.13263873480E+03  0.00000000000E+00 0.  1.
</event>
<event>
12    1  0.8344842E-002  0.1958057E+03  0.7818608E-02  0.1153773E+00
         21   -1    0    0  501  502  0.00000000000E+00  0.00000000000E+00  0.25161275689E+03  0.25161275689E+03  0.00000000000E+00 0.  1.
         21   -1    0    0  502  503 -0.00000000000E+00 -0.00000000000E+00 -0.23820833311E+03  0.23820833311E+03  0.00000000000E+00 0.  1.
         -6    2    1    2    0  503 -0.54407530490E+02 -0.69787490381E+02 -0.14164170119E+03  0.24166557070E+03  0.17466941163E+03 0.  0.
        -24    2    3    3    0    0 -0.78783463782E+02  0.42013960725E+01 -0.51878299875E+02  0.12271978617E+03  0.78385598327E+02 0.  0.
          6    2    1    2  501    0  0.54407530490E+02  0.69787490381E+02  0.15504612496E+03  0.24815551930E+03  0.17236991531E+03 0.  0.
         24    2    5    5    0    0  0.35419120507E+02  0.80140820632E+02  0.17958125877E+03  0.21511291117E+03  0.79668505814E+02 0.  0.
          5    1    5    5  501    0  0.18988409983E+02 -0.10353330250E+02 -0.24535133810E+02  0.33042608130E+02  0.47000000000E+01 0. -1.
        -11    1    6    6    0    0  0.36390660942E+02  0.21156092316E+01  0.85075562914E+02  0.92555969075E+02  0.00000000000E+00 0.  1.
         12    1    6    6    0    0 -0.97154043529E+00  0.78025211400E+02  0.94505695860E+02  0.12255694209E+03  0.00000000000E+00 0. -1.
         -5    1    3    3    0  503  0.24375933292E+02 -0.73988886454E+02 -0.89763401312E+02  0.11894578453E+03  0.47000000000E+01 0.  1.
         13    1    4    4    0    0 -0.79803379006E+02  0.17792346445E+02 -0.64502094540E+02  0.10414253258E+03  0.00000000000E+00 0. -1.
        -14    1    4    4    0    0  0.10199152237E+01 -0.13590950372E+02  0.12623794665E+02  0.18577253587E+02  0.00000000000E+00 0.  1.
</event>
<event>
12    1  0.8344842E-002  0.2193469E+03  0.7818608E-02  0.1134613E+00
         21   -1    0    0  503  502  0.00000000000E+00  0.00000000000E+00  0.24755694600E+03  0.24755694600E+03  0.00000000000E+00 0.  1.
         21   -1    0    0  501  503 -0.00000000000E+00 -0.00000000000E+00 -0.44637577582E+03  0.44637577582E+03  0.00000000000E+00 0.  1.
          6    2    1    2  501    0 -0.49652300859E+02  0.12658681868E+03 -0.36058276901E+03  0.42138796005E+03  0.17046496978E+03 0.  0.
         24    2    3    3    0    0 -0.22068358774E+02  0.45483934214E+02 -0.30465254955E+03  0.31897296516E+03  0.79842193269E+02 0.  0.
         -6    2    1    2    0  502  0.49652300859E+02 -0.12658681868E+03  0.16176393919E+03  0.27254476177E+03  0.17211479165E+03 0.  0.
        -24    2    5    5    0    0  0.64674926315E+02 -0.36247344048E+02  0.32874564101E+02  0.11436302780E+03  0.80631564036E+02 0.  0.
          5    1    3    3  501    0 -0.27583942085E+02  0.81102884462E+02 -0.55930219465E+02  0.10241499489E+03  0.47000000000E+01 0. -1.
        -11    1    4    4    0    0 -0.47732887187E+02  0.49211784589E+02 -0.21898966650E+03  0.22947048240E+03  0.00000000000E+00 0.  1.
         12    1    4    4    0    0  0.25664528413E+02 -0.37278503743E+01 -0.85662883048E+02  0.89502482754E+02  0.00000000000E+00 0. -1.
         -5    1    5    5    0  502 -0.15022625457E+02 -0.90339474628E+02  0.12888937509E+03  0.15818173397E+03  0.47000000000E+01 0.  1.
         11    1    6    6    0    0 -0.99823930154E+01  0.15685452279E+02  0.56267205729E+01  0.19425281669E+02  0.00000000000E+00 0. -1.
        -12    1    6    6    0    0  0.74657319331E+02 -0.51932796327E+02  0.27247843528E+02  0.94937746134E+02  0.00000000000E+00 0.  1.
</event>
<event>
12    1  0.8344842E-002  0.1776518E+03  0.7818608E-02  0.1170174E+00
         21   -1    0    0  503  502  0.00000000000E+00  0.00000000000E+00  0.61385778922E+03  0.61385778922E+03  0.00000000000E+00 0.  1.
         21   -1    0    0  501  503 -0.00000000000E+00 -0.00000000000E+00 -0.53593102829E+02  0.53593102829E+02  0.00000000000E+00 0.  1.
          6    2    1    2  501    0 -0.41154577832E+02  0.20181036168E+02  0.34861920080E+03  0.39112868876E+03  0.17130478834E+03 0.  0.
         24    2    3    3    0    0  0.23002669194E+02  0.19547045391E+02  0.29418446907E+03  0.30685660377E+03  0.81885674325E+02 0.  0.
         -6    2    1    2    0  502  0.41154577832E+02 -0.20181036168E+02  0.21164548560E+03  0.27632220330E+03  0.17163675295E+03 0.  0.
        -24    2    5    5    0    0  0.17982925336E+02  0.22468617433E+01  0.23152858759E+03  0.23814676841E+03  0.52725349138E+02 0.  0.
          5    1    3    3  501    0 -0.64157247026E+02  0.63399077788E+00  0.54434731727E+02  0.84272084990E+02  0.47000000000E+01 0. -1.
        -11    1    4    4    0    0 -0.20489452471E+02 -0.86272483854E+01  0.28395902141E+02  0.36063476478E+02  0.00000000000E+00 0.  1.
         12    1    4    4    0    0  0.43492121666E+02  0.28174293776E+02  0.26578856693E+03  0.27079312729E+03  0.00000000000E+00 0. -1.
         -5    1    5    5    0  502  0.23171652496E+02 -0.22427897912E+02 -0.19883101990E+02  0.38175434888E+02  0.47000000000E+01 0.  1.
         11    1    6    6    0    0  0.36614141563E+01  0.26687585640E+02  0.97191592614E+02  0.10085553458E+03  0.00000000000E+00 0. -1.
        -12    1    6    6    0    0  0.14321511180E+02 -0.24440723897E+02  0.13433699497E+03  0.13729123383E+03  0.00000000000E+00 0.  1.
</event>
<event>
12    1  0.8344842E-002  0.2068939E+03  0.7818608E-02  0.1144207E+00
         21   -1    0    0  503  502  0.00000000000E+00  0.00000000000E+00  0.12873654352E+03  0.12873654352E+03  0.00000000000E+00 0.  1.
         21   -1    0    0  501  503 -0.00000000000E+00 -0.00000000000E+00 -0.39356647652E+03  0.39356647652E+03  0.00000000000E+00 0.  1.
          6    2    1    2  501    0  0.40149878356E+02 -0.10574181933E+03 -0.28711975822E+02  0.20887664042E+03  0.17323893405E+03 0.  0.
         24    2    3    3    0    0 -0.20232729241E+02 -0.73729523447E+02 -0.67898696482E+02  0.12995556932E+03  0.80204806916E+02 0.  0.
         -6    2    1    2    0  502 -0.40149878356E+02  0.10574181933E+03 -0.23611795719E+03  0.31342637962E+03  0.17231094176E+03 0.  0.
        -24    2    5    5    0    0 -0.95149881595E+02  0.53555073481E+02 -0.14763499027E+03  0.19680827540E+03  0.70822037893E+02 0.  0.
          5    1    3    3  501    0  0.60382607597E+02 -0.32012295880E+02  0.39186720660E+02  0.78921071101E+02  0.47000000000E+01 0. -1.
        -11    1    4    4    0    0  0.34431811026E+01 -0.83396621347E+02 -0.41552392627E+02  0.93238689830E+02  0.00000000000E+00 0.  1.
         12    1    4    4    0    0 -0.23675910343E+02  0.96670979009E+01 -0.26346303855E+02  0.36716879487E+02  0.00000000000E+00 0. -1.
         -5    1    5    5    0  502  0.55000003239E+02  0.52186745846E+02 -0.88482966910E+02  0.11661810422E+03  0.47000000000E+01 0.  1.
         11    1    6    6    0    0 -0.58356028665E+02 -0.44481213520E+01 -0.47484102410E+02  0.75365455262E+02  0.00000000000E+00 0. -1.
        -12    1    6    6    0    0 -0.36793852930E+02  0.58003194833E+02 -0.10015088786E+03  0.12144282014E+03  0.00000000000E+00 0.  1.
</event>
<event>
12    1  0.8344842E-002  0.2175980E+03  0.7818608E-02  0.1135855E+00
         21   -1    0    0  503  502  0.00000000000E+00  0.00000000000E+00  0.52764273547E+03  0.52764273547E+03  0.00000000000E+00 0.  1.
         21   -1    0    0  501  503 -0.00000000000E+00 -0.00000000000E+00 -0.15271609632E+03  0.15271609632E+03  0.00000000000E+00 0. -1.
          6    2    1    2  501    0  0.96215257792E+02 -0.92895587127E+02 -0.31402145368E+02  0.21985222459E+03  0.17164480762E+03 0.  0.
         24    2    3    3    0    0 -0.14448921901E+02 -0.37301839027E+02 -0.35695667870E+02  0.95845169018E+02  0.79447575044E+02 0.  0.
         -6    2    1    2    0  502 -0.96215257792E+02  0.92895587127E+02  0.40632878452E+03  0.46050660721E+03  0.17051770645E+03 0.  0.
        -24    2    5    5    0    0  0.56602440527E+01  0.72206310659E+02  0.25429578298E+03  0.27627092229E+03  0.80084253158E+02 0.  0.
          5    1    3    3  501    0  0.11066417969E+03 -0.55593748100E+02  0.42935225025E+01  0.12400705557E+03  0.47000000000E+01 0. -1.
        -13    1    4    4    0    0 -0.16384137412E+02 -0.39098635379E+02  0.15084409561E+02  0.44996473851E+02  0.00000000000E+00 0.  1.
         14    1    4    4    0    0  0.19352155112E+01  0.17967963521E+01 -0.50780077431E+02  0.50848695166E+02  0.00000000000E+00 0. -1.
         -5    1    5    5    0  502 -0.10187550185E+03  0.20689276468E+02  0.15203300155E+03  0.18423568491E+03  0.47000000000E+01 0.  1.
         11    1    6    6    0    0  0.89361897251E+00  0.88774173348E+02  0.19023601424E+03  0.20993187829E+03  0.00000000000E+00 0. -1.
        -12    1    6    6    0    0  0.47666250802E+01 -0.16567862689E+02  0.64059768740E+02  0.66339044007E+02  0.00000000000E+00 0.  1.
</event>
<event>
12    1  0.8344842E-002  0.2721392E+03  0.7818608E-02  0.1100348E+00
         21   -1    0    0  501  502  0.00000000000E+00  0.00000000000E+00  0.96540551740E+03  0.96540551740E+03  0.00000000000E+00 0.  1.
         21   -1    0    0  502  503 -0.00000000000E+00 -0.00000000000E+00 -0.19439708479E+03  0.19439708479E+03  0.00000000000E+00 0. -1.
         -6    2    1    2    0  503 -0.14094634033E+03  0.15629615944E+03 -0.66217171021E+02  0.28007939852E+03  0.17252650646E+03 0.  0.
        -24    2    3    3    0    0 -0.25163419328E+02  0.94777904726E+02  0.11017062696E+02  0.12783815143E+03  0.81272187085E+02 0.  0.
          6    2    1    2  501    0  0.14094634033E+03 -0.15629615944E+03  0.83722560363E+03  0.87972320367E+03  0.16932762144E+03 0.  0.
         24    2    5    5    0    0  0.12910731696E+03 -0.16441163367E+03  0.57998040598E+03  0.62203501008E+03  0.82767130371E+02 0.  0.
          5    1    5    5  501    0  0.11839023368E+02  0.81154742302E+01  0.25724519766E+03  0.25768819359E+03  0.47000000000E+01 0. -1.
        -13    1    6    6    0    0 -0.78642567519E+01 -0.35700715952E+02  0.82718794751E+02  0.90436644447E+02  0.00000000000E+00 0.  1.
         14    1    6    6    0    0  0.13697157372E+03 -0.12871091772E+03  0.49726161123E+03  0.53159836563E+03  0.00000000000E+00 0. -1.
         -5    1    3    3    0  503 -0.11578292100E+03  0.61518254715E+02 -0.77234233717E+02  0.15224124710E+03  0.47000000000E+01 0.  1.
         11    1    4    4    0    0  0.20707101468E+02  0.15900446597E+02 -0.18431402456E+02  0.31958173441E+02  0.00000000000E+00 0. -1.
        -12    1    4    4    0    0 -0.45870520796E+02  0.78877458129E+02  0.29448465152E+02  0.95879977987E+02  0.00000000000E+00 0.  1.
</event>
<event>
12    1  0.8344842E-002  0.2078095E+03  0.7818608E-02  0.1144667E+00
         21   -1    0    0  503  502  0.00000000000E+00  0.00000000000E+00  0.91930852250E+03  0.91930852250E+03  0.00000000000E+00 0. -1.
         21   -1    0    0  501  503 -0.00000000000E+00 -0.00000000000E+00 -0.45752168239E+02  0.45752168239E+02  0.00000000000E+00 0.  1.
          6    2    1    2  501    0 -0.12940176155E+02 -0.10417610235E+03  0.48049140221E+03  0.52350431940E+03  0.17934513201E+03 0.  0.
         24    2    3    3    0    0 -0.74502558271E+02 -0.40805709244E+02  0.31991875499E+03  0.34017020187E+03  0.78434809579E+02 0.  0.
         -6    2    1    2    0  502  0.12940176155E+02  0.10417610235E+03  0.39306495206E+03  0.44155637134E+03  0.17161545408E+03 0.  0.
        -24    2    5    5    0    0  0.10016891257E+02  0.12660388259E+03  0.39079063311E+03  0.41834401585E+03  0.78520796450E+02 0.  0.
          5    1    3    3  501    0  0.61562382116E+02 -0.63370393104E+02  0.16057264722E+03  0.18333411753E+03  0.47000000000E+01 0. -1.
        -11    1    4    4    0    0 -0.30398359528E+02  0.18449421586E+02  0.57982251644E+02  0.68017519247E+02  0.00000000000E+00 0.  1.
         12    1    4    4    0    0 -0.44104198743E+02 -0.59255130830E+02  0.26193650334E+03  0.27215268263E+03  0.00000000000E+00 0. -1.
         -5    1    5    5    0  502  0.29232848977E+01 -0.22427780237E+02  0.22743189513E+01  0.23212355496E+02  0.47000000000E+01 0.  1.
         13    1    6    6    0    0  0.41753058394E+02  0.62953970736E+02  0.16186974205E+03  0.17862903937E+03  0.00000000000E+00 0. -1.
        -14    1    6    6    0    0 -0.31736167136E+02  0.63649911849E+02  0.22892089106E+03  0.23971497647E+03  0.00000000000E+00 0.  1.
</event>
<event>
12    1  0.8344842E-002  0.2471231E+03  0.7818608E-02  0.1115930E+00
         21   -1    0    0  503  502  0.00000000000E+00  0.00000000000E+00  0.14190585182E+04  0.14190585182E+04  0.00000000000E+00 0.  1.
         21   -1    0    0  501  503 -0.00000000000E+00 -0.00000000000E+00 -0.42472504033E+02  0.42472504033E+02  0.00000000000E+00 0.  1.
          6    2    1    2  501    0 -0.51039562736E+02 -0.16869193756E+03  0.63527064224E+03  0.68164404710E+03  0.17322762856E+03 0.  0.
         24    2    3    3    0    0 -0.46825878257E+02 -0.99196237114E+02  0.19957834689E+03  0.24039890690E+03  0.76990658933E+02 0.  0.
         -6    2    1    2    0  502  0.51039562736E+02  0.16869193756E+03  0.74131537196E+03  0.77988697517E+03  0.16617221959E+03 0.  0.
        -24    2    5    5    0    0  0.59786654987E+02  0.10532718128E+03  0.66248351776E+03  0.67825944347E+03  0.80518334107E+02 0.  0.
          5    1    3    3  501    0 -0.42136844797E+01 -0.69495700444E+02  0.43569229536E+03  0.44124514020E+03  0.47000000000E+01 0. -1.
        -11    1    4    4    0    0 -0.67188476094E+02 -0.71885844079E+02  0.13112955329E+03  0.16394153118E+03  0.00000000000E+00 0.  1.
         12    1    4    4    0    0  0.20362597837E+02 -0.27310393035E+02  0.68448793591E+02  0.76457375723E+02  0.00000000000E+00 0. -1.
         -5    1    5    5    0  502 -0.87470922502E+01  0.63364756278E+02  0.78831854208E+02  0.10162753170E+03  0.47000000000E+01 0.  1.
         11    1    6    6    0    0 -0.97693705544E+01  0.14122000150E+02  0.23590469264E+03  0.23652884708E+03  0.00000000000E+00 0. -1.
        -12    1    6    6    0    0  0.69556025541E+02  0.91205181130E+02  0.42657882512E+03  0.44173059640E+03  0.00000000000E+00 0.  1.
</event>
<event>
12    1  0.8344842E-002  0.2128749E+03  0.7818608E-02  0.1139482E+00
         21   -1    0    0  501  502  0.00000000000E+00  0.00000000000E+00  0.15742131375E+03  0.15742131375E+03  0.00000000000E+00 0.  1.
         21   -1    0    0  502  503 -0.00000000000E+00 -0.00000000000E+00 -0.33893577665E+03  0.33893577665E+03  0.00000000000E+00 0. -1.
         -6    2    1    2    0  503  0.30896101972E+02 -0.12148885314E+03 -0.18837685900E+03  0.28425617517E+03  0.17205121784E+03 0.  0.
        -24    2    3    3    0    0 -0.12200936744E+02 -0.76721489046E+01 -0.66801305143E+02  0.11216810991E+03  0.88946870576E+02 0.  0.
          6    2    1    2  501    0 -0.30896101972E+02  0.12148885314E+03  0.68623960981E+01  0.21210091524E+03  0.17095495082E+03 0.  0.
         24    2    5    5    0    0  0.12860438271E+02  0.86447149748E+02  0.61487068628E+02  0.13368853969E+03  0.80333464153E+02 0.  0.
          5    1    5    5  501    0 -0.43756540242E+02  0.35041703394E+02 -0.54624672530E+02  0.78412375552E+02  0.47000000000E+01 0. -1.
        -11    1    6    6    0    0 -0.14723284352E+02  0.59334069318E+02  0.71165491277E+02  0.93818090114E+02  0.00000000000E+00 0.  1.
         12    1    6    6    0    0  0.27583722622E+02  0.27113080430E+02 -0.96784226488E+01  0.39870449572E+02  0.00000000000E+00 0. -1.
         -5    1    3    3    0  503  0.43097038715E+02 -0.11381670424E+03 -0.12157555385E+03  0.17208806526E+03  0.47000000000E+01 0.  1.
         13    1    4    4    0    0 -0.30918467373E+02 -0.40295979662E+02 -0.27454389291E+02  0.57736133339E+02  0.00000000000E+00 0. -1.
        -14    1    4    4    0    0  0.18717530629E+02  0.32623830758E+02 -0.39346915851E+02  0.54431976569E+02  0.00000000000E+00 0.  1.
</event>
<event>
12    1  0.8344842E-002  0.1875260E+03  0.7818608E-02  0.1161035E+00
         21   -1    0    0  503  502  0.00000000000E+00  0.00000000000E+00  0.10398809788E+04  0.10398809788E+04  0.00000000000E+00 0.  1.
         21   -1    0    0  501  503 -0.00000000000E+00 -0.00000000000E+00 -0.14984433307E+03  0.14984433307E+03  0.00000000000E+00 0.  1.
          6    2    1    2  501    0 -0.64832842753E+02 -0.28055303843E+02 -0.79376199214E+02  0.20234125498E+03  0.17219467150E+03 0.  0.
         24    2    3    3    0    0 -0.97505273553E+02  0.20254706954E+02 -0.62988277389E+02  0.14157943424E+03  0.78483638979E+02 0.  0.
         -6    2    1    2    0  502  0.64832842753E+02  0.28055303843E+02  0.96941284492E+03  0.98738405686E+03  0.17371129575E+03 0.  0.
        -24    2    5    5    0    0  0.10950117607E+03  0.72007578500E+01  0.65778128028E+03  0.67184246821E+03  0.81570404710E+02 0.  0.
          5    1    3    3  501    0  0.32672430801E+02 -0.48310010796E+02 -0.16387921824E+02  0.60761820737E+02  0.47000000000E+01 0. -1.
        -11    1    4    4    0    0 -0.14694627341E+02  0.29569565972E+01 -0.54538192724E+02  0.56560499738E+02  0.00000000000E+00 0.  1.
         12    1    4    4    0    0 -0.82810646212E+02  0.17297750356E+02 -0.84500846656E+01  0.85018934504E+02  0.00000000000E+00 0. -1.
         -5    1    5    5    0  502 -0.44668333315E+02  0.20854545993E+02  0.31163156464E+03  0.31554158865E+03  0.47000000000E+01 0.  1.
         11    1    6    6    0    0  0.58000759306E+02 -0.22910523899E+02  0.48625969784E+03  0.49024226044E+03  0.00000000000E+00 0. -1.
        -12    1    6    6    0    0  0.51500416762E+02  0.30111281749E+02  0.17152158245E+03  0.18160020777E+03  0.00000000000E+00 0.  1.
</event>
<event>
12    1  0.8344842E-002  0.3705542E+03  0.7818608E-02  0.1054545E+00
         21   -1    0    0  503  502  0.00000000000E+00  0.00000000000E+00  0.90990173461E+02  0.90990173461E+02  0.00000000000E+00 0.  1.
         21   -1    0    0  501  503 -0.00000000000E+00 -0.00000000000E+00 -0.15835401849E+04  0.15835401849E+04  0.00000000000E+00 0. -1.
          6    2    1    2  501    0  0.15391555513E+03 -0.28966048959E+03 -0.93176080476E+03  0.10027405484E+04  0.17238681146E+03 0.  0.
         24    2    3    3    0    0  0.14361936338E+03 -0.22434530846E+03 -0.86515634127E+03  0.90877071809E+03  0.80071119996E+02 0.  0.
         -6    2    1    2    0  502 -0.15391555513E+03  0.28966048959E+03 -0.56078920671E+03  0.67178981000E+03  0.17094975027E+03 0.  0.
        -24    2    5    5    0    0 -0.83903002037E+02  0.27474516015E+03 -0.48280774601E+03  0.56583027595E+03  0.67349571644E+02 0.  0.
          5    1    3    3  501    0  0.10296191753E+02 -0.65315181124E+02 -0.66604463492E+02  0.93969830302E+02  0.47000000000E+01 0. -1.
        -13    1    4    4    0    0  0.24140888374E+02 -0.60595023764E+02 -0.12053714332E+03  0.13705379351E+03  0.00000000000E+00 0.  1.
         14    1    4    4    0    0  0.11947847500E+03 -0.16375028470E+03 -0.74461919795E+03  0.77171692458E+03  0.00000000000E+00 0. -1.
         -5    1    5    5    0  502 -0.70012553093E+02  0.14915329441E+02 -0.77981460696E+02  0.10595953405E+03  0.47000000000E+01 0.  1.
         13    1    6    6    0    0 -0.95307694351E+01  0.25961135981E+02 -0.96346884310E+02  0.10023740950E+03  0.00000000000E+00 0. -1.
        -14    1    6    6    0    0 -0.74372232602E+02  0.24878402416E+03 -0.38646086170E+03  0.46559286645E+03  0.00000000000E+00 0.  1.
</event>
<event>
12    1  0.8344842E-002  0.1795956E+03  0.7818608E-02  0.1168977E+00
         21   -1    0    0  503  502  0.00000000000E+00  0.00000000000E+00  0.77763806527E+03  0.77763806527E+03  0.00000000000E+00 0. -1.
         21   -1    0    0  501  503 -0.00000000000E+00 -0.00000000000E+00 -0.40799955036E+02  0.40799955036E+02  0.00000000000E+00 0.  1.
          6    2    1    2  501    0 -0.91068648751E+01 -0.32236999952E+02  0.38684400755E+03  0.42650071978E+03  0.17644381157E+03 0.  0.
         24    2    3    3    0    0 -0.59015218308E+02 -0.52394182078E+02  0.19911458986E+03  0.23115082855E+03  0.86926056739E+02 0.  0.
         -6    2    1    2    0  502  0.91068648751E+01  0.32236999952E+02  0.34999410269E+03  0.39193730053E+03  0.17319589048E+03 0.  0.
        -24    2    5    5    0    0  0.42596793748E+02 -0.10433208376E+02  0.98069701737E+02  0.13419650863E+03  0.80421998580E+02 0.  0.
          5    1    3    3  501    0  0.49908353433E+02  0.20157182126E+02  0.18772941769E+03  0.19534989122E+03  0.47000000000E+01 0. -1.
        -11    1    4    4    0    0 -0.57267912359E+01 -0.58208674802E+02  0.13785138714E+03  0.14974662232E+03  0.00000000000E+00 0.  1.
         12    1    4    4    0    0 -0.53288427072E+02  0.58144927248E+01  0.61263202718E+02  0.81404206235E+02  0.00000000000E+00 0. -1.
         -5    1    5    5    0  502 -0.33489928873E+02  0.42670208328E+02  0.25192440095E+03  0.25774079190E+03  0.47000000000E+01 0.  1.
         11    1    6    6    0    0  0.25821658158E+02  0.34080378569E+02  0.57636565783E+02  0.71764921436E+02  0.00000000000E+00 0. -1.
        -12    1    6    6    0    0  0.16775135590E+02 -0.44513586945E+02  0.40433135954E+02  0.62431587196E+02  0.00000000000E+00 0.  1.
</event>
<event>
12    1  0.8344842E-002  0.1813180E+03  0.7818608E-02  0.1166715E+00
         21   -1    0    0  501  502  0.00000000000E+00  0.00000000000E+00  0.59454689432E+03  0.59454689432E+03  0.00000000000E+00 0. -1.
         21   -1    0    0  502  503 -0.00000000000E+00 -0.00000000000E+00 -0.43670733976E+03  0.43670733976E+03  0.00000000000E+00 0. -1.
         -6    2    1    2    0  503 -0.49362482860E+02  0.21388219475E+02 -0.40312436999E+03  0.44171480567E+03  0.17236183228E+03 0.  0.
        -24    2    3    3    0    0 -0.20547540520E+02 -0.35554501992E+02 -0.33515186387E+03  0.34835996639E+03  0.85682963848E+02 0.  0.
          6    2    1    2  501    0  0.49362482860E+02 -0.21388219475E+02  0.56096392455E+03  0.58953942841E+03  0.17315340702E+03 0.  0.
         24    2    5    5    0    0 -0.28573439765E+02  0.17800123687E+02  0.22179669176E+03  0.23930202883E+03  0.83297074735E+02 0.  0.
          5    1    5    5  501    0  0.77935922625E+02 -0.39188343163E+02  0.33916723278E+03  0.35023739959E+03  0.47000000000E+01 0. -1.
        -13    1    6    6    0    0  0.17283228038E+02  0.34498824839E+02  0.12622667506E+03  0.13199262246E+03  0.00000000000E+00 0.  1.
         14    1    6    6    0    0 -0.45856667803E+02 -0.16698701152E+02  0.95570016701E+02  0.10730940636E+03  0.00000000000E+00 0. -1.
         -5    1    3    3    0  503 -0.28814942340E+02  0.56942721467E+02 -0.67972506118E+02  0.93354839286E+02  0.47000000000E+01 0.  1.
         11    1    4    4    0    0 -0.86738954446E+01 -0.23690610828E+02 -0.32976950357E+03  0.33073313561E+03  0.00000000000E+00 0. -1.
        -12    1    4    4    0    0 -0.11873645075E+02 -0.11863891164E+02 -0.53823602958E+01  0.17626830778E+02  0.00000000000E+00 0.  1.
</event>
<event>
12    1  0.8344842E-002  0.2030549E+03  0.7818608E-02  0.1147459E+00
         21   -1    0    0  501  502  0.00000000000E+00  0.00000000000E+00  0.64330629164E+02  0.64330629164E+02  0.00000000000E+00 0.  1.
         21   -1    0    0  502  503 -0.00000000000E+00 -0.00000000000E+00 -0.67394682430E+03  0.67394682430E+03  0.00000000000E+00 0.  1.
         -6    2    1    2    0  503 -0.10718169046E+03 -0.12038640211E+02 -0.39054421751E+03  0.43957391155E+03  0.17049221173E+03 0.  0.
        -24    2    3    3    0    0 -0.31859934225E+01 -0.13841804129E+02 -0.26168378366E+03  0.27390720454E+03  0.79655558303E+02 0.  0.
          6    2    1    2  501    0  0.10718169046E+03  0.12038640211E+02 -0.21907197763E+03  0.29870354192E+03  0.17204194530E+03 0.  0.
         24    2    5    5    0    0  0.61564934765E+02 -0.48499861769E+02 -0.75700516373E+02  0.13645908276E+03  0.82146426006E+02 0.  0.
          5    1    5    5  501    0  0.45616755695E+02  0.60538501980E+02 -0.14337146126E+03  0.16224445915E+03  0.47000000000E+01 0. -1.
        -11    1    6    6    0    0  0.37308795256E+02 -0.36618985775E+02 -0.91344602088E+02  0.10524605766E+03  0.00000000000E+00 0.  1.
         12    1    6    6    0    0  0.24256139509E+02 -0.11880875994E+02  0.15644085714E+02  0.31213025104E+02  0.00000000000E+00 0. -1.
         -5    1    3    3    0  503 -0.10399569704E+03  0.18031639182E+01 -0.12886043384E+03  0.16566670701E+03  0.47000000000E+01 0.  1.
         11    1    4    4    0    0 -0.19544434006E+02  0.25021686783E+02 -0.17069811431E+03  0.17362579284E+03  0.00000000000E+00 0. -1.
        -12    1    4    4    0    0  0.16358440584E+02 -0.38863490912E+02 -0.90985669356E+02  0.10028141170E+03  0.00000000000E+00 0.  1.
</event>
<event>
12    1  0.8344842E-002  0.1801427E+03  0.7818608E-02  0.1168092E+00
         21   -1    0    0  503  502  0.00000000000E+00  0.00000000000E+00  0.41431964025E+02  0.41431964025E+02  0.00000000000E+00 0. -1.
         21   -1    0    0  501  503 -0.00000000000E+00 -0.00000000000E+00 -0.79016125114E+03  0.79016125114E+03  0.00000000000E+00 0. -1.
          6    2    1    2  501    0  0.48361775830E+02  0.80888599614E+01 -0.43257472852E+03  0.46858539302E+03  0.17334094665E+03 0.  0.
         24    2    3    3    0    0  0.16730232677E+02  0.29197386754E+02 -0.86557484322E+02  0.12045302207E+03  0.76709480211E+02 0.  0.
         -6    2    1    2    0  502 -0.48361775830E+02 -0.80888599614E+01 -0.31615455859E+03  0.36300782214E+03  0.17151292371E+03 0.  0.
        -24    2    5    5    0    0  0.77091872321E+01  0.26696712796E+02 -0.26939147716E+03  0.28199631212E+03  0.78600292878E+02 0.  0.
          5    1    3    3  501    0  0.31631543153E+02 -0.21108526793E+02 -0.34601724420E+03  0.34813237095E+03  0.47000000000E+01 0. -1.
        -11    1    4    4    0    0 -0.25846966520E+02  0.30201823003E+02 -0.52893053500E+02  0.66165632314E+02  0.00000000000E+00 0.  1.
         12    1    4    4    0    0  0.42577199197E+02 -0.10044362495E+01 -0.33664430822E+02  0.54287389753E+02  0.00000000000E+00 0. -1.
         -5    1    5    5    0  502 -0.56070963062E+02 -0.34785572757E+02 -0.46763081436E+02  0.81011510022E+02  0.47000000000E+01 0.  1.
         11    1    6    6    0    0 -0.17361898929E+02  0.31417414229E+02 -0.52432484761E+02  0.63542544090E+02  0.00000000000E+00 0. -1.
        -12    1    6    6    0    0  0.25071086161E+02 -0.47207014331E+01 -0.21695899240E+03  0.21845376803E+03  0.00000000000E+00 0.  1.
</event>
<event>
12    1  0.8344842E-002  0.2718266E+03  0.7818608E-02  0.1100566E+00
         21   -1    0    0  503  502  0.00000000000E+00  0.00000000000E+00  0.18973520904E+03  0.18973520904E+03  0.00000000000E+00 0.  1.
         21   -1    0    0  501  503 -0.00000000000E+00 -0.00000000000E+00 -0.44340228363E+03  0.44340228363E+03  0.00000000000E+00 0.  1.
          6    2    1    2  501    0  0.20222566400E+03 -0.39617358279E+02 -0.24011836775E+03  0.36097340734E+03  0.17372454062E+03 0.  0.
         24    2    3    3    0    0  0.62316152207E+02 -0.13483432401E+02 -0.17791608637E+03  0.20557434884E+03  0.80879993424E+02 0.  0.
         -6    2    1    2    0  502 -0.20222566400E+03  0.39617358279E+02 -0.13548706837E+02  0.27216408533E+03  0.17727088771E+03 0.  0.
        -24    2    5    5    0    0 -0.66233412669E+02 -0.23330991996E+02 -0.46481758104E+02  0.11866143685E+03  0.83598939092E+02 0.  0.
          5    1    3    3  501    0  0.13990951179E+03 -0.26133925878E+02 -0.62202281382E+02  0.15539905850E+03  0.47000000000E+01 0. -1.
        -13    1    4    4    0    0  0.45898798778E+02 -0.29151743785E+02 -0.44557634112E+02  0.70298695953E+02  0.00000000000E+00 0.  1.
         14    1    4    4    0    0  0.16417353429E+02  0.15668311384E+02 -0.13335845226E+03  0.13527565289E+03  0.00000000000E+00 0. -1.
         -5    1    5    5    0  502 -0.13599225133E+03  0.62948350275E+02  0.32933051267E+02  0.15350264848E+03  0.47000000000E+01 0.  1.
         11    1    6    6    0    0 -0.76882957629E+02 -0.51927035285E+01 -0.56315022109E+02  0.95442836603E+02  0.00000000000E+00 0. -1.
        -12    1    6    6    0    0  0.10649544960E+02 -0.18138288468E+02  0.98332640045E+01  0.23218600246E+02  0.00000000000E+00 0.  1.
</event>
<event>
12    1  0.8344842E-002  0.2022057E+03  0.7818608E-02  0.1147934E+00
         21   -1    0    0  503  502  0.00000000000E+00  0.00000000000E+00  0.25739836340E+02  0.25739836340E+02  0.00000000000E+00 0. -1.
         21   -1    0    0  501  503 -0.00000000000E+00 -0.00000000000E+00 -0.15951302703E+04  0.15951302703E+04  0.00000000000E+00 0.  1.
          6    2    1    2  501    0  0.35252010115E+02  0.10078647142E+03 -0.84346994652E+03  0.86736883608E+03  0.17171642342E+03 0.  0.
         24    2    3    3    0    0  0.28530642143E+02  0.13799926574E+03 -0.72685807347E+03  0.74468881413E+03  0.79881011731E+02 0.  0.
         -6    2    1    2    0  502 -0.35252010115E+02 -0.10078647142E+03 -0.72592048746E+03  0.75350127058E+03  0.17147301135E+03 0.  0.
        -24    2    5    5    0    0 -0.72199564737E+02 -0.14330017795E+02 -0.31962880776E+03  0.33644628721E+03  0.74935991812E+02 0.  0.
          5    1    3    3  501    0  0.67213679718E+01 -0.37212794318E+02 -0.11661187305E+03  0.12268002194E+03  0.47000000000E+01 0. -1.
        -11    1    4    4    0    0 -0.66483458902E+01 -0.70865950253E+01 -0.19974671798E+02  0.22212785633E+02  0.00000000000E+00 0.  1.
         12    1    4    4    0    0  0.35178988034E+02  0.14508586076E+03 -0.70688340168E+03  0.72247602850E+03  0.00000000000E+00 0. -1.
         -5    1    5    5    0  502  0.36947554622E+02 -0.86456453624E+02 -0.40629167969E+03  0.41705498337E+03  0.47000000000E+01 0.  1.
         13    1    6    6    0    0 -0.52894985823E+02 -0.33019178132E+02 -0.28922856904E+03  0.29587380891E+03  0.00000000000E+00 0. -1.
        -14    1    6    6    0    0 -0.19304578914E+02  0.18689160337E+02 -0.30400238719E+02  0.40572478299E+02  0.00000000000E+00 0.  1.
</event>
<event>
12    1  0.8344842E-002  0.1790946E+03  0.7818608E-02  0.1169537E+00
         21   -1    0    0  501  502  0.00000000000E+00  0.00000000000E+00  0.27166212182E+03  0.27166212182E+03  0.00000000000E+00 0.  1.
         21   -1    0    0  502  503 -0.00000000000E+00 -0.00000000000E+00 -0.14702161792E+03  0.14702161792E+03  0.00000000000E+00 0.  1.
         -6    2    1    2    0  503 -0.38980948968E+02  0.91777537990E+01 -0.34639669706E+02  0.17900674127E+03  0.17099637761E+03 0.  0.
        -24    2    3    3    0    0 -0.14661375212E+02  0.52896514748E+02  0.25516835277E+02  0.10062519485E+03  0.80382359763E+02 0.  0.
          6    2    1    2  501    0  0.38980948968E+02 -0.91777537990E+01  0.15928017361E+03  0.23967699846E+03  0.17455985891E+03 0.  0.
         24    2    5    5    0    0  0.36461427476E+02 -0.52969956216E+02  0.35311796328E+02  0.10809298140E+03  0.79384618872E+02 0.  0.
          5    1    5    5  501    0  0.25195214913E+01  0.43792202417E+02  0.12396837728E+03  0.13158401706E+03  0.47000000000E+01 0. -1.
        -11    1    6    6    0    0  0.13865779694E+02 -0.15627283219E+02 -0.25672342023E+02  0.33098957269E+02  0.00000000000E+00 0.  1.
         12    1    6    6    0    0  0.22595647782E+02 -0.37342672997E+02  0.60984138351E+02  0.74994024133E+02  0.00000000000E+00 0. -1.
         -5    1    3    3    0  503 -0.24319573755E+02 -0.43718760949E+02 -0.60156504983E+02  0.78381546415E+02  0.47000000000E+01 0.  1.
         13    1    4    4    0    0  0.45780960404E+01 -0.11613501784E+02  0.30667195883E+02  0.33110561614E+02  0.00000000000E+00 0. -1.
        -14    1    4    4    0    0 -0.19239471253E+02  0.64510016532E+02 -0.51503606061E+01  0.67514633239E+02  0.00000000000E+00 0.  1.
</event>
<event>
12    1  0.8344842E-002  0.2312954E+03  0.7818608E-02  0.1125910E+00
         21   -1    0    0  503  502  0.00000000000E+00  0.00000000000E+00  0.10932209423E+03  0.10932209423E+03  0.00000000000E+00 0.  1.
         21   -1    0    0  501  503 -0.00000000000E+00 -0.00000000000E+00 -0.63709523595E+03  0.63709523595E+03  0.00000000000E+00 0. -1.
          6    2    1    2  501    0 -0.13687418113E+03  0.68990733949E+02 -0.44446507816E+03  0.50057629519E+03  0.17185214219E+03 0.  0.
         24    2    3    3    0    0 -0.13276881693E+03  0.59784299961E+01 -0.37770291340E+03  0.40856172510E+03  0.81239719705E+02 0.  0.
         -6    2    1    2    0  502  0.13687418113E+03 -0.68990733949E+02 -0.83308063571E+02  0.24584103499E+03  0.17321465931E+03 0.  0.
        -24    2    5    5    0    0  0.59809940042E+02 -0.50963327303E+02 -0.11562983791E+03  0.16022169289E+03  0.78270312386E+02 0.  0.
          5    1    3    3  501    0 -0.41053641987E+01  0.63012303952E+02 -0.66762164759E+02  0.92014570085E+02  0.47000000000E+01 0. -1.
        -13    1    4    4    0    0 -0.29159063408E+02 -0.32999772952E+02 -0.12976852682E+03  0.13703688024E+03  0.00000000000E+00 0.  1.
         14    1    4    4    0    0 -0.10360975352E+03  0.38978202948E+02 -0.24793438658E+03  0.27152484487E+03  0.00000000000E+00 0. -1.
         -5    1    5    5    0  502  0.77064241088E+02 -0.18027406645E+02  0.32321774340E+02  0.85619342098E+02  0.47000000000E+01 0.  1.
         13    1    6    6    0    0  0.22919161038E+02  0.20266337874E+02 -0.28953332095E+02  0.42122533553E+02  0.00000000000E+00 0. -1.
        -14    1    6    6    0    0  0.36890779003E+02 -0.71229665177E+02 -0.86676505816E+02  0.11809915934E+03  0.00000000000E+00 0.  1.
</event>
<event>
12    1  0.8344842E-002  0.2025233E+03  0.7818608E-02  0.1147823E+00
         21   -1    0    0  501  502  0.00000000000E+00  0.00000000000E+00  0.24960803716E+03  0.24960803716E+03  0.00000000000E+00 0. -1.
         21   -1    0    0  502  503 -0.00000000000E+00 -0.00000000000E+00 -0.17614534692E+03  0.17614534692E+03  0.00000000000E+00 0. -1.
         -6    2    1    2    0  503  0.62196360720E+02 -0.85928192378E+02 -0.20253104074E+02  0.20259801221E+03  0.17141681596E+03 0.  0.
        -24    2    3    3    0    0  0.62516939844E+02 -0.79607104454E+02 -0.74362179810E+02  0.14791765924E+03  0.78129644067E+02 0.  0.
          6    2    1    2  501    0 -0.62196360720E+02  0.85928192378E+02  0.93715794314E+02  0.22315537187E+03  0.17252138522E+03 0.  0.
         24    2    5    5    0    0 -0.86999093472E+01  0.10763779174E+03  0.93735076152E+02  0.16523070194E+03  0.82784888296E+02 0.  0.
          5    1    5    5  501    0 -0.53496451373E+02 -0.21709599362E+02 -0.19281838272E-01  0.57924669924E+02  0.47000000000E+01 0. -1.
        -11    1    6    6    0    0  0.33934947091E+02  0.70134074852E+02  0.42501498609E+02  0.88751036464E+02  0.00000000000E+00 0.  1.
         12    1    6    6    0    0 -0.42634856438E+02  0.37503716888E+02  0.51233577543E+02  0.76479665479E+02  0.00000000000E+00 0. -1.
         -5    1    3    3    0  503 -0.32057912374E+00 -0.63210879243E+01  0.54109075736E+02  0.54680352967E+02  0.47000000000E+01 0.  1.
         11    1    4    4    0    0  0.24325306531E+02 -0.28831574250E+02  0.12995877455E+02  0.39898283702E+02  0.00000000000E+00 0. -1.
        -12    1    4    4    0    0  0.38191633313E+02 -0.50775530204E+02 -0.87358057265E+02  0.10801937554E+03  0.00000000000E+00 0.  1.
</event>
<event>
12    1  0.8344842E-002  0.2727265E+03  0.7818608E-02  0.1100660E+00
         21   -1    0    0  501  502  0.00000000000E+00  0.00000000000E+00  0.36773439016E+03  0.36773439016E+03  0.00000000000E+00 0. -1.
         21   -1    0    0  502  503 -0.00000000000E+00 -0.00000000000E+00 -0.26093639700E+03  0.26093639700E+03  0.00000000000E+00 0.  1.
         -6    2    1    2    0  503 -0.18920804187E+03 -0.95099568214E+02 -0.10210312619E+03  0.28513127463E+03  0.16134182474E+03 0.  0.
        -24    2    3    3    0    0 -0.15460515468E+03 -0.42995918290E+02 -0.12549772176E+03  0.21818691535E+03  0.78130973475E+02 0.  0.
          6    2    1    2  501    0  0.18920804187E+03  0.95099568214E+02  0.20890111935E+03  0.34353951253E+03  0.17186072274E+03 0.  0.
         24    2    5    5    0    0  0.48095492560E+02  0.70443643603E+01  0.12785106930E+03  0.15845123329E+03  0.79988111220E+02 0.  0.
          5    1    5    5  501    0  0.14111254931E+03  0.88055203854E+02  0.81050050050E+02  0.18508827924E+03  0.47000000000E+01 0. -1.
        -13    1    6    6    0    0  0.65740772284E+01 -0.33381618063E+02  0.33652331231E+02  0.47854261181E+02  0.00000000000E+00 0.  1.
         14    1    6    6    0    0  0.41521415331E+02  0.40425982424E+02  0.94198738069E+02  0.11059697211E+03  0.00000000000E+00 0. -1.
         -5    1    3    3    0  503 -0.34602887185E+02 -0.52103649924E+02  0.23394595578E+02  0.66944359278E+02  0.47000000000E+01 0.  1.
         13    1    4    4    0    0  0.22849941281E+01  0.11775479021E+02 -0.53948703759E+01  0.13152480021E+02  0.00000000000E+00 0. -1.
        -14    1    4    4    0    0 -0.15689014881E+03 -0.54771397311E+02 -0.12010285139E+03  0.20503443533E+03  0.00000000000E+00 0.  1.
</event>
<event>
12    1  0.8344842E-002  0.2200326E+03  0.7818608E-02  0.1133976E+00
         21   -1    0    0  501  502  0.00000000000E+00  0.00000000000E+00  0.39223489022E+03  0.39223489022E+03  0.00000000000E+00 0. -1.
         21   -1    0    0  502  503 -0.00000000000E+00 -0.00000000000E+00 -0.23143978641E+03  0.23143978641E+03  0.00000000000E+00 0. -1.
         -6    2    1    2    0  503  0.80459479033E+02 -0.11059122111E+03 -0.13304008457E+03  0.25658685877E+03  0.17156050255E+03 0.  0.
        -24    2    3    3    0    0  0.91172292694E+02 -0.13462933307E+03 -0.14067021999E+03  0.22878570466E+03  0.78213448912E+02 0.  0.
          6    2    1    2  501    0 -0.80459479033E+02  0.11059122111E+03  0.29383518838E+03  0.36708781786E+03  0.17236647626E+03 0.  0.
         24    2    5    5    0    0 -0.11984143451E+03  0.59334454953E+02  0.20791388593E+03  0.25946461075E+03  0.78810870426E+02 0.  0.
          5    1    5    5  501    0  0.39381955481E+02  0.51256766159E+02  0.85921302448E+02  0.10762320711E+03  0.47000000000E+01 0. -1.
        -13    1    6    6    0    0 -0.89716984078E+01 -0.16638586218E+02  0.41133206190E+02  0.45268914005E+02  0.00000000000E+00 0.  1.
         14    1    6    6    0    0 -0.11086973611E+03  0.75973041171E+02  0.16678067974E+03  0.21419569674E+03  0.00000000000E+00 0. -1.
         -5    1    3    3    0  503 -0.10712813661E+02  0.24038111956E+02  0.76301354147E+01  0.27801154101E+02  0.47000000000E+01 0.  1.
         13    1    4    4    0    0  0.48602686637E+02 -0.32017795856E+02 -0.13160768822E+02  0.59670480439E+02  0.00000000000E+00 0. -1.
        -14    1    4    4    0    0  0.42569606057E+02 -0.10261153721E+03 -0.12750945116E+03  0.16911522423E+03  0.00000000000E+00 0.  1.
</event>
<event>
12    1  0.8344842E-002  0.2682725E+03  0.7818608E-02  0.1102392E+00
         21   -1    0    0  501  502  0.00000000000E+00  0.00000000000E+00  0.74551455978E+03  0.74551455978E+03  0.00000000000E+00 0.  1.
         21   -1    0    0  502  503 -0.00000000000E+00 -0.00000000000E+00 -0.11931799480E+03  0.11931799480E+03  0.00000000000E+00 0.  1.
         -6    2    1    2    0  503  0.18577699048E+03 -0.87396619522E+02  0.12253238618E+03  0.29417702827E+03  0.17139042855E+03 0.  0.
        -24    2    3    3    0    0  0.77333319125E+02 -0.93891909572E+02  0.33571191185E+02  0.15368360185E+03  0.87723951520E+02 0.  0.
          6    2    1    2  501    0 -0.18577699048E+03  0.87396619522E+02  0.50366417880E+03  0.57065552631E+03  0.17268139855E+03 0.  0.
         24    2    5    5    0    0 -0.19872665138E+03  0.39568336394E+02  0.39347028646E+03  0.44974224213E+03  0.79945498993E+02 0.  0.
          5    1    5    5  501    0  0.12949660896E+02  0.47828283128E+02  0.11019389233E+03  0.12091328418E+03  0.47000000000E+01 0. -1.
        -11    1    6    6    0    0 -0.80921093825E+02  0.56482009756E+02  0.18615848381E+03  0.21069746545E+03  0.00000000000E+00 0.  1.
         12    1    6    6    0    0 -0.11780555756E+03 -0.16913673362E+02  0.20731180265E+03  0.23904477668E+03  0.00000000000E+00 0. -1.
         -5    1    3    3    0  503  0.10844367136E+03  0.64952900497E+01  0.88961194998E+02  0.14049342642E+03  0.47000000000E+01 0.  1.
         11    1    4    4    0    0 -0.31405602082E+01 -0.36467570473E+02  0.40487959655E+02  0.54580414910E+02  0.00000000000E+00 0. -1.
        -12    1    4    4    0    0  0.80473879333E+02 -0.57424339099E+02 -0.69167684707E+01  0.99103186941E+02  0.00000000000E+00 0.  1.
</event>
<event>
12    1  0.8344842E-002  0.4018360E+03  0.7818608E-02  0.1043242E+00
         21   -1    0    0  503  502  0.00000000000E+00  0.00000000000E+00  0.96895246463E+03  0.96895246463E+03  0.00000000000E+00 0.  1.
         21   -1    0    0  501  503 -0.00000000000E+00 -0.00000000000E+00 -0.16630201874E+03  0.16630201874E+03  0.00000000000E+00 0. -1.
          6    2    1    2  501    0 -0.32003468382E+03  0.17112353889E+03  0.41579426837E+03  0.57746432155E+03  0.16992558563E+03 0.  0.
         24    2    3    3    0    0 -0.26447068538E+03  0.18965259903E+03  0.38824254140E+03  0.51256538742E+03  0.77962514606E+02 0.  0.
         -6    2    1    2    0  502  0.32003468382E+03 -0.17112353889E+03  0.38685617753E+03  0.55779016182E+03  0.17253028175E+03 0.  0.
        -24    2    5    5    0    0  0.25603571235E+03 -0.18343171244E+03  0.25949225685E+03  0.41464332190E+03  0.73425975721E+02 0.  0.
          5    1    3    3  501    0 -0.55563998442E+02 -0.18529060148E+02  0.27551726969E+02  0.64898934135E+02  0.47000000000E+01 0. -1.
        -11    1    4    4    0    0 -0.24057164238E+03  0.14555261513E+03  0.30076841408E+03  0.41173039455E+03  0.00000000000E+00 0.  1.
         12    1    4    4    0    0 -0.23899042997E+02  0.44099983902E+02  0.87474127319E+02  0.10083499287E+03  0.00000000000E+00 0. -1.
         -5    1    5    5    0  502  0.63998971474E+02  0.12308173556E+02  0.12736392068E+03  0.14314683991E+03  0.47000000000E+01 0.  1.
         11    1    6    6    0    0  0.14940868850E+03 -0.94930128344E+02  0.99798731582E+02  0.20321041384E+03  0.00000000000E+00 0. -1.
        -12    1    6    6    0    0  0.10662702385E+03 -0.88501584098E+02  0.15969352526E+03  0.21143290807E+03  0.00000000000E+00 0.  1.
</event>
<event>
12    1  0.8344842E-002  0.2011717E+03  0.7818608E-02  0.1150867E+00
         21   -1    0    0  501  502  0.00000000000E+00  0.00000000000E+00  0.58301034118E+03  0.58301034118E+03  0.00000000000E+00 0. -1.
         21   -1    0    0  502  503 -0.00000000000E+00 -0.00000000000E+00 -0.10806568076E+03  0.10806568076E+03  0.00000000000E+00 0. -1.
         -6    2    1    2    0  503 -0.41390138392E+02 -0.86546963744E+02  0.18463947508E+02  0.19223265849E+03  0.16555650740E+03 0.  0.
        -24    2    3    3    0    0 -0.40165651658E+02 -0.25419259604E+02 -0.45703787717E+02  0.10347634139E+03  0.79743957032E+02 0.  0.
          6    2    1    2  501    0  0.41390138392E+02  0.86546963744E+02  0.45648071291E+03  0.49884336346E+03  0.17682346993E+03 0.  0.
         24    2    5    5    0    0  0.60889724875E+02  0.71395668585E+02  0.16474195007E+03  0.20602363844E+03  0.80628341131E+02 0.  0.
          5    1    5    5  501    0 -0.19499586483E+02  0.15151295160E+02  0.29173876284E+03  0.29281972502E+03  0.47000000000E+01 0. -1.
        -13    1    6    6    0    0  0.15111922435E+02 -0.13388481452E+02  0.61842181405E+02  0.65054415962E+02  0.00000000000E+00 0.  1.
         14    1    6    6    0    0  0.45777802440E+02  0.84784150036E+02  0.10289976867E+03  0.14096922248E+03  0.00000000000E+00 0. -1.
         -5    1    3    3    0  503 -0.12244867339E+01 -0.61127704141E+02  0.64167735225E+02  0.88756317100E+02  0.47000000000E+01 0.  1.
         11    1    4    4    0    0  0.29561360123E+01 -0.15482160450E+02 -0.55887586451E+02  0.58067704893E+02  0.00000000000E+00 0. -1.
        -12    1    4    4    0    0 -0.43121787670E+02 -0.99370991543E+01  0.10183798734E+02  0.45408636493E+02  0.00000000000E+00 0.  1.
</event>
<event>
12    1  0.8344842E-002  0.2237819E+03  0.7818608E-02  0.1133457E+00
         21   -1    0    0  501  502  0.00000000000E+00  0.00000000000E+00  0.42356762242E+02  0.42356762242E+02  0.00000000000E+00 0.  1.
         21   -1    0    0  502  503 -0.00000000000E+00 -0.00000000000E+00 -0.14878492732E+04  0.14878492732E+04  0.00000000000E+00 0.  1.
         -6    2    1    2    0  503 -0.36302378215E+02 -0.12711642436E+03 -0.11203594851E+04  0.11424901292E+04  0.18055988344E+03 0.  0.
        -24    2    3    3    0    0 -0.86678384264E+02 -0.11254347720E+03 -0.69164254541E+03  0.71055215086E+03  0.79597562207E+02 0.  0.
          6    2    1    2  501    0  0.36302378215E+02  0.12711642436E+03 -0.32513302589E+03  0.38771590626E+03  0.16472914567E+03 0.  0.
         24    2    5    5    0    0  0.18324701432E+02  0.10609261971E+03 -0.33263736959E+03  0.35867107197E+03  0.80036738924E+02 0.  0.
          5    1    5    5  501    0  0.17977676783E+02  0.21023804651E+02  0.75043437004E+01  0.29044834289E+02  0.47000000000E+01 0. -1.
        -11    1    6    6    0    0  0.38287397262E+02  0.10533168543E+03 -0.25571238478E+03  0.27919439907E+03  0.00000000000E+00 0.  1.
         12    1    6    6    0    0 -0.19962695830E+02  0.76093427873E+00 -0.76924984815E+02  0.79476672895E+02  0.00000000000E+00 0. -1.
         -5    1    3    3    0  503  0.50376006049E+02 -0.14572947159E+02 -0.42871693968E+03  0.43193797835E+03  0.47000000000E+01 0.  1.
         11    1    4    4    0    0 -0.37100218102E+01  0.12290807497E+02 -0.48070252162E+02  0.49755174140E+02  0.00000000000E+00 0. -1.
        -12    1    4    4    0    0 -0.82968362454E+02 -0.12483428470E+03 -0.64357229325E+03  0.66079697672E+03  0.00000000000E+00 0.  1.
</event>
<event>
12    1  0.8344842E-002  0.1943091E+03  0.7818608E-02  0.1155947E+00
         21   -1    0    0  503  502  0.00000000000E+00  0.00000000000E+00  0.38154385237E+03  0.38154385237E+03  0.00000000000E+00 0.  1.
         21   -1    0    0  501  503 -0.00000000000E+00 -0.00000000000E+00 -0.14333709753E+03  0.14333709753E+03  0.00000000000E+00 0. -1.
          6    2    1    2  501    0  0.29214157417E+02 -0.72079820005E+02 -0.30519305310E+02  0.19669123664E+03  0.17806472736E+03 0.  0.
         24    2    3    3    0    0 -0.28957422240E+02 -0.85111104469E+02 -0.53197863043E+02  0.13273692455E+03  0.81894115173E+02 0.  0.
         -6    2    1    2    0  502 -0.29214157417E+02  0.72079820005E+02  0.26872606015E+03  0.32818971325E+03  0.17159785848E+03 0.  0.
        -24    2    5    5    0    0 -0.80893129198E+02  0.21255056776E+02  0.16809234655E+03  0.20408045898E+03  0.79989505447E+02 0.  0.
          5    1    3    3  501    0  0.58171579657E+02  0.13031284464E+02  0.22678557733E+02  0.63954312094E+02  0.47000000000E+01 0. -1.
        -11    1    4    4    0    0  0.88800148112E+01  0.46675557952E+01  0.11899314092E+02  0.15563881778E+02  0.00000000000E+00 0.  1.
         12    1    4    4    0    0 -0.37837437052E+02 -0.89778660264E+02 -0.65097177135E+02  0.11717304277E+03  0.00000000000E+00 0. -1.
         -5    1    5    5    0  502  0.51678971782E+02  0.50824763229E+02  0.10063371361E+03  0.12410925427E+03  0.47000000000E+01 0.  1.
         11    1    6    6    0    0 -0.83612689019E+02 -0.48361331635E+01  0.15129877222E+03  0.17293290150E+03  0.00000000000E+00 0. -1.
        -12    1    6    6    0    0  0.27195598206E+01  0.26091189940E+02  0.16793574330E+02  0.31147557478E+02  0.00000000000E+00 0.  1.
</event>
<event>
12    1  0.8344842E-002  0.2503083E+03  0.7818608E-02  0.1113171E+00
         21   -1    0    0  503  502  0.00000000000E+00  0.00000000000E+00  0.11646333536E+04  0.11646333536E+04  0.00000000000E+00 0. -1.
         21   -1    0    0  501  503 -0.00000000000E+00 -0.00000000000E+00 -0.16442826867E+03  0.16442826867E+03  0.00000000000E+00 0. -1.
          6    2    1    2  501    0  0.17833950489E+03 -0.29920803640E+02 -0.45061936722E+02  0.25433213819E+03  0.17307231113E+03 0.  0.
         24    2    3    3    0    0  0.63687341164E+02 -0.16370731233E+02  0.40399072892E+02  0.11061576030E+03  0.79244451360E+02 0.  0.
         -6    2    1    2    0  502 -0.17833950489E+03  0.29920803640E+02  0.10452670217E+04  0.10747294841E+04  0.17251111237E+03 0.  0.
        -24    2    5    5    0    0 -0.72856151953E+02  0.44232099789E+02  0.78712874080E+03  0.79546435381E+03  0.76989519098E+02 0.  0.
          5    1    3    3  501    0  0.11465216372E+03 -0.13550072407E+02 -0.85461009614E+02  0.14371637789E+03  0.47000000000E+01 0. -1.
        -11    1    4    4    0    0  0.21218858162E+02 -0.24859719563E+02 -0.18462624594E+02  0.37538168647E+02  0.00000000000E+00 0.  1.
         12    1    4    4    0    0  0.42468483002E+02  0.84889883306E+01  0.58861697486E+02  0.73077591657E+02  0.00000000000E+00 0. -1.
         -5    1    5    5    0  502 -0.10548335293E+03 -0.14311296149E+02  0.25813828085E+03  0.27926513027E+03  0.47000000000E+01 0.  1.
         11    1    6    6    0    0 -0.85140910518E+02  0.47487343975E+02  0.74793300951E+03  0.75425977567E+03  0.00000000000E+00 0. -1.
        -12    1    6    6    0    0  0.12284758565E+02 -0.32552441868E+01  0.39195731289E+02  0.41204578132E+02  0.00000000000E+00 0.  1.
</event>
<event>
12    1  0.8344842E-002  0.1956067E+03  0.7818608E-02  0.1153586E+00
         21   -1    0    0  501  502  0.00000000000E+00  0.00000000000E+00  0.16346290289E+03  0.16346290289E+03  0.00000000000E+00 0.  1.
         21   -1    0    0  502  503 -0.00000000000E+00 -0.00000000000E+00 -0.38994626603E+03  0.38994626603E+03  0.00000000000E+00 0.  1.
         -6    2    1    2    0  503 -0.59424818285E+02 -0.69731964847E+02 -0.28838499735E+03  0.34824143253E+03  0.17237265642E+03 0.  0.
        -24    2    3    3    0    0 -0.65380519183E+02 -0.17235834096E+02 -0.73617874551E+02  0.12702135850E+03  0.78378235473E+02 0.  0.
          6    2    1    2  501    0  0.59424818285E+02  0.69731964847E+02  0.61901634214E+02  0.20516773639E+03  0.17282399078E+03 0.  0.
         24    2    5    5    0    0 -0.22266517417E+02  0.70121893691E+02  0.10827226138E+02  0.10870887711E+03  0.79293841907E+02 0.  0.
          5    1    5    5  501    0  0.81691335703E+02 -0.38992884444E+00  0.51074408077E+02  0.96458859281E+02  0.47000000000E+01 0. -1.
        -11    1    6    6    0    0  0.45720903433E+01  0.26081005549E+02  0.41111315780E+02  0.48900543409E+02  0.00000000000E+00 0.  1.
         12    1    6    6    0    0 -0.26838607761E+02  0.44040888142E+02 -0.30284089642E+02  0.59808333703E+02  0.00000000000E+00 0. -1.
         -5    1    3    3    0  503  0.59557008981E+01 -0.52496130750E+02 -0.21476712280E+03  0.22122007403E+03  0.47000000000E+01 0.  1.
         13    1    4    4    0    0  0.17460135721E+02  0.35775538279E+01 -0.16336341462E+02  0.24177081775E+02  0.00000000000E+00 0. -1.
        -14    1    4    4    0    0 -0.82840654905E+02 -0.20813387924E+02 -0.57281533089E+02  0.10284427672E+03  0.00000000000E+00 0.  1.
</event>
<event>
12    1  0.8344842E-002  0.1951297E+03  0.7818608E-02  0.1153916E+00
         21   -1    0    0  501  502  0.00000000000E+00  0.00000000000E+00  0.13448900154E+03  0.13448900154E+03  0.00000000000E+00 0. -1.
         21   -1    0    0  502  503 -0.00000000000E+00 -0.00000000000E+00 -0.60561525463E+03  0.60561525463E+03  0.00000000000E+00 0. -1.
         -6    2    1    2    0  503 -0.59379411833E+02 -0.71295634983E+02 -0.50560767264E+03  0.54195135976E+03  0.17164840692E+03 0.  0.
        -24    2    3    3    0    0 -0.37662618931E+02 -0.10282942011E+03 -0.46771908362E+03  0.48788072192E+03  0.85288305948E+02 0.  0.
          6    2    1    2  501    0  0.59379411833E+02  0.71295634983E+02  0.34481419552E+02  0.19815289640E+03  0.17165843976E+03 0.  0.
         24    2    5    5    0    0  0.89048897965E+02  0.66129148107E+02 -0.17577783526E+02  0.13782693500E+03  0.79903160638E+02 0.  0.
          5    1    5    5  501    0 -0.29669486132E+02  0.51664868758E+01  0.52059203077E+02  0.60325961402E+02  0.47000000000E+01 0. -1.
        -13    1    6    6    0    0  0.35696602367E+02  0.59234572652E+01 -0.40373397411E+02  0.54215735585E+02  0.00000000000E+00 0.  1.
         14    1    6    6    0    0  0.53352295599E+02  0.60205690842E+02  0.22795613886E+02  0.83611199416E+02  0.00000000000E+00 0. -1.
         -5    1    3    3    0  503 -0.21716792903E+02  0.31533785132E+02 -0.37888589020E+02  0.54070637842E+02  0.47000000000E+01 0.  1.
         11    1    4    4    0    0 -0.60808847364E+02 -0.87612934476E+02 -0.31217273776E+03  0.32988719346E+03  0.00000000000E+00 0. -1.
        -12    1    4    4    0    0  0.23146228433E+02 -0.15216485639E+02 -0.15554634586E+03  0.15799352846E+03  0.00000000000E+00 0.  1.
</event>
<event>
12    1  0.8344842E-002  0.1873330E+03  0.7818608E-02  0.1160923E+00
         21   -1    0    0  503  502  0.00000000000E+00  0.00000000000E+00  0.36116432581E+03  0.36116432581E+03  0.00000000000E+00 0. -1.
         21   -1    0    0  501  503 -0.00000000000E+00 -0.00000000000E+00 -0.11381297236E+03  0.11381297236E+03  0.00000000000E+00 0. -1.
          6    2    1    2  501    0 -0.24392503183E+02 -0.68857159965E+02  0.32605479720E+02  0.19000461242E+03  0.17234364724E+03 0.  0.
         24    2    3    3    0    0 -0.29894579096E+01  0.27166993172E+02  0.81812627889E+01  0.88528700471E+02  0.83805819426E+02 0.  0.
         -6    2    1    2    0  502  0.24392503183E+02  0.68857159965E+02  0.21474587373E+03  0.28497268575E+03  0.17250315549E+03 0.  0.
        -24    2    5    5    0    0  0.66173345020E+02  0.90327754488E+02  0.13648610784E+03  0.19357626279E+03  0.79405900668E+02 0.  0.
          5    1    3    3  501    0 -0.21403045274E+02 -0.96024153137E+02  0.24424216931E+02  0.10147591195E+03  0.47000000000E+01 0. -1.
        -13    1    4    4    0    0 -0.38446410118E+02  0.27552939585E+02  0.19710351964E+02  0.51242452179E+02  0.00000000000E+00 0.  1.
         14    1    4    4    0    0  0.35456952208E+02 -0.38594641262E+00 -0.11529089175E+02  0.37286248293E+02  0.00000000000E+00 0. -1.
         -5    1    5    5    0  502 -0.41780841836E+02 -0.21470594524E+02  0.78259765886E+02  0.91396422962E+02  0.47000000000E+01 0.  1.
         13    1    6    6    0    0 -0.43796626530E+01  0.36333574392E+02  0.81568934150E+01  0.37494599387E+02  0.00000000000E+00 0. -1.
        -14    1    6    6    0    0  0.70553007673E+02  0.53994180096E+02  0.12832921443E+03  0.15608166340E+03  0.00000000000E+00 0.  1.
</event>
<event>
12    1  0.8344842E-002  0.2144272E+03  0.7818608E-02  0.1138298E+00
         21   -1    0    0  503  502  0.00000000000E+00  0.00000000000E+00  0.59387895920E+03  0.59387895920E+03  0.00000000000E+00 0. -1.
         21   -1    0    0  501  503 -0.00000000000E+00 -0.00000000000E+00 -0.82915807926E+02  0.82915807926E+02  0.00000000000E+00 0.  1.
          6    2    1    2  501    0 -0.10019190134E+03  0.79418746261E+02  0.16505006444E+03  0.26981211345E+03  0.17091313127E+03 0.  0.
         24    2    3    3    0    0 -0.16739523999E+02  0.98606584021E+02  0.10013409990E+03  0.16225447842E+03  0.79348646671E+02 0.  0.
         -6    2    1    2    0  502  0.10019190134E+03 -0.79418746261E+02  0.34591308684E+03  0.40698265368E+03  0.17214314508E+03 0.  0.
        -24    2    5    5    0    0  0.16411460546E+02 -0.94463210876E+02  0.16611573921E+03  0.20799854781E+03  0.80475603948E+02 0.  0.
          5    1    3    3  501    0 -0.83452377340E+02 -0.19187837759E+02  0.64915964540E+02  0.10755763503E+03  0.47000000000E+01 0. -1.
        -13    1    4    4    0    0  0.23463546018E+02  0.17244362159E+02  0.29226350393E+01  0.29265129652E+02  0.00000000000E+00 0.  1.
         14    1    4    4    0    0 -0.40203070017E+02  0.81362221861E+02  0.97211464863E+02  0.13298934877E+03  0.00000000000E+00 0. -1.
         -5    1    5    5    0  502  0.83780440793E+02  0.15044464615E+02  0.17979734763E+03  0.19898410587E+03  0.47000000000E+01 0.  1.
         13    1    6    6    0    0 -0.26121515335E+02 -0.69148243067E+02  0.11608619973E+03  0.13762201441E+03  0.00000000000E+00 0. -1.
        -14    1    6    6    0    0  0.42532975881E+02 -0.25314967810E+02  0.50029539475E+02  0.70376533394E+02  0.00000000000E+00 0.  1.
</event>
<event>
12    1  0.8344842E-002  0.1786211E+03  0.7818608E-02  0.1169562E+00
         21   -1    0    0  501  502  0.00000000000E+00  0.00000000000E+00  0.40308485522E+03  0.40308485522E+03  0.00000000000E+00 0. -1.
         21   -1    0    0  502  503 -0.00000000000E+00 -0.00000000000E+00 -0.26692163841E+03  0.26692163841E+03  0.00000000000E+00 0. -1.
         -6    2    1    2    0  503 -0.40831627201E+02  0.24300786533E+02 -0.21355108175E+03  0.27731632268E+03  0.17041868530E+03 0.  0.
        -24    2    3    3    0    0 -0.55045160526E+02  0.73695047607E+02 -0.17705971598E+03  0.21410613890E+03  0.77655430940E+02 0.  0.
          6    2    1    2  501    0  0.40831627201E+02 -0.24300786533E+02  0.34971429856E+03  0.39269017095E+03  0.17218516119E+03 0.  0.
         24    2    5    5    0    0  0.85228108850E+02 -0.27799655948E+02  0.17472579413E+03  0.21206249768E+03  0.80029671846E+02 0.  0.
          5    1    5    5  501    0 -0.44396481649E+02  0.34988694159E+01  0.17498850443E+03  0.18062767327E+03  0.47000000000E+01 0. -1.
        -13    1    6    6    0    0  0.69038429680E+01  0.44649177586E+01  0.96213409493E+02  0.96564065286E+02  0.00000000000E+00 0.  1.
         14    1    6    6    0    0  0.78324265882E+02 -0.32264573707E+02  0.78512384641E+02  0.11549843239E+03  0.00000000000E+00 0. -1.
         -5    1    3    3    0  503  0.14213533325E+02 -0.49394261074E+02 -0.36491365778E+02  0.63210183776E+02  0.47000000000E+01 0.  1.
         13    1    4    4    0    0 -0.78532617451E+01  0.69420204727E+02 -0.80797632498E+02  0.10681336977E+03  0.00000000000E+00 0. -1.
        -14    1    4    4    0    0 -0.47191898781E+02  0.42748428796E+01 -0.96262083477E+02  0.10729276913E+03  0.00000000000E+00 0.  1.
</event>
<event>
12    1  0.8344842E-002  0.2003614E+03  0.7818608E-02  0.1150055E+00
         21   -1    0    0  503  502  0.00000000000E+00  0.00000000000E+00  0.25736757079E+03  0.25736757079E+03  0.00000000000E+00 0. -1.
         21   -1    0    0  501  503 -0.00000000000E+00 -0.00000000000E+00 -0.16901094099E+03  0.16901094099E+03  0.00000000000E+00 0.  1.
          6    2    1    2  501    0 -0.10840206223E+03 -0.29600183535E+00 -0.20253988410E+02  0.19847295541E+03  0.16501574249E+03 0.  0.
         24    2    3    3    0    0 -0.64700120802E+02 -0.64504791210E+02 -0.12745766957E+02  0.12029948352E+03  0.77217468485E+02 0.  0.
         -6    2    1    2    0  502  0.10840206223E+03  0.29600183535E+00  0.10861061820E+03  0.22790555637E+03  0.16850395107E+03 0.  0.
        -24    2    5    5    0    0  0.14069905522E+03 -0.19403164873E+02  0.90277216338E+02  0.18560476975E+03  0.78271628427E+02 0.  0.
          5    1    3    3  501    0 -0.43701941429E+02  0.64208789374E+02 -0.75082214535E+01  0.78173471887E+02  0.47000000000E+01 0. -1.
        -11    1    4    4    0    0 -0.48716391660E+00  0.76263970403E+01 -0.21995492096E+02  0.23285208460E+02  0.00000000000E+00 0.  1.
         12    1    4    4    0    0 -0.64212956885E+02 -0.72131188250E+02  0.92497251393E+01  0.97014275060E+02  0.00000000000E+00 0. -1.
         -5    1    5    5    0  502 -0.32296992990E+02  0.19699166708E+02  0.18333401864E+02  0.42300786625E+02  0.47000000000E+01 0.  1.
         13    1    6    6    0    0  0.50470683316E+02 -0.45724745893E+02  0.35101529238E+02  0.76616966895E+02  0.00000000000E+00 0. -1.
        -14    1    6    6    0    0  0.90228371905E+02  0.26321581020E+02  0.55175687100E+02  0.10898780285E+03  0.00000000000E+00 0.  1.
</event>
<event>
12    1  0.8344842E-002  0.2099901E+03  0.7818608E-02  0.1142181E+00
         21   -1    0    0  503  502  0.00000000000E+00  0.00000000000E+00  0.25113683073E+03  0.25113683073E+03  0.00000000000E+00 0.  1.
         21   -1    0    0  501  503 -0.00000000000E+00 -0.00000000000E+00 -0.35947202556E+03  0.35947202556E+03  0.00000000000E+00 0.  1.
          6    2    1    2  501    0  0.72148389443E+02  0.92864255501E+02 -0.27383606577E+03  0.34323949325E+03  0.17028798772E+03 0.  0.
         24    2    3    3    0    0  0.88951347406E+02  0.11236170529E+03 -0.16792378708E+03  0.23414324803E+03  0.78020300623E+02 0.  0.
         -6    2    1    2    0  502 -0.72148389443E+02 -0.92864255501E+02  0.16550087095E+03  0.26736936304E+03  0.17397321046E+03 0.  0.
        -24    2    5    5    0    0 -0.37525550012E+02 -0.11967864216E+03  0.75493415674E+02  0.16716365289E+03  0.80704936313E+02 0.  0.
          5    1    3    3  501    0 -0.16802957963E+02 -0.19497449789E+02 -0.10591227869E+03  0.10909624522E+03  0.47000000000E+01 0. -1.
        -11    1    4    4    0    0  0.54431840824E+02  0.34367114071E+02 -0.27837873384E+02  0.70134663467E+02  0.00000000000E+00 0.  1.
         12    1    4    4    0    0  0.34519506582E+02  0.77994591219E+02 -0.14008591370E+03  0.16400858456E+03  0.00000000000E+00 0. -1.
         -5    1    5    5    0  502 -0.34622839431E+02  0.26814386657E+02  0.90007455271E+02  0.10020571015E+03  0.47000000000E+01 0.  1.
         13    1    6    6    0    0  0.10906957152E+02 -0.11013614079E+02  0.40175993872E+02  0.43062418569E+02  0.00000000000E+00 0. -1.
        -14    1    6    6    0    0 -0.48432507165E+02 -0.10866502808E+03  0.35317421802E+02  0.12410123432E+03  0.00000000000E+00 0.  1.
</event>
<event>
12    1  0.8344842E-002  0.1932656E+03  0.7818608E-02  0.1156205E+00
         21   -1    0    0  501  502  0.00000000000E+00  0.00000000000E+00  0.25657031091E+03  0.25657031091E+03  0.00000000000E+00 0. -1.
         21   -1    0    0  502  503 -0.00000000000E+00 -0.00000000000E+00 -0.32797972762E+03  0.32797972762E+03  0.00000000000E+00 0. -1.
         -6    2    1    2    0  503  0.22260402405E+02  0.70436438025E+02 -0.25510242376E+03  0.32004506656E+03  0.17859109918E+03 0.  0.
        -24    2    3    3    0    0  0.78001870833E+02  0.67809883334E+02 -0.14026449680E+03  0.19228024526E+03  0.81333212931E+02 0.  0.
          6    2    1    2  501    0 -0.22260402405E+02 -0.70436438025E+02  0.18369300706E+03  0.26450497197E+03  0.17539367730E+03 0.  0.
         24    2    5    5    0    0  0.39747923098E+02 -0.88238046424E+02  0.12723007900E+03  0.17864414308E+03  0.79752032104E+02 0.  0.
          5    1    5    5  501    0 -0.62008325503E+02  0.17801608399E+02  0.56462928051E+02  0.85860828888E+02  0.47000000000E+01 0. -1.
        -13    1    6    6    0    0 -0.52181322629E+01 -0.26435802261E+02 -0.35396384915E+01  0.27177372687E+02  0.00000000000E+00 0.  1.
         14    1    6    6    0    0  0.44966055361E+02 -0.61802244163E+02  0.13076971750E+03  0.15146677039E+03  0.00000000000E+00 0. -1.
         -5    1    3    3    0  503 -0.55741468428E+02  0.26265546919E+01 -0.11483792697E+03  0.12776482130E+03  0.47000000000E+01 0.  1.
         11    1    4    4    0    0  0.11140132515E+02 -0.16227508744E+02 -0.64739602251E+01  0.20720684194E+02  0.00000000000E+00 0. -1.
        -12    1    4    4    0    0  0.66861738318E+02  0.84037392077E+02 -0.13379053657E+03  0.17155956107E+03  0.00000000000E+00 0.  1.
</event>
<event>
12    1  0.8344842E-002  0.1879363E+03  0.7818608E-02  0.1160352E+00
         21   -1    0    0  501  502  0.00000000000E+00  0.00000000000E+00  0.20287740143E+03  0.20287740143E+03  0.00000000000E+00 0.  1.
         21   -1    0    0  502  503 -0.00000000000E+00 -0.00000000000E+00 -0.18868985242E+03  0.18868985242E+03  0.00000000000E+00 0.  1.
         -6    2    1    2    0  503 -0.72160464530E+02 -0.20427396808E+02 -0.47474349281E+02  0.19383976448E+03  0.17232419817E+03 0.  0.
        -24    2    3    3    0    0 -0.19770191824E+02 -0.33686171176E+02  0.41711728389E+02  0.89452110895E+02  0.68820006140E+02 0.  0.
          6    2    1    2  501    0  0.72160464530E+02  0.20427396808E+02  0.61661898282E+02  0.19772748937E+03  0.17224853895E+03 0.  0.
         24    2    5    5    0    0  0.14244765899E+02 -0.26929494091E+02  0.82458105245E+02  0.11993625922E+03  0.81592010319E+02 0.  0.
          5    1    5    5  501    0  0.57915698631E+02  0.47356890899E+02 -0.20796206963E+02  0.77791230146E+02  0.47000000000E+01 0. -1.
        -13    1    6    6    0    0  0.73247660941E+01 -0.56157129392E+02  0.48120295077E+02  0.74315800327E+02  0.00000000000E+00 0.  1.
         14    1    6    6    0    0  0.69199998045E+01  0.29227635301E+02  0.34337810169E+02  0.45620458895E+02  0.00000000000E+00 0. -1.
         -5    1    3    3    0  503 -0.52390272706E+02  0.13258774368E+02 -0.89186077669E+02  0.10438765359E+03  0.47000000000E+01 0.  1.
         13    1    4    4    0    0  0.14193924257E+02 -0.41857011955E+02  0.23171001741E+02  0.49903629700E+02  0.00000000000E+00 0. -1.
        -14    1    4    4    0    0 -0.33964116081E+02  0.81708407786E+01  0.18540726648E+02  0.39548481194E+02  0.00000000000E+00 0.  1.
</event>
<event>
12    1  0.8344842E-002  0.2495131E+03  0.7818608E-02  0.1113898E+00
         21   -1    0    0  501  502  0.00000000000E+00  0.00000000000E+00  0.14063781890E+03  0.14063781890E+03  0.00000000000E+00 0. -1.
         21   -1    0    0  502  503 -0.00000000000E+00 -0.00000000000E+00 -0.55119194754E+03  0.55119194754E+03  0.00000000000E+00 0.  1.
         -6    2    1    2    0  503  0.16428929642E+03  0.68982467369E+02 -0.48972132118E+02  0.25251404195E+03  0.17209159751E+03 0.  0.
        -24    2    3    3    0    0  0.71370617657E+02 -0.30675390629E+02 -0.24555106553E+02  0.11400826351E+03  0.79750775766E+02 0.  0.
          6    2    1    2  501    0 -0.16428929642E+03 -0.68982467369E+02 -0.36158199653E+03  0.43931572449E+03  0.17466313822E+03 0.  0.
         24    2    5    5    0    0 -0.99753695861E+02  0.25192570473E+02 -0.23533800236E+03  0.26904118865E+03  0.80085706543E+02 0.  0.
          5    1    5    5  501    0 -0.64535600555E+02 -0.94175037842E+02 -0.12624399417E+03  0.17027453584E+03  0.47000000000E+01 0. -1.
        -13    1    6    6    0    0 -0.50107676013E+02 -0.16298599961E+02 -0.16619058437E+03  0.17434372340E+03  0.00000000000E+00 0.  1.
         14    1    6    6    0    0 -0.49646019847E+02  0.41491170434E+02 -0.69147417992E+02  0.94697465254E+02  0.00000000000E+00 0. -1.
         -5    1    3    3    0  503  0.92918678759E+02  0.99657857998E+02 -0.24417025565E+02  0.13850577844E+03  0.47000000000E+01 0.  1.
         11    1    4    4    0    0  0.10055525336E+02  0.17041387828E+01  0.26175471555E+02  0.28092222943E+02  0.00000000000E+00 0. -1.
        -12    1    4    4    0    0  0.61315092321E+02 -0.32379529412E+02 -0.50730578107E+02  0.85916040565E+02  0.00000000000E+00 0.  1.
</event>
<event>
12    1  0.8344842E-002  0.1976434E+03  0.7818608E-02  0.1152283E+00
         21   -1    0    0  503  502  0.00000000000E+00  0.00000000000E+00  0.57407667189E+02  0.57407667189E+02  0.00000000000E+00 0.  1.
         21   -1    0    0  501  503 -0.00000000000E+00 -0.00000000000E+00 -0.70098047272E+03  0.70098047272E+03  0.00000000000E+00 0.  1.
          6    2    1    2  501    0 -0.95276793341E+02 -0.18118955912E+02 -0.39712618324E+03  0.44247856466E+03  0.16932841124E+03 0.  0.
         24    2    3    3    0    0 -0.43984909047E+02 -0.16842984748E+02 -0.85029317402E+02  0.12615747911E+03  0.80419937567E+02 0.  0.
         -6    2    1    2    0  502  0.95276793341E+02  0.18118955912E+02 -0.24644662228E+03  0.31590957524E+03  0.17221195714E+03 0.  0.
        -24    2    5    5    0    0  0.50937864439E+02 -0.48051805900E+02 -0.19453857079E+03  0.22072004775E+03  0.77255691501E+02 0.  0.
          5    1    3    3  501    0 -0.51291884294E+02 -0.12759711646E+01 -0.31209686584E+03  0.31632108555E+03  0.47000000000E+01 0. -1.
        -11    1    4    4    0    0 -0.57017486600E+02  0.14854488219E+02 -0.53166219027E+02  0.79361807213E+02  0.00000000000E+00 0.  1.
         12    1    4    4    0    0  0.13032577553E+02 -0.31697472967E+02 -0.31863098375E+02  0.46795671896E+02  0.00000000000E+00 0. -1.
         -5    1    5    5    0  502  0.44338928903E+02  0.66170761812E+02 -0.51908051496E+02  0.95189527497E+02  0.47000000000E+01 0.  1.
         11    1    6    6    0    0  0.67205249264E+01  0.20652092221E+02 -0.53256300142E+02  0.57514414482E+02  0.00000000000E+00 0. -1.
        -12    1    6    6    0    0  0.44217339512E+02 -0.68703898120E+02 -0.14128227065E+03  0.16320563326E+03  0.00000000000E+00 0.  1.
</event>
<event>
12    1  0.8344842E-002  0.3101805E+03  0.7818608E-02  0.1080442E+00
         21   -1    0    0  503  502  0.00000000000E+00  0.00000000000E+00  0.76869584188E+03  0.76869584188E+03  0.00000000000E+00 0. -1.
         21   -1    0    0  501  503 -0.00000000000E+00 -0.00000000000E+00 -0.30809119072E+03  0.30809119072E+03  0.00000000000E+00 0. -1.
          6    2    1    2  501    0  0.68093841957E+02 -0.24951789032E+03 -0.18502124905E+03  0.36117144197E+03  0.17121915486E+03 0.  0.
         24    2    3    3    0    0  0.31152656665E+02 -0.37916582025E+02 -0.75335542981E+02  0.11993958470E+03  0.79384537116E+02 0.  0.
         -6    2    1    2    0  502 -0.68093841957E+02  0.24951789032E+03  0.64562590022E+03  0.71561559063E+03  0.16845450904E+03 0.  0.
        -24    2    5    5    0    0  0.11774426337E+02  0.18174506471E+03  0.48172122329E+03  0.52104187892E+03  0.79116350733E+02 0.  0.
          5    1    3    3  501    0  0.36941185292E+02 -0.21160130830E+03 -0.10968570607E+03  0.24123185726E+03  0.47000000000E+01 0. -1.
        -11    1    4    4    0    0 -0.10602871120E+02  0.78450400176E+00 -0.60059634679E+02  0.60993409810E+02  0.00000000000E+00 0.  1.
         12    1    4    4    0    0  0.41755527784E+02 -0.38701086027E+02 -0.15275908302E+02  0.58946174894E+02  0.00000000000E+00 0. -1.
         -5    1    5    5    0  502 -0.79868268294E+02  0.67772825606E+02  0.16390467693E+03  0.19457371171E+03  0.47000000000E+01 0.  1.
         13    1    6    6    0    0 -0.27767795981E+02  0.13146064182E+03  0.33804749290E+03  0.36377061220E+03  0.00000000000E+00 0. -1.
        -14    1    6    6    0    0  0.39542222318E+02  0.50284422890E+02  0.14367373039E+03  0.15727126672E+03  0.00000000000E+00 0.  1.
</event>
<event>
12    1  0.8344842E-002  0.1748024E+03  0.7818608E-02  0.1173215E+00
         21   -1    0    0  503  502  0.00000000000E+00  0.00000000000E+00  0.63466170505E+02  0.63466170505E+02  0.00000000000E+00 0. -1.
         21   -1    0    0  501  503 -0.00000000000E+00 -0.00000000000E+00 -0.55483334262E+03  0.55483334262E+03  0.00000000000E+00 0. -1.
          6    2    1    2  501    0  0.30221893786E+02  0.36138510868E+01 -0.36115255871E+03  0.40123189589E+03  0.17213204475E+03 0.  0.
         24    2    3    3    0    0 -0.44773382708E+02  0.85618761090E+01 -0.13748073307E+03  0.16522352732E+03  0.79497801814E+02 0.  0.
         -6    2    1    2    0  502 -0.30221893786E+02 -0.36138510868E+01 -0.13021461340E+03  0.21706761724E+03  0.17098561964E+03 0.  0.
        -24    2    5    5    0    0 -0.27784783116E+02 -0.60680146296E+02 -0.44603673429E+02  0.11404419951E+03  0.81009366314E+02 0.  0.
          5    1    3    3  501    0  0.74995276494E+02 -0.49480250222E+01 -0.22367182564E+03  0.23600836857E+03  0.47000000000E+01 0. -1.
        -11    1    4    4    0    0  0.10309058104E+02 -0.24062642273E+01  0.52672606413E+01  0.11824162600E+02  0.00000000000E+00 0.  1.
         12    1    4    4    0    0 -0.55082440812E+02  0.10968140336E+02 -0.14274799371E+03  0.15339936472E+03  0.00000000000E+00 0. -1.
         -5    1    5    5    0  502 -0.24371106700E+01  0.57066295209E+02 -0.85610939975E+02  0.10302341773E+03  0.47000000000E+01 0.  1.
         11    1    6    6    0    0 -0.42695741896E+02 -0.20223290975E+02  0.59321564109E+01  0.47614056261E+02  0.00000000000E+00 0. -1.
        -12    1    6    6    0    0  0.14910958780E+02 -0.40456855321E+02 -0.50535829840E+02  0.66430143247E+02  0.00000000000E+00 0.  1.
</event>
<event>
12    1  0.8344842E-002  0.2301008E+03  0.7818608E-02  0.1126824E+00
         21   -1    0    0  503  502  0.00000000000E+00  0.00000000000E+00  0.17269893799E+04  0.17269893799E+04  0.00000000000E+00 0. -1.
         21   -1    0    0  501  503 -0.00000000000E+00 -0.00000000000E+00 -0.45234189101E+02  0.45234189101E+02  0.00000000000E+00 0. -1.
          6    2    1    2  501    0 -0.12786402146E+03 -0.77681159481E+02  0.33634901570E+03  0.40752549937E+03  0.17482220041E+03 0.  0.
         24    2    3    3    0    0 -0.69919389692E+02 -0.15471119970E+02  0.29267569938E+03  0.31183266827E+03  0.80327276720E+02 0.  0.
         -6    2    1    2    0  502  0.12786402146E+03  0.77681159481E+02  0.13454061751E+04  0.13646980697E+04  0.17291464578E+03 0.  0.
        -24    2    5    5    0    0  0.11795865282E+03  0.94597350240E+02  0.13249310044E+04  0.13359648753E+04  0.80604462542E+02 0.  0.
          5    1    3    3  501    0 -0.57944631766E+02 -0.62210039512E+02  0.43673316321E+02  0.95692831106E+02  0.47000000000E+01 0. -1.
        -13    1    4    4    0    0  0.15646448679E+02  0.75198325073E+01  0.30547753571E+02  0.35135800623E+02  0.00000000000E+00 0.  1.
         14    1    4    4    0    0 -0.85565838371E+02 -0.22990952477E+02  0.26212794580E+03  0.27669686764E+03  0.00000000000E+00 0. -1.
         -5    1    5    5    0  502  0.99053686420E+01 -0.16916190759E+02  0.20475170779E+02  0.28733194326E+02  0.47000000000E+01 0.  1.
         11    1    6    6    0    0  0.41006099088E+01  0.43690923029E+02  0.45992906231E+03  0.46201780714E+03  0.00000000000E+00 0. -1.
        -12    1    6    6    0    0  0.11385804291E+03  0.50906427211E+02  0.86500194205E+03  0.87394706820E+03  0.00000000000E+00 0.  1.
</event>
<event>
12    1  0.8344842E-002  0.1932158E+03  0.7818608E-02  0.1155862E+00
         21   -1    0    0  503  502  0.00000000000E+00  0.00000000000E+00  0.24877299352E+03  0.24877299352E+03  0.00000000000E+00 0.  1.
         21   -1    0    0  501  503 -0.00000000000E+00 -0.00000000000E+00 -0.37893946803E+03  0.37893946803E+03  0.00000000000E+00 0.  1.
          6    2    1    2  501    0  0.82444974307E+02 -0.91003565603E+01 -0.30958428822E+03  0.36493116871E+03  0.17450597728E+03 0.  0.
         24    2    3    3    0    0 -0.25444262237E+02 -0.86809755677E+01 -0.12251019511E+03  0.14892406337E+03  0.80292334184E+02 0.  0.
         -6    2    1    2    0  502 -0.82444974307E+02  0.91003565603E+01  0.17941781372E+03  0.26278129284E+03  0.17315676628E+03 0.  0.
        -24    2    5    5    0    0 -0.64934665235E+02  0.22259477297E+02  0.20364617351E+03  0.22978315955E+03  0.81342125307E+02 0.  0.
          5    1    3    3  501    0  0.10788923654E+03 -0.41938099261E+00 -0.18707409311E+03  0.21600710534E+03  0.47000000000E+01 0. -1.
        -13    1    4    4    0    0  0.16929714031E+02 -0.23680302549E+02 -0.86690239850E+02  0.91447086511E+02  0.00000000000E+00 0.  1.
         14    1    4    4    0    0 -0.42373976268E+02  0.14999326981E+02 -0.35819955257E+02  0.57476976863E+02  0.00000000000E+00 0. -1.
         -5    1    5    5    0  502 -0.17510309072E+02 -0.13159120737E+02 -0.24228359791E+02  0.32998133288E+02  0.47000000000E+01 0.  1.
         13    1    6    6    0    0  0.13633641636E+02  0.15537271635E+02  0.15675929759E+02  0.25942585992E+02  0.00000000000E+00 0. -1.
        -14    1    6    6    0    0 -0.78568306870E+02  0.67222056619E+01  0.18797024375E+03  0.20384057356E+03  0.00000000000E+00 0.  1.
</event>
<event>
12    1  0.8344842E-002  0.2205729E+03  0.7818608E-02  0.1135061E+00
         21   -1    0    0  503  502  0.00000000000E+00  0.00000000000E+00  0.84563033848E+02  0.84563033848E+02  0.00000000000E+00 0. -1.
         21   -1    0    0  501  503 -0.00000000000E+00 -0.00000000000E+00 -0.10609023600E+04  0.10609023600E+04  0.00000000000E+00 0.  1.
          6    2    1    2  501    0 -0.11888542063E+03 -0.43197936360E+02 -0.87924331705E+03  0.90446740557E+03  0.17027234719E+03 0.  0.
         24    2    3    3    0    0  0.81907706606E+01 -0.15871901513E+02 -0.38338052747E+03  0.39183004187E+03  0.78937613886E+02 0.  0.
         -6    2    1    2    0  502  0.11888542063E+03  0.43197936360E+02 -0.97096009111E+02  0.24099798829E+03  0.18070027789E+03 0.  0.
        -24    2    5    5    0    0  0.14230954146E+03  0.38671844056E+02 -0.30591060415E+02  0.17018716179E+03  0.79248595872E+02 0.  0.
          5    1    3    3  501    0 -0.12707619129E+03 -0.27326034846E+02 -0.49586278958E+03  0.51263736370E+03  0.47000000000E+01 0. -1.
        -11    1    4    4    0    0 -0.98049653364E+01 -0.27970838611E+02 -0.35438696357E+03  0.35562427519E+03  0.00000000000E+00 0.  1.
         12    1    4    4    0    0  0.17995735997E+02  0.12098937097E+02 -0.28993563898E+02  0.36205766674E+02  0.00000000000E+00 0. -1.
         -5    1    5    5    0  502 -0.23424120828E+02  0.45260923036E+01 -0.66504948696E+02  0.70810826497E+02  0.47000000000E+01 0.  1.
         11    1    6    6    0    0  0.70311133434E+02  0.37803938976E+02 -0.51753664390E+02  0.95137979087E+02  0.00000000000E+00 0. -1.
        -12    1    6    6    0    0  0.71998408024E+02  0.86790508009E+00  0.21162603975E+02  0.75049182702E+02  0.00000000000E+00 0.  1.
</event>
<event>
12    1  0.8344842E-002  0.2170120E+03  0.7818608E-02  0.1136442E+00
         21   -1    0    0  503  502  0.00000000000E+00  0.00000000000E+00  0.53927443335E+03  0.53927443335E+03  0.00000000000E+00 0. -1.
         21   -1    0    0  501  503 -0.00000000000E+00 -0.00000000000E+00 -0.37043439004E+03  0.37043439004E+03  0.00000000000E+00 0. -1.
          6    2    1    2  501    0 -0.12950886556E+03 -0.15584574356E+02 -0.31375621824E+03  0.38056485336E+03  0.17138033118E+03 0.  0.
         24    2    3    3    0    0 -0.23349996432E+02  0.70861778532E+01 -0.56499962652E+02  0.10130415162E+03  0.80466447080E+02 0.  0.
         -6    2    1    2    0  502  0.12950886556E+03  0.15584574356E+02  0.48259626154E+03  0.52914397003E+03  0.17343230422E+03 0.  0.
        -24    2    5    5    0    0  0.54007348257E+02 -0.25391468025E+02  0.11983499916E+03  0.15632050155E+03  0.80710295917E+02 0.  0.
          5    1    3    3  501    0 -0.10615886913E+03 -0.22670752209E+02 -0.25725625559E+03  0.27926070174E+03  0.47000000000E+01 0. -1.
        -11    1    4    4    0    0  0.11619527292E+02  0.33418367371E+02 -0.42597320590E+02  0.55374474388E+02  0.00000000000E+00 0.  1.
         12    1    4    4    0    0 -0.34969523723E+02 -0.26332189518E+02 -0.13902642062E+02  0.45929677231E+02  0.00000000000E+00 0. -1.
         -5    1    5    5    0  502  0.75501517304E+02  0.40976042381E+02  0.36276126238E+03  0.37282346848E+03  0.47000000000E+01 0.  1.
         11    1    6    6    0    0  0.53666808643E+02  0.78756030516E+00  0.11851955634E+03  0.13010623289E+03  0.00000000000E+00 0. -1.
        -12    1    6    6    0    0  0.34053961408E+00 -0.26179028331E+02  0.13154428169E+01  0.26214268660E+02  0.00000000000E+00 0.  1.
</event>
<event>
12    1  0.8344842E-002  0.2006406E+03  0.7818608E-02  0.1149277E+00
         21   -1    0    0  503  502  0.00000000000E+00  0.00000000000E+00  0.73840756915E+02  0.73840756915E+02  0.00000000000E+00 0. -1.
         21   -1    0    0  501  503 -0.00000000000E+00 -0.00000000000E+00 -0.71887318123E+03  0.71887318123E+03  0.00000000000E+00 0.  1.
          6    2    1    2  501    0  0.89285340795E+02  0.51681869962E+02 -0.51767940971E+03  0.55506827949E+03  0.17165644727E+03 0.  0.
         24    2    3    3    0    0  0.14724233864E+02  0.76151712139E+02 -0.38443902159E+03  0.40036461802E+03  0.80514469012E+02 0.  0.
         -6    2    1    2    0  502 -0.89285340795E+02 -0.51681869962E+02 -0.12735301460E+03  0.23764565866E+03  0.17208655086E+03 0.  0.
        -24    2    5    5    0    0  0.18031692149E+01 -0.68245451150E+02 -0.48243935964E+02  0.11577767599E+03  0.80101809452E+02 0.  0.
          5    1    3    3  501    0  0.74561106932E+02 -0.24469842177E+02 -0.13324038812E+03  0.15470366146E+03  0.47000000000E+01 0. -1.
        -11    1    4    4    0    0  0.45729553054E+02  0.39142365028E+02 -0.26025457195E+03  0.26712498757E+03  0.00000000000E+00 0.  1.
         12    1    4    4    0    0 -0.31005319190E+02  0.37009347111E+02 -0.12418444964E+03  0.13323963045E+03  0.00000000000E+00 0. -1.
         -5    1    5    5    0  502 -0.91088510010E+02  0.16563581188E+02 -0.79109078638E+02  0.12186798267E+03  0.47000000000E+01 0.  1.
         11    1    6    6    0    0 -0.33057903546E+02 -0.19570414489E+02  0.73675191229E+00  0.38423546343E+02  0.00000000000E+00 0. -1.
        -12    1    6    6    0    0  0.34861072761E+02 -0.48675036660E+02 -0.48980687876E+02  0.77354129643E+02  0.00000000000E+00 0.  1.
</event>
<event>
12    1  0.8344842E-002  0.2891748E+03  0.7818608E-02  0.1090994E+00
         21   -1    0    0  503  502  0.00000000000E+00  0.00000000000E+00  0.10006657702E+03  0.10006657702E+03  0.00000000000E+00 0.  1.
         21   -1    0    0  501  503 -0.00000000000E+00 -0.00000000000E+00 -0.94023510724E+03  0.94023510724E+03  0.00000000000E+00 0. -1.
          6    2    1    2  501    0  0.13250022322E+03 -0.19294799993E+03 -0.59843119941E+03  0.66463673665E+03  0.16981416738E+03 0.  0.
         24    2    3    3    0    0  0.50881344044E+02 -0.10314078137E+03 -0.17719982253E+03  0.22624770757E+03  0.81001951363E+02 0.  0.
         -6    2    1    2    0  502 -0.13250022322E+03  0.19294799993E+03 -0.24173733081E+03  0.37566494762E+03  0.16703884557E+03 0.  0.
        -24    2    5    5    0    0 -0.13811472218E+03  0.87165620577E+02 -0.14052569439E+03  0.22907941038E+03  0.77822770318E+02 0.  0.
          5    1    3    3  501    0  0.81618879172E+02 -0.89807218563E+02 -0.42123137688E+03  0.43838902907E+03  0.47000000000E+01 0. -1.
        -11    1    4    4    0    0  0.40806017307E+02 -0.86669085017E+02 -0.18259620459E+03  0.20619901862E+03  0.00000000000E+00 0.  1.
         12    1    4    4    0    0  0.10075326738E+02 -0.16471696352E+02  0.53963820630E+01  0.20048688958E+02  0.00000000000E+00 0. -1.
         -5    1    5    5    0  502  0.56144989676E+01  0.10578237936E+03 -0.10121163642E+03  0.14658553724E+03  0.47000000000E+01 0.  1.
         11    1    6    6    0    0 -0.13184454204E+03  0.66534659539E+02 -0.14510103374E+03  0.20703660106E+03  0.00000000000E+00 0. -1.
        -12    1    6    6    0    0 -0.62701801434E+01  0.20630961038E+02  0.45753393506E+01  0.22042809316E+02  0.00000000000E+00 0.  1.
</event>
<event>
12    1  0.8344842E-002  0.2153477E+03  0.7818608E-02  0.1137581E+00
         21   -1    0    0  503  502  0.00000000000E+00  0.00000000000E+00  0.68201282295E+03  0.68201282295E+03  0.00000000000E+00 0. -1.
         21   -1    0    0  501  503 -0.00000000000E+00 -0.00000000000E+00 -0.71259884046E+02  0.71259884046E+02  0.00000000000E+00 0. -1.
          6    2    1    2  501    0  0.10786007098E+03 -0.70297515605E+02  0.22181956947E+03  0.30915779454E+03  0.17262411452E+03 0.  0.
         24    2    3    3    0    0  0.42930580494E+01 -0.71147655481E+02  0.76905333991E+02  0.13097509462E+03  0.78483283491E+02 0.  0.
         -6    2    1    2    0  502 -0.10786007098E+03  0.70297515605E+02  0.38893336943E+03  0.44411491245E+03  0.17144490075E+03 0.  0.
        -24    2    5    5    0    0 -0.14010321983E+03  0.69848907301E+02  0.35880520629E+03  0.39973453265E+03  0.80862466419E+02 0.  0.
          5    1    3    3  501    0  0.10356701293E+03  0.85013987624E+00  0.14491423548E+03  0.17818269992E+03  0.47000000000E+01 0. -1.
        -13    1    4    4    0    0  0.12946255953E+02 -0.68629957866E+02  0.90714799904E+02  0.11448515878E+03  0.00000000000E+00 0.  1.
         14    1    4    4    0    0 -0.86531979036E+01 -0.25176976149E+01 -0.13809465913E+02  0.16489935841E+02  0.00000000000E+00 0. -1.
         -5    1    5    5    0  502  0.32243148848E+02  0.44860830375E+00  0.30128163137E+02  0.44380379798E+02  0.47000000000E+01 0.  1.
         11    1    6    6    0    0 -0.11587421425E+03  0.19148065957E+02  0.20902156551E+03  0.23975716216E+03  0.00000000000E+00 0. -1.
        -12    1    6    6    0    0 -0.24229005578E+02  0.50700841344E+02  0.14978364078E+03  0.15997737049E+03  0.00000000000E+00 0.  1.
</event>
<event>
12    1  0.8344842E-002  0.1916925E+03  0.7818608E-02  0.1157053E+00
         21   -1    0    0  501  502  0.00000000000E+00  0.00000000000E+00  0.20840353447E+03  0.20840353447E+03  0.00000000000E+00 0. -1.
         21   -1    0    0  502  503 -0.00000000000E+00 -0.00000000000E+00 -0.20231405343E+03  0.20231405343E+03  0.00000000000E+00 0.  1.
         -6    2    1    2    0  503  0.83223495719E+01  0.84046568346E+02 -0.71192240930E+02  0.20448560965E+03  0.17208411382E+03 0.  0.
        -24    2    3    3    0    0 -0.47454149868E+02  0.80871215253E+01 -0.55419332170E+01  0.89538194042E+02  0.75293275226E+02 0.  0.
          6    2    1    2  501    0 -0.83223495719E+01 -0.84046568346E+02  0.77281721973E+02  0.20623197825E+03  0.17154030766E+03 0.  0.
         24    2    5    5    0    0  0.45300067272E+02 -0.92969017466E+02  0.31083065057E+02  0.13473806532E+03  0.80578253941E+02 0.  0.
          5    1    5    5  501    0 -0.53622416844E+02  0.89224491200E+01  0.46198656916E+02  0.71493912939E+02  0.47000000000E+01 0. -1.
        -13    1    6    6    0    0  0.15511421849E+02 -0.40641725455E+01 -0.21821635503E+02  0.27079613777E+02  0.00000000000E+00 0.  1.
         14    1    6    6    0    0  0.29788645423E+02 -0.88904844921E+02  0.52904700559E+02  0.10765845154E+03  0.00000000000E+00 0. -1.
         -5    1    3    3    0  503  0.55776499440E+02  0.75959446821E+02 -0.65650307713E+02  0.11494741560E+03  0.47000000000E+01 0.  1.
         11    1    4    4    0    0  0.10891598947E+02 -0.10993694015E+02  0.18048663589E+02  0.23774828981E+02  0.00000000000E+00 0. -1.
        -12    1    4    4    0    0 -0.58345748815E+02  0.19080815540E+02 -0.23590596806E+02  0.65763365061E+02  0.00000000000E+00 0.  1.
</event>
<event>
12    1  0.8344842E-002  0.2456978E+03  0.7818608E-02  0.1116272E+00
         21   -1    0    0  503  502  0.00000000000E+00  0.00000000000E+00  0.27527206181E+04  0.27527206181E+04  0.00000000000E+00 0.  1.
         21   -1    0    0  501  503 -0.00000000000E+00 -0.00000000000E+00 -0.21873983447E+02  0.21873983447E+02  0.00000000000E+00 0. -1.
          6    2    1    2  501    0 -0.13655590501E+03 -0.10607438749E+03  0.12944459784E+04  0.13175575217E+04  0.17455125613E+03 0.  0.
         24    2    3    3    0    0 -0.11358251097E+03 -0.13256611616E+03  0.83809359070E+03  0.85983579366E+03  0.80261842372E+02 0.  0.
         -6    2    1    2    0  502  0.13655590501E+03  0.10607438749E+03  0.14364006562E+04  0.14570370799E+04  0.17265837948E+03 0.  0.
        -24    2    5    5    0    0  0.15143556384E+03  0.51858067282E+02  0.94125831511E+03  0.95869097363E+03  0.86597794572E+02 0.  0.
          5    1    3    3  501    0 -0.22973394036E+02  0.26491728667E+02  0.45635238775E+03  0.45772172805E+03  0.47000000000E+01 0. -1.
        -13    1    4    4    0    0 -0.97575171531E+01  0.27409684665E+01  0.17050362331E+03  0.17080458896E+03  0.00000000000E+00 0.  1.
         14    1    4    4    0    0 -0.10382499382E+03 -0.13530708462E+03  0.66758996739E+03  0.68903120470E+03  0.00000000000E+00 0. -1.
         -5    1    5    5    0  502 -0.14879658838E+02  0.54216320208E+02  0.49514234114E+03  0.49834610625E+03  0.47000000000E+01 0.  1.
         13    1    6    6    0    0  0.11819215265E+03  0.49617233202E+02  0.49976416547E+03  0.51594134925E+03  0.00000000000E+00 0. -1.
        -14    1    6    6    0    0  0.33243411193E+02  0.22408340803E+01  0.44149414964E+03  0.44274962438E+03  0.00000000000E+00 0.  1.
</event>
<event>
12    1  0.8344842E-002  0.3494226E+03  0.7818608E-02  0.1062900E+00
         21   -1    0    0  501  502  0.00000000000E+00  0.00000000000E+00  0.31398731276E+03  0.31398731276E+03  0.00000000000E+00 0.  1.
         21   -1    0    0  502  503 -0.00000000000E+00 -0.00000000000E+00 -0.40935915798E+03  0.40935915798E+03  0.00000000000E+00 0. -1.
         -6    2    1    2    0  503  0.25159803901E+03  0.17001486929E+03 -0.12960956814E+03  0.37225048240E+03  0.17194520195E+03 0.  0.
        -24    2    3    3    0    0  0.12706577827E+03  0.18948583280E+02 -0.33520228317E+02  0.15411163221E+03  0.78243393704E+02 0.  0.
          6    2    1    2  501    0 -0.25159803901E+03 -0.17001486929E+03  0.34237722922E+02  0.35109598835E+03  0.17288592293E+03 0.  0.
         24    2    5    5    0    0 -0.25700456879E+03 -0.18915117230E+03  0.31340371686E+02  0.33045832130E+03  0.79943535432E+02 0.  0.
          5    1    5    5  501    0  0.54065297807E+01  0.19136303005E+02  0.28973512364E+01  0.20637667047E+02  0.47000000000E+01 0. -1.
        -13    1    6    6    0    0 -0.10698975983E+02 -0.39080264952E+02  0.24537827355E+01  0.40592563919E+02  0.00000000000E+00 0.  1.
         14    1    6    6    0    0 -0.24630559281E+03 -0.15007090734E+03  0.28886588951E+02  0.28986575738E+03  0.00000000000E+00 0. -1.
         -5    1    3    3    0  503  0.12453226074E+03  0.15106628601E+03 -0.96089339825E+02  0.21813885019E+03  0.47000000000E+01 0.  1.
         11    1    4    4    0    0  0.59591512070E+02  0.20662763216E+02 -0.54577192696E+02  0.83407242234E+02  0.00000000000E+00 0. -1.
        -12    1    4    4    0    0  0.67474266203E+02 -0.17141799362E+01  0.21056964378E+02  0.70704389972E+02  0.00000000000E+00 0.  1.
</event>
<event>
12    1  0.8344842E-002  0.1728145E+03  0.7818608E-02  0.1175037E+00
         21   -1    0    0  503  502  0.00000000000E+00  0.00000000000E+00  0.31317924057E+03  0.31317924057E+03  0.00000000000E+00 0. -1.
         21   -1    0    0  501  503 -0.00000000000E+00 -0.00000000000E+00 -0.11801366940E+03  0.11801366940E+03  0.00000000000E+00 0. -1.
          6    2    1    2  501    0 -0.80208091153E+01 -0.40052049740E+01  0.26251495262E+01  0.17247172085E+03  0.17221854731E+03 0.  0.
         24    2    3    3    0    0 -0.54153278680E+02 -0.93678831965E+01 -0.34355337851E+02  0.11291830355E+03  0.92465773182E+02 0.  0.
         -6    2    1    2    0  502  0.80208091153E+01  0.40052049740E+01  0.19254042165E+03  0.25872118911E+03  0.17258176231E+03 0.  0.
        -24    2    5    5    0    0 -0.19400131643E+02 -0.15950496665E+02  0.22008600534E+02  0.84786344895E+02  0.77933063148E+02 0.  0.
          5    1    3    3  501    0  0.46132469565E+02  0.53626782225E+01  0.36980487378E+02  0.59553417304E+02  0.47000000000E+01 0. -1.
        -11    1    4    4    0    0  0.18763735647E+02  0.20939203583E+02 -0.43787366943E+01  0.28455251838E+02  0.00000000000E+00 0.  1.
         12    1    4    4    0    0 -0.72917014327E+02 -0.30307086780E+02 -0.29976601157E+02  0.84463051711E+02  0.00000000000E+00 0. -1.
         -5    1    5    5    0  502  0.27420940758E+02  0.19955701639E+02  0.17053182111E+03  0.17393484421E+03  0.47000000000E+01 0.  1.
         13    1    6    6    0    0  0.75563341794E+01  0.26086851510E+02  0.21835155536E+02  0.34848185394E+02  0.00000000000E+00 0. -1.
        -14    1    6    6    0    0 -0.26956465822E+02 -0.42037348175E+02  0.17344499790E+00  0.49938159501E+02  0.00000000000E+00 0.  1.
</event>
<event>
12    1  0.8344842E-002  0.1757320E+03  0.7818608E-02  0.1172313E+00
         21   -1    0    0  503  502  0.00000000000E+00  0.00000000000E+00  0.47831654103E+02  0.47831654103E+02  0.00000000000E+00 0. -1.
         21   -1    0    0  501  503 -0.00000000000E+00 -0.00000000000E+00 -0.96921019289E+03  0.96921019289E+03  0.00000000000E+00 0. -1.
          6    2    1    2  501    0  0.32067585741E+01 -0.30068617803E+02 -0.75768664225E+03  0.77779867611E+03  0.17311073810E+03 0.  0.
         24    2    3    3    0    0 -0.12999196748E+02 -0.71154524337E+02 -0.31123684959E+03  0.32914492090E+03  0.78968708743E+02 0.  0.
         -6    2    1    2    0  502 -0.32067585741E+01  0.30068617803E+02 -0.16369189654E+03  0.23924317088E+03  0.17183670371E+03 0.  0.
        -24    2    5    5    0    0  0.40765821436E+02  0.56380375312E+02 -0.55698897564E+02  0.11961677662E+03  0.79782248285E+02 0.  0.
          5    1    3    3  501    0  0.16205955322E+02  0.41085906534E+02 -0.44644979266E+03  0.44865375522E+03  0.47000000000E+01 0. -1.
        -11    1    4    4    0    0 -0.38559991644E+02 -0.13403735250E+02 -0.85596113947E+02  0.94832630445E+02  0.00000000000E+00 0.  1.
         12    1    4    4    0    0  0.25560794896E+02 -0.57750789087E+02 -0.22564073564E+03  0.23431229045E+03  0.00000000000E+00 0. -1.
         -5    1    5    5    0  502 -0.43972580010E+02 -0.26311757509E+02 -0.10799299897E+03  0.11962639426E+03  0.47000000000E+01 0.  1.
         13    1    6    6    0    0  0.22127417545E+01  0.15649320119E+02  0.19946342595E+02  0.25449047706E+02  0.00000000000E+00 0. -1.
        -14    1    6    6    0    0  0.38553079681E+02  0.40731055193E+02 -0.75645240159E+02  0.94167728913E+02  0.00000000000E+00 0.  1.
</event>
<event>
12    1  0.8344842E-002  0.2008220E+03  0.7818608E-02  0.1150866E+00
         21   -1    0    0  501  502  0.00000000000E+00  0.00000000000E+00  0.19687732139E+03  0.19687732139E+03  0.00000000000E+00 0.  1.
         21   -1    0    0  502  503 -0.00000000000E+00 -0.00000000000E+00 -0.21746844987E+03  0.21746844987E+03  0.00000000000E+00 0. -1.
         -6    2    1    2    0  503 -0.90558795728E+02 -0.45884049050E+02 -0.75121271262E+02  0.21441239265E+03  0.17327211918E+03 0.  0.
        -24    2    3    3    0    0 -0.12816601955E+03 -0.30357876758E+02 -0.35583434146E+02  0.15748528247E+03  0.78659418780E+02 0.  0.
          6    2    1    2  501    0  0.90558795728E+02  0.45884049050E+02  0.54530142779E+02  0.19993337860E+03  0.16338169410E+03 0.  0.
         24    2    5    5    0    0  0.12040807869E+03  0.40493036250E+02  0.72366217349E+02  0.16443326214E+03  0.75257138446E+02 0.  0.
          5    1    5    5  501    0 -0.29849282963E+02  0.53910127998E+01 -0.17836074570E+02  0.35500116457E+02  0.47000000000E+01 0. -1.
        -13    1    6    6    0    0  0.76068760728E+02  0.39713458759E+02  0.82398003255E+02  0.11896657558E+03  0.00000000000E+00 0.  1.
         14    1    6    6    0    0  0.44339317963E+02  0.77957749069E+00 -0.10031785906E+02  0.45466686562E+02  0.00000000000E+00 0. -1.
         -5    1    3    3    0  503  0.37607223819E+02 -0.15526172292E+02 -0.39537837116E+02  0.56927110177E+02  0.47000000000E+01 0.  1.
         13    1    4    4    0    0 -0.44114573550E+02  0.26839503769E+02 -0.92028472379E+01  0.52451377097E+02  0.00000000000E+00 0. -1.
        -14    1    4    4    0    0 -0.84051445996E+02 -0.57197380527E+02 -0.26380586908E+02  0.10503390538E+03  0.00000000000E+00 0.  1.
</event>
<event>
12    1  0.8344842E-002  0.1840264E+03  0.7818608E-02  0.1164196E+00
         21   -1    0    0  503  502  0.00000000000E+00  0.00000000000E+00  0.29924603021E+03  0.29924603021E+03  0.00000000000E+00 0.  1.
         21   -1    0    0  501  503 -0.00000000000E+00 -0.00000000000E+00 -0.12958879143E+03  0.12958879143E+03  0.00000000000E+00 0.  1.
          6    2    1    2  501    0 -0.16547856285E+02  0.58556432085E+02  0.69077590307E+01  0.18316616063E+03  0.17262513716E+03 0.  0.
         24    2    3    3    0    0  0.28813056630E+02  0.71345037736E+02 -0.37162985460E+02  0.11847086424E+03  0.82060657712E+02 0.  0.
         -6    2    1    2    0  502  0.16547856285E+02 -0.58556432085E+02  0.16274947974E+03  0.24566866101E+03  0.17367501421E+03 0.  0.
        -24    2    5    5    0    0 -0.51419181363E+02 -0.65180310738E+01  0.61325684786E+02  0.11286659186E+03  0.79319676013E+02 0.  0.
          5    1    3    3  501    0 -0.45360912915E+02 -0.12788605651E+02  0.44070744491E+02  0.64695296389E+02  0.47000000000E+01 0. -1.
        -13    1    4    4    0    0 -0.70536739912E+01  0.68923666981E+02 -0.43726496774E+02  0.81928216794E+02  0.00000000000E+00 0.  1.
         14    1    4    4    0    0  0.35866730621E+02  0.24213707547E+01  0.65635113137E+01  0.36542647448E+02  0.00000000000E+00 0. -1.
         -5    1    5    5    0  502  0.67967037648E+02 -0.52038401012E+02  0.10142379496E+03  0.13280206915E+03  0.47000000000E+01 0.  1.
         11    1    6    6    0    0  0.33307716486E+01  0.20562938365E+02 -0.62773033656E+01  0.21756217767E+02  0.00000000000E+00 0. -1.
        -12    1    6    6    0    0 -0.54749953012E+02 -0.27080969439E+02  0.67602988152E+02  0.91110374094E+02  0.00000000000E+00 0.  1.
</event>
<event>
12    1  0.8344842E-002  0.1917093E+03  0.7818608E-02  0.1157223E+00
         21   -1    0    0  501  502  0.00000000000E+00  0.00000000000E+00  0.23745147782E+02  0.23745147782E+02  0.00000000000E+00 0. -1.
         21   -1    0    0  502  503 -0.00000000000E+00 -0.00000000000E+00 -0.19081733285E+04  0.19081733285E+04  0.00000000000E+00 0. -1.
         -6    2    1    2    0  503 -0.12225867236E+01 -0.84481375329E+02 -0.13655241222E+04  0.13787332498E+04  0.17061842826E+03 0.  0.
        -24    2    3    3    0    0 -0.66383219292E+02 -0.46757508042E+02 -0.91489874145E+03  0.92183684791E+03  0.78424936770E+02 0.  0.
          6    2    1    2  501    0  0.12225867236E+01  0.84481375329E+02 -0.51890405848E+03  0.55318522653E+03  0.17208682532E+03 0.  0.
         24    2    5    5    0    0  0.39803048091E+02  0.11994984436E+01 -0.15932947577E+03  0.18205143185E+03  0.78556480055E+02 0.  0.
          5    1    5    5  501    0 -0.38580461368E+02  0.83281876886E+02 -0.35957458272E+03  0.37113379468E+03  0.47000000000E+01 0. -1.
        -13    1    6    6    0    0  0.87294739125E+01 -0.33697103284E+01 -0.14855142883E+03  0.14884584533E+03  0.00000000000E+00 0.  1.
         14    1    6    6    0    0  0.31073574179E+02  0.45692087721E+01 -0.10778046933E+02  0.33205586529E+02  0.00000000000E+00 0. -1.
         -5    1    3    3    0  503  0.65160632569E+02 -0.37723867288E+02 -0.45062538080E+03  0.45689640185E+03  0.47000000000E+01 0.  1.
         13    1    4    4    0    0 -0.11314799357E+02 -0.29484484936E+02 -0.64801389945E+03  0.64878299409E+03  0.00000000000E+00 0. -1.
        -14    1    4    4    0    0 -0.55068419936E+02 -0.17273023106E+02 -0.26688484199E+03  0.27305385382E+03  0.00000000000E+00 0.  1.
</event>
<event>
12    1  0.8344842E-002  0.1905834E+03  0.7818608E-02  0.1158214E+00
         21   -1    0    0  501  502  0.00000000000E+00  0.00000000000E+00  0.46612129866E+03  0.46612129866E+03  0.00000000000E+00 0.  1.
         21   -1    0    0  502  503 -0.00000000000E+00 -0.00000000000E+00 -0.10687884394E+03  0.10687884394E+03  0.00000000000E+00 0. -1.
         -6    2    1    2    0  503  0.77131276608E+02 -0.15646509458E+02  0.29631682985E+02  0.19287315928E+03  0.17357411053E+03 0.  0.
        -24    2    3    3    0    0  0.11485004118E+03 -0.39996747648E+02  0.28579203213E+02  0.14771967642E+03  0.78829310317E+02 0.  0.
          6    2    1    2  501    0 -0.77131276608E+02  0.15646509458E+02  0.32961077174E+03  0.38012698332E+03  0.17221851095E+03 0.  0.
         24    2    5    5    0    0 -0.61860005168E+02 -0.48125849812E+02  0.13900321757E+03  0.17849996320E+03  0.79984902999E+02 0.  0.
          5    1    5    5  501    0 -0.15271271440E+02  0.63772359271E+02  0.19060755417E+03  0.20162702012E+03  0.47000000000E+01 0. -1.
        -11    1    6    6    0    0 -0.30505927165E+02  0.17913179581E+02  0.67672151703E+02  0.76361074580E+02  0.00000000000E+00 0.  1.
         12    1    6    6    0    0 -0.31354078003E+02 -0.66039029393E+02  0.71331065869E+02  0.10213888862E+03  0.00000000000E+00 0. -1.
         -5    1    3    3    0  503 -0.37718764569E+02  0.24350238190E+02  0.10524797722E+01  0.45153482858E+02  0.47000000000E+01 0.  1.
         11    1    4    4    0    0  0.12314023802E+02 -0.28516931626E+02 -0.16445415947E+02  0.35146867246E+02  0.00000000000E+00 0. -1.
        -12    1    4    4    0    0  0.10253601738E+03 -0.11479816022E+02  0.45024619160E+02  0.11257280918E+03  0.00000000000E+00 0.  1.
</event>
<event>
12    1  0.8344842E-002  0.2351213E+03  0.7818608E-02  0.1123452E+00
         21   -1    0    0  501  502  0.00000000000E+00  0.00000000000E+00  0.22985111007E+03  0.22985111007E+03  0.00000000000E+00 0.  1.
         21   -1    0    0  502  503 -0.00000000000E+00 -0.00000000000E+00 -0.30670199054E+03  0.30670199054E+03  0.00000000000E+00 0.  1.
         -6    2    1    2    0  503 -0.68619391560E+02 -0.14197142583E+03 -0.16494517026E+03  0.28547020586E+03  0.17152790616E+03 0.  0.
        -24    2    3    3    0    0 -0.61303675139E+02 -0.17222907960E+03 -0.15399512885E+03  0.25213795833E+03  0.80237484225E+02 0.  0.
          6    2    1    2  501    0  0.68619391560E+02  0.14197142583E+03  0.88094289791E+02  0.25108289474E+03  0.17440616242E+03 0.  0.
         24    2    5    5    0    0  0.10487741355E+03  0.13035191091E+03  0.10066355055E+03  0.21071293559E+03  0.79220567182E+02 0.  0.
          5    1    5    5  501    0 -0.36258021993E+02  0.11619514914E+02 -0.12569260760E+02  0.40369959149E+02  0.47000000000E+01 0. -1.
        -11    1    6    6    0    0  0.34758770674E+02  0.23806283477E+02  0.66408477826E+02  0.78644753156E+02  0.00000000000E+00 0.  1.
         12    1    6    6    0    0  0.70118642879E+02  0.10654562744E+03  0.34255072724E+02  0.13206818244E+03  0.00000000000E+00 0. -1.
         -5    1    3    3    0  503 -0.73157164206E+01  0.30257653774E+02 -0.10950041410E+02  0.33332247532E+02  0.47000000000E+01 0.  1.
         11    1    4    4    0    0  0.50062569447E+01 -0.10405813615E+03 -0.88128432769E+02  0.13645431092E+03  0.00000000000E+00 0. -1.
        -12    1    4    4    0    0 -0.66309932084E+02 -0.68170943450E+02 -0.65866696082E+02  0.11568364740E+03  0.00000000000E+00 0.  1.
</event>
<event>
12    1  0.8344842E-002  0.1778220E+03  0.7818608E-02  0.1170022E+00
         21   -1    0    0  501  502  0.00000000000E+00  0.00000000000E+00  0.83116995127E+02  0.83116995127E+02  0.00000000000E+00 0. -1.
         21   -1    0    0  502  503 -0.00000000000E+00 -0.00000000000E+00 -0.45844752057E+03  0.45844752057E+03  0.00000000000E+00 0. -1.
         -6    2    1    2    0  503 -0.15516139870E+02  0.40919082060E+02 -0.30011711188E+03  0.34884227235E+03  0.17235291777E+03 0.  0.
        -24    2    3    3    0    0 -0.18613430804E+02 -0.40915190445E+02 -0.13275116996E+03  0.16245587294E+03  0.82149406049E+02 0.  0.
          6    2    1    2  501    0  0.15516139870E+02 -0.40919082060E+02 -0.75213413564E+02  0.19272224335E+03  0.17195837760E+03 0.  0.
         24    2    5    5    0    0 -0.46252553251E+02 -0.48544999459E+02 -0.14893183826E+02  0.10592278378E+03  0.80634443904E+02 0.  0.
          5    1    5    5  501    0  0.61768693121E+02  0.76259173995E+01 -0.60320229738E+02  0.86799459570E+02  0.47000000000E+01 0. -1.
        -13    1    6    6    0    0 -0.15265021488E+02  0.77023437803E+01 -0.34729821738E+02  0.38710560558E+02  0.00000000000E+00 0.  1.
         14    1    6    6    0    0 -0.30987531763E+02 -0.56247343240E+02  0.19836637912E+02  0.67212223218E+02  0.00000000000E+00 0. -1.
         -5    1    3    3    0  503  0.30972909337E+01  0.81834272505E+02 -0.16736594192E+03  0.18638639940E+03  0.47000000000E+01 0.  1.
         13    1    4    4    0    0 -0.44930057868E+02 -0.51965745640E+01 -0.90581546438E+02  0.10124589395E+03  0.00000000000E+00 0. -1.
        -14    1    4    4    0    0  0.26316627064E+02 -0.35718615881E+02 -0.42169623518E+02  0.61209978991E+02  0.00000000000E+00 0.  1.
</event>
<event>
12    1  0.8344842E-002  0.2017315E+03  0.7818608E-02  0.1148767E+00
         21   -1    0    0  501  502  0.00000000000E+00  0.00000000000E+00  0.42641901500E+03  0.42641901500E+03  0.00000000000E+00 0.  1.
         21   -1    0    0  502  503 -0.00000000000E+00 -0.00000000000E+00 -0.12596453765E+03  0.12596453765E+03  0.00000000000E+00 0.  1.
         -6    2    1    2    0  503  0.94127416177E+02 -0.46173717656E+02  0.11229081698E+02  0.19975492704E+03  0.16965835058E+03 0.  0.
        -24    2    3    3    0    0 -0.46859797492E+01 -0.50291859848E+02 -0.33052606411E+02  0.91292932718E+02  0.68488650159E+02 0.  0.
          6    2    1    2  501    0 -0.94127416177E+02  0.46173717656E+02  0.28922539565E+03  0.35262862561E+03  0.17234742653E+03 0.  0.
         24    2    5    5    0    0 -0.99749450923E+02  0.78490025151E+02  0.16445412539E+03  0.22353210789E+03  0.82527612915E+02 0.  0.
          5    1    5    5  501    0  0.56220347454E+01 -0.32316307495E+02  0.12477127026E+03  0.12909651772E+03  0.47000000000E+01 0. -1.
        -13    1    6    6    0    0 -0.70451610805E+02  0.53144498609E+02  0.16229042128E+03  0.18473209801E+03  0.00000000000E+00 0.  1.
         14    1    6    6    0    0 -0.29297840117E+02  0.25345526541E+02  0.21637041118E+01  0.38800009880E+02  0.00000000000E+00 0. -1.
         -5    1    3    3    0  503  0.98813395926E+02  0.41181421917E+01  0.44281688109E+02  0.10846199432E+03  0.47000000000E+01 0.  1.
         13    1    4    4    0    0 -0.17449166020E+02 -0.62781899808E+02 -0.17149974338E+02  0.67380723936E+02  0.00000000000E+00 0. -1.
        -14    1    4    4    0    0  0.12763186271E+02  0.12490039961E+02 -0.15902632073E+02  0.23912208782E+02  0.00000000000E+00 0.  1.
</event>
<event>
12    1  0.8344842E-002  0.2475320E+03  0.7818608E-02  0.1114948E+00
         21   -1    0    0  503  502  0.00000000000E+00  0.00000000000E+00  0.99533130504E+03  0.99533130504E+03  0.00000000000E+00 0. -1.
         21   -1    0    0  501  503 -0.00000000000E+00 -0.00000000000E+00 -0.14514595104E+03  0.14514595104E+03  0.00000000000E+00 0.  1.
          6    2    1    2  501    0  0.17779283757E+03 -0.62584071105E+01 -0.81013133441E+01  0.24720905960E+03  0.17145619593E+03 0.  0.
         24    2    3    3    0    0  0.20172453907E+03  0.20408320847E+01  0.65971514613E+01  0.21754867228E+03  0.81160013214E+02 0.  0.
         -6    2    1    2    0  502 -0.17779283757E+03  0.62584071105E+01  0.85828666735E+03  0.89326819647E+03  0.17211219230E+03 0.  0.
        -24    2    5    5    0    0 -0.91361262341E+02 -0.50599735791E+02  0.61352853748E+03  0.62750157377E+03  0.80210630585E+02 0.  0.
          5    1    3    3  501    0 -0.23931701508E+02 -0.82992391952E+01 -0.14698464805E+02  0.29660387319E+02  0.47000000000E+01 0. -1.
        -13    1    4    4    0    0  0.11743668497E+03 -0.35982247374E+02 -0.11374853076E+02  0.12335106155E+03  0.00000000000E+00 0.  1.
         14    1    4    4    0    0  0.84287854101E+02  0.38023079459E+02  0.17972004538E+02  0.94197610732E+02  0.00000000000E+00 0. -1.
         -5    1    5    5    0  502 -0.86431575224E+02  0.56858142901E+02  0.24475812986E+03  0.26576662271E+03  0.47000000000E+01 0.  1.
         13    1    6    6    0    0 -0.68274891745E+02  0.65538011308E+01  0.27630638092E+03  0.28469216584E+03  0.00000000000E+00 0. -1.
        -14    1    6    6    0    0 -0.23086370596E+02 -0.57153536921E+02  0.33722215656E+03  0.34280940793E+03  0.00000000000E+00 0.  1.
</event>
<event>
12    1  0.8344842E-002  0.1929285E+03  0.7818608E-02  0.1155944E+00
         21   -1    0    0  503  502  0.00000000000E+00  0.00000000000E+00  0.30633838101E+02  0.30633838101E+02  0.00000000000E+00 0.  1.
         21   -1    0    0  501  503 -0.00000000000E+00 -0.00000000000E+00 -0.20613239199E+04  0.20613239199E+04  0.00000000000E+00 0.  1.
          6    2    1    2  501    0 -0.77602278609E+02 -0.41361121202E+02 -0.16859661721E+04  0.16969185432E+04  0.17122427686E+03 0.  0.
         24    2    3    3    0    0 -0.20301221765E+02  0.37749390120E+02 -0.10027820414E+04  0.10067703487E+04  0.78597431558E+02 0.  0.
         -6    2    1    2    0  502  0.77602278609E+02  0.41361121202E+02 -0.34472390976E+03  0.39503921480E+03  0.17172230863E+03 0.  0.
        -24    2    5    5    0    0  0.98222312430E+02 -0.62470219849E+01 -0.28420320047E+03  0.31518580319E+03  0.94254885483E+02 0.  0.
          5    1    3    3  501    0 -0.57301056844E+02 -0.79110511322E+02 -0.68318413064E+03  0.69014819458E+03  0.47000000000E+01 0. -1.
        -11    1    4    4    0    0  0.54462143124E+01 -0.22947874378E+02 -0.25862610652E+03  0.25969930528E+03  0.00000000000E+00 0.  1.
         12    1    4    4    0    0 -0.25747436077E+02  0.60697264497E+02 -0.74415593491E+03  0.74707104337E+03  0.00000000000E+00 0. -1.
         -5    1    5    5    0  502 -0.20620033822E+02  0.47608143187E+02 -0.60520709292E+02  0.79853411610E+02  0.47000000000E+01 0.  1.
         11    1    6    6    0    0  0.69648194108E+02  0.18587232749E+02 -0.80768464441E+02  0.10825849164E+03  0.00000000000E+00 0. -1.
        -12    1    6    6    0    0  0.28574118323E+02 -0.24834254734E+02 -0.20343473602E+03  0.20692731156E+03  0.00000000000E+00 0.  1.
</event>
<event>
12    1  0.8344842E-002  0.1967132E+03  0.7818608E-02  0.1153135E+00
         21   -1    0    0  501  502  0.00000000000E+00  0.00000000000E+00  0.44497478058E+02  0.44497478058E+02  0.00000000000E+00 0.  1.
         21   -1    0    0  502  503 -0.00000000000E+00 -0.00000000000E+00 -0.10193915195E+04  0.10193915195E+04  0.00000000000E+00 0.  1.
         -6    2    1    2    0  503  0.86429919951E+02 -0.39209050780E+02 -0.70223836171E+03  0.72927005813E+03  0.17230386040E+03 0.  0.
        -24    2    3    3    0    0  0.70173088590E+02 -0.88305118870E+02 -0.40556370074E+03  0.42808464526E+03  0.77797761966E+02 0.  0.
          6    2    1    2  501    0 -0.86429919951E+02  0.39209050780E+02 -0.27265567974E+03  0.33461893943E+03  0.16917811385E+03 0.  0.
         24    2    5    5    0    0 -0.82794787714E+02  0.58519985433E+01 -0.84015380159E+02  0.14295997213E+03  0.80558964550E+02 0.  0.
          5    1    5    5  501    0 -0.36351322369E+01  0.33357052236E+02 -0.18864029958E+03  0.19165896730E+03  0.47000000000E+01 0. -1.
        -13    1    6    6    0    0 -0.25505217651E+02 -0.35002932680E+02 -0.19505695345E+02  0.47499406044E+02  0.00000000000E+00 0.  1.
         14    1    6    6    0    0 -0.57289570063E+02  0.40854931223E+02 -0.64509684813E+02  0.95460566089E+02  0.00000000000E+00 0. -1.
         -5    1    3    3    0  503  0.16256831361E+02  0.49096068091E+02 -0.29667466097E+03  0.30118541287E+03  0.47000000000E+01 0.  1.
         13    1    4    4    0    0  0.56346918900E+02 -0.96294775062E+02 -0.39052413406E+03  0.40614868983E+03  0.00000000000E+00 0. -1.
        -14    1    4    4    0    0  0.13826169690E+02  0.79896561913E+01 -0.15039566686E+02  0.21935955426E+02  0.00000000000E+00 0.  1.
</event>
<event>
12    1  0.8344842E-002  0.2083907E+03  0.7818608E-02  0.1143022E+00
         21   -1    0    0  501  502  0.00000000000E+00  0.00000000000E+00  0.19880900227E+03  0.19880900227E+03  0.00000000000E+00 0. -1.
         21   -1    0    0  502  503 -0.00000000000E+00 -0.00000000000E+00 -0.22022373864E+03  0.22022373864E+03  0.00000000000E+00 0. -1.
         -6    2    1    2    0  503  0.81654185214E+01  0.11780106035E+03 -0.33941195553E+02  0.21113665619E+03  0.17170590832E+03 0.  0.
        -24    2    3    3    0    0 -0.37007841699E+02  0.94335518055E+01 -0.23641851918E+02  0.93186213939E+02  0.81646561834E+02 0.  0.
          6    2    1    2  501    0 -0.81654185214E+01 -0.11780106035E+03  0.12526459184E+02  0.20789608473E+03  0.17064614261E+03 0.  0.
         24    2    5    5    0    0 -0.87241941675E+01 -0.10048319781E+03  0.70567665459E+02  0.14714172506E+03  0.80609597684E+02 0.  0.
          5    1    5    5  501    0  0.55877564614E+00 -0.17317862545E+02 -0.58041206275E+02  0.60754359673E+02  0.47000000000E+01 0. -1.
        -11    1    6    6    0    0  0.35764437206E+02 -0.36878199605E+02  0.31272484514E+02  0.60142039061E+02  0.00000000000E+00 0.  1.
         12    1    6    6    0    0 -0.44488631373E+02 -0.63604998201E+02  0.39295180945E+02  0.86999685994E+02  0.00000000000E+00 0. -1.
         -5    1    3    3    0  503  0.45173260220E+02  0.10836750855E+03 -0.10299343634E+02  0.11795044225E+03  0.47000000000E+01 0.  1.
         11    1    4    4    0    0  0.16419081025E+02 -0.48361421098E+01 -0.32929141479E+02  0.37112031078E+02  0.00000000000E+00 0. -1.
        -12    1    4    4    0    0 -0.53426922723E+02  0.14269693915E+02  0.92872895603E+01  0.56074182861E+02  0.00000000000E+00 0.  1.
</event>
<event>
12    1  0.8344842E-002  0.2267387E+03  0.7818608E-02  0.1130123E+00
         21   -1    0    0  503  502  0.00000000000E+00  0.00000000000E+00  0.41815197379E+03  0.41815197379E+03  0.00000000000E+00 0.  1.
         21   -1    0    0  501  503 -0.00000000000E+00 -0.00000000000E+00 -0.25927124598E+03  0.25927124598E+03  0.00000000000E+00 0.  1.
          6    2    1    2  501    0 -0.13922554053E+03 -0.71188563805E+00 -0.16976881076E+03  0.27814770471E+03  0.17076427791E+03 0.  0.
         24    2    3    3    0    0 -0.53999991250E+02 -0.60724930701E+02 -0.95390627148E+02  0.15001041886E+03  0.82463554098E+02 0.  0.
         -6    2    1    2    0  502  0.13922554053E+03  0.71188563805E+00  0.32864953857E+03  0.39927551506E+03  0.17895854215E+03 0.  0.
        -24    2    5    5    0    0  0.52621322644E+01  0.36675679099E+02  0.12816595851E+03  0.15544084757E+03  0.79765585939E+02 0.  0.
          5    1    3    3  501    0 -0.85225549280E+02  0.60013045063E+02 -0.74378183613E+02  0.12813728585E+03  0.47000000000E+01 0. -1.
        -13    1    4    4    0    0  0.12684864168E+02 -0.68672104842E+01 -0.51946407289E+02  0.53911905819E+02  0.00000000000E+00 0.  1.
         14    1    4    4    0    0 -0.66684855418E+02 -0.53857720216E+02 -0.43444219859E+02  0.96098513039E+02  0.00000000000E+00 0. -1.
         -5    1    5    5    0  502  0.13396340827E+03 -0.35963793461E+02  0.20048358006E+03  0.24383466749E+03  0.47000000000E+01 0.  1.
         13    1    6    6    0    0 -0.14453578089E+02  0.41818325442E+02  0.26119297362E+02  0.51379917838E+02  0.00000000000E+00 0. -1.
        -14    1    6    6    0    0  0.19715710353E+02 -0.51426463428E+01  0.10204666114E+03  0.10406092973E+03  0.00000000000E+00 0.  1.
</event>
<event>
12    1  0.8344842E-002  0.1976523E+03  0.7818608E-02  0.1152206E+00
         21   -1    0    0  501  502  0.00000000000E+00  0.00000000000E+00  0.23881728247E+03  0.23881728247E+03  0.00000000000E+00 0. -1.
         21   -1    0    0  502  503 -0.00000000000E+00 -0.00000000000E+00 -0.16191913520E+03  0.16191913520E+03  0.00000000000E+00 0.  1.
         -6    2    1    2    0  503 -0.97343871108E+02 -0.13670189750E+02  0.32360309074E+02  0.19812825567E+03  0.16895239791E+03 0.  0.
        -24    2    3    3    0    0 -0.45422601762E+02 -0.61565648935E+02 -0.16410286038E+02  0.11216050492E+03  0.80356328289E+02 0.  0.
          6    2    1    2  501    0  0.97343871108E+02  0.13670189750E+02  0.44537838194E+02  0.20260816200E+03  0.17147520214E+03 0.  0.
         24    2    5    5    0    0  0.11522561107E+03 -0.17332958906E+02 -0.52996494033E+01  0.14107104295E+03  0.79344690841E+02 0.  0.
          5    1    5    5  501    0 -0.17881739966E+02  0.31003148656E+02  0.49837487597E+02  0.61537119049E+02  0.47000000000E+01 0. -1.
        -13    1    6    6    0    0  0.69952884109E+02 -0.35007368578E+02  0.26959245646E+02  0.82738883095E+02  0.00000000000E+00 0.  1.
         14    1    6    6    0    0  0.45272726964E+02  0.17674409672E+02 -0.32258895050E+02  0.58332159860E+02  0.00000000000E+00 0. -1.
         -5    1    3    3    0  503 -0.51921269346E+02  0.47895459185E+02  0.48770595112E+02  0.85967750748E+02  0.47000000000E+01 0.  1.
         11    1    4    4    0    0  0.75639061771E+01 -0.21121082603E+02  0.25075651417E+02  0.33646710106E+02  0.00000000000E+00 0. -1.
        -12    1    4    4    0    0 -0.52986507939E+02 -0.40444566332E+02 -0.41485937455E+02  0.78513794813E+02  0.00000000000E+00 0.  1.
</event>
<event>
12    1  0.8344842E-002  0.2356545E+03  0.7818608E-02  0.1122872E+00
         21   -1    0    0  503  502  0.00000000000E+00  0.00000000000E+00  0.13139010124E+03  0.13139010124E+03  0.00000000000E+00 0. -1.
         21   -1    0    0  501  503 -0.00000000000E+00 -0.00000000000E+00 -0.45544221398E+03  0.45544221398E+03  0.00000000000E+00 0.  1.
          6    2    1    2  501    0 -0.14885158091E+03 -0.63558689644E+02 -0.24289927372E+03  0.33842739601E+03  0.17127914359E+03 0.  0.
         24    2    3    3    0    0 -0.29174465964E+02 -0.31831514561E+02 -0.16951124103E+03  0.19442351127E+03  0.84864869726E+02 0.  0.
         -6    2    1    2    0  502  0.14885158091E+03  0.63558689644E+02 -0.81152839019E+02  0.24840491920E+03  0.17006681168E+03 0.  0.
        -24    2    5    5    0    0  0.15085025133E+03  0.99860197958E+02 -0.63293320582E+02  0.20762690321E+03  0.79843778990E+02 0.  0.
          5    1    3    3  501    0 -0.11967711494E+03 -0.31727175082E+02 -0.73388032692E+02  0.14400388475E+03  0.47000000000E+01 0. -1.
        -11    1    4    4    0    0 -0.37140004586E+02 -0.63080589827E+01 -0.16246172346E+03  0.16677224930E+03  0.00000000000E+00 0.  1.
         12    1    4    4    0    0  0.79655386212E+01 -0.25523455579E+02 -0.70495175745E+01  0.27651261965E+02  0.00000000000E+00 0. -1.
         -5    1    5    5    0  502 -0.19986704228E+01 -0.36301508314E+02 -0.17859518437E+02  0.40778015991E+02  0.47000000000E+01 0.  1.
         11    1    6    6    0    0  0.77205480083E+02  0.76598806411E+02 -0.15814124822E+01  0.10876839690E+03  0.00000000000E+00 0. -1.
        -12    1    6    6    0    0  0.73644771248E+02  0.23261391548E+02 -0.61711908100E+02  0.98858506312E+02  0.00000000000E+00 0.  1.
</event>
<event>
12    1  0.8344842E-002  0.2948352E+03  0.7818608E-02  0.1088589E+00
         21   -1    0    0  503  502  0.00000000000E+00  0.00000000000E+00  0.41072057886E+03  0.41072057886E+03  0.00000000000E+00 0. -1.
         21   -1    0    0  501  503 -0.00000000000E+00 -0.00000000000E+00 -0.31302691086E+03  0.31302691086E+03  0.00000000000E+00 0.  1.
          6    2    1    2  501    0 -0.44911411083E+02  0.23574245356E+03 -0.16150681170E+03  0.33117563622E+03  0.16124922493E+03 0.  0.
         24    2    3    3    0    0  0.29619029094E+02  0.16670424588E+03 -0.10638534527E+03  0.21549708724E+03  0.80334055298E+02 0.  0.
         -6    2    1    2    0  502  0.44911411083E+02 -0.23574245356E+03  0.25920047970E+03  0.39257185350E+03  0.17127823045E+03 0.  0.
        -24    2    5    5    0    0  0.67755070458E+02 -0.23483138871E+03  0.18976068267E+03  0.31931451104E+03  0.78842308311E+02 0.  0.
          5    1    3    3  501    0 -0.74530440177E+02  0.69038207682E+02 -0.55121466432E+02  0.11567854898E+03  0.47000000000E+01 0. -1.
        -11    1    4    4    0    0 -0.23420004448E+02  0.96790232247E+02 -0.59425090235E+02  0.11596631846E+03  0.00000000000E+00 0.  1.
         12    1    4    4    0    0  0.53039033541E+02  0.69914013635E+02 -0.46960255030E+02  0.99530768781E+02  0.00000000000E+00 0. -1.
         -5    1    5    5    0  502 -0.22843659374E+02 -0.91106485734E+00  0.69439797029E+02  0.73257342459E+02  0.47000000000E+01 0.  1.
         13    1    6    6    0    0  0.40361799674E+00 -0.31254795082E+02  0.62721148228E+02  0.70078295913E+02  0.00000000000E+00 0. -1.
        -14    1    6    6    0    0  0.67351452461E+02 -0.20357659362E+03  0.12703953445E+03  0.24923621513E+03  0.00000000000E+00 0.  1.
</event>
<event>
12    1  0.8344842E-002  0.1936694E+03  0.7818608E-02  0.1155835E+00
         21   -1    0    0  503  502  0.00000000000E+00  0.00000000000E+00  0.67253955198E+02  0.67253955198E+02  0.00000000000E+00 0.  1.
         21   -1    0    0  501  503 -0.00000000000E+00 -0.00000000000E+00 -0.81079058146E+03  0.81079058146E+03  0.00000000000E+00 0.  1.
          6    2    1    2  501    0  0.16857369745E+02 -0.84079089443E+02 -0.61914175571E+03  0.64786649988E+03  0.17041427114E+03 0.  0.
         24    2    3    3    0    0  0.43528783181E+02 -0.52148762337E+02 -0.19539805251E+03  0.22205935329E+03  0.80719942281E+02 0.  0.
         -6    2    1    2    0  502 -0.16857369745E+02  0.84079089443E+02 -0.12439487056E+03  0.23017803678E+03  0.17365016729E+03 0.  0.
        -24    2    5    5    0    0 -0.19754234565E+02 -0.12253785333E+02 -0.14717146106E+02  0.84096868147E+02  0.79468885763E+02 0.  0.
          5    1    3    3  501    0 -0.26671413436E+02 -0.31930327106E+02 -0.42374370320E+03  0.42580714659E+03  0.47000000000E+01 0. -1.
        -11    1    4    4    0    0  0.54783872333E+02 -0.34458219551E+02 -0.18954598014E+03  0.20029058927E+03  0.00000000000E+00 0.  1.
         12    1    4    4    0    0 -0.11255089152E+02 -0.17690542786E+02 -0.58520723612E+01  0.21768764016E+02  0.00000000000E+00 0. -1.
         -5    1    5    5    0  502  0.28968648196E+01  0.96332874776E+02 -0.10967772445E+03  0.14608116863E+03  0.47000000000E+01 0.  1.
         13    1    6    6    0    0  0.42454166247E+01 -0.22175155648E+02 -0.41215581891E+02  0.46994523946E+02  0.00000000000E+00 0. -1.
        -14    1    6    6    0    0 -0.23999651189E+02  0.99213703147E+01  0.26498435785E+02  0.37102344201E+02  0.00000000000E+00 0.  1.
</event>
<event>
12    1  0.8344842E-002  0.1984531E+03  0.7818608E-02  0.1152539E+00
         21   -1    0    0  501  502  0.00000000000E+00  0.00000000000E+00  0.13038619418E+03  0.13038619418E+03  0.00000000000E+00 0.  1.
         21   -1    0    0  502  503 -0.00000000000E+00 -0.00000000000E+00 -0.30241307394E+03  0.30241307394E+03  0.00000000000E+00 0.  1.
         -6    2    1    2    0  503 -0.88398735917E+02  0.40898330269E+02 -0.12526428885E+03  0.22891110431E+03  0.16499133821E+03 0.  0.
        -24    2    3    3    0    0 -0.54363453895E+02  0.54007633960E+02 -0.14830323297E+03  0.18551597542E+03  0.80932802883E+02 0.  0.
          6    2    1    2  501    0  0.88398735917E+02 -0.40898330269E+02 -0.46762590905E+02  0.20388816382E+03  0.17290642992E+03 0.  0.
         24    2    5    5    0    0  0.10652847367E+03 -0.30273960529E+02  0.16071571769E+02  0.13746688242E+03  0.79837459597E+02 0.  0.
          5    1    5    5  501    0 -0.18129737754E+02 -0.10624369740E+02 -0.62834162674E+02  0.66421281396E+02  0.47000000000E+01 0. -1.
        -11    1    6    6    0    0  0.89030190348E+01 -0.71552486881E+01 -0.26213863017E+02  0.28594194271E+02  0.00000000000E+00 0.  1.
         12    1    6    6    0    0  0.97625454636E+02 -0.23118711840E+02  0.42285434786E+02  0.10887268815E+03  0.00000000000E+00 0. -1.
         -5    1    3    3    0  503 -0.34035282022E+02 -0.13109303691E+02  0.23038944112E+02  0.43395128889E+02  0.47000000000E+01 0.  1.
         11    1    4    4    0    0  0.54634514471E+01  0.43778448098E+02 -0.32587636812E+02  0.54848481224E+02  0.00000000000E+00 0. -1.
        -12    1    4    4    0    0 -0.59826905342E+02  0.10229185862E+02 -0.11571559615E+03  0.13066749420E+03  0.00000000000E+00 0.  1.
</event>
<event>
12    1  0.8344842E-002  0.3080401E+03  0.7818608E-02  0.1081409E+00
         21   -1    0    0  503  502  0.00000000000E+00  0.00000000000E+00  0.25280627093E+03  0.25280627093E+03  0.00000000000E+00 0. -1.
         21   -1    0    0  501  503 -0.00000000000E+00 -0.00000000000E+00 -0.39844095383E+03  0.39844095383E+03  0.00000000000E+00 0.  1.
          6    2    1    2  501    0 -0.32508803123E+01  0.25392957548E+03 -0.15335746722E+03  0.34410351822E+03  0.17434999563E+03 0.  0.
         24    2    3    3    0    0  0.39481369144E+02  0.23967859434E+03 -0.10178598918E+03  0.27546793740E+03  0.80731591414E+02 0.  0.
         -6    2    1    2    0  502  0.32508803123E+01 -0.25392957548E+03  0.77227843090E+01  0.30714370654E+03  0.17258857882E+03 0.  0.
        -24    2    5    5    0    0  0.40817538905E+02 -0.15122663572E+03  0.61409555908E+02  0.18522772269E+03  0.77476505223E+02 0.  0.
          5    1    3    3  501    0 -0.42732249456E+02  0.14250981144E+02 -0.51571478041E+02  0.68635580820E+02  0.47000000000E+01 0. -1.
        -11    1    4    4    0    0 -0.16768646144E+02  0.14408112280E+03 -0.58016893068E+02  0.15622585357E+03  0.00000000000E+00 0.  1.
         12    1    4    4    0    0  0.56250015287E+02  0.95597471533E+02 -0.43769096109E+02  0.11924208384E+03  0.00000000000E+00 0. -1.
         -5    1    5    5    0  502 -0.37566658593E+02 -0.10270293976E+03 -0.53686771599E+02  0.12191598385E+03  0.47000000000E+01 0.  1.
         13    1    6    6    0    0  0.47144904597E+02 -0.36556892162E+02  0.25719097583E+02  0.64965532203E+02  0.00000000000E+00 0. -1.
        -14    1    6    6    0    0 -0.63273656922E+01 -0.11466974356E+03  0.35690458325E+02  0.12026219049E+03  0.00000000000E+00 0.  1.
</event>
<event>
12    1  0.8344842E-002  0.1951195E+03  0.7818608E-02  0.1154313E+00
         21   -1    0    0  501  502  0.00000000000E+00  0.00000000000E+00  0.15441964217E+03  0.15441964217E+03  0.00000000000E+00 0. -1.
         21   -1    0    0  502  503 -0.00000000000E+00 -0.00000000000E+00 -0.57551094451E+03  0.57551094451E+03  0.00000000000E+00 0. -1.
         -6    2    1    2    0  503  0.68206106571E+02  0.61051457171E+02 -0.48782275639E+03  0.52539762599E+03  0.17231445195E+03 0.  0.
        -24    2    3    3    0    0  0.48089479201E+02  0.78391299436E+02 -0.18296645296E+03  0.21935056332E+03  0.78613948412E+02 0.  0.
          6    2    1    2  501    0 -0.68206106571E+02 -0.61051457171E+02  0.66731454055E+02  0.20453296069E+03  0.17029765604E+03 0.  0.
         24    2    5    5    0    0  0.27415818814E+02 -0.25427795467E+02  0.53592012730E+02  0.10154105419E+03  0.77719250852E+02 0.  0.
          5    1    5    5  501    0 -0.95621925385E+02 -0.35623661705E+02  0.13139441325E+02  0.10299190651E+03  0.47000000000E+01 0. -1.
        -11    1    6    6    0    0 -0.13823441634E+02  0.18597779486E+02  0.27100854653E+02  0.35656994592E+02  0.00000000000E+00 0.  1.
         12    1    6    6    0    0  0.41239260448E+02 -0.44025574953E+02  0.26491158077E+02  0.65884059593E+02  0.00000000000E+00 0. -1.
         -5    1    3    3    0  503  0.20116627370E+02 -0.17339842265E+02 -0.30485630343E+03  0.30604706267E+03  0.47000000000E+01 0.  1.
         11    1    4    4    0    0  0.14211825623E+02  0.54683347394E+02 -0.16474553082E+03  0.17416467608E+03  0.00000000000E+00 0. -1.
        -12    1    4    4    0    0  0.33877653578E+02  0.23707952043E+02 -0.18220922134E+02  0.45185887237E+02  0.00000000000E+00 0.  1.
</event>
<event>
12    1  0.8344842E-002  0.3732098E+03  0.7818608E-02  0.1053626E+00
         21   -1    0    0  501  502  0.00000000000E+00  0.00000000000E+00  0.43352005932E+03  0.43352005932E+03  0.00000000000E+00 0.  1.
         21   -1    0    0  502  503 -0.00000000000E+00 -0.00000000000E+00 -0.32595556296E+03  0.32595556296E+03  0.00000000000E+00 0. -1.
         -6    2    1    2    0  503 -0.19230589380E+03  0.26723530982E+03  0.21201146353E+01  0.37321579292E+03  0.17575342272E+03 0.  0.
        -24    2    3    3    0    0 -0.17153826354E+03  0.12505681723E+03  0.21526383471E+02  0.22814783818E+03  0.80767985537E+02 0.  0.
          6    2    1    2  501    0  0.19230589380E+03 -0.26723530982E+03  0.10544438172E+03  0.38625982937E+03  0.17228427246E+03 0.  0.
         24    2    5    5    0    0  0.53123752469E+02 -0.43995080368E+02  0.53493439895E+02  0.11806426850E+03  0.79497944696E+02 0.  0.
          5    1    5    5  501    0  0.13918214133E+03 -0.22324022946E+03  0.51950941830E+02  0.26819556087E+03  0.47000000000E+01 0. -1.
        -11    1    6    6    0    0  0.68390792543E+02 -0.12904112272E+02  0.27828767667E+02  0.74955032707E+02  0.00000000000E+00 0.  1.
         12    1    6    6    0    0 -0.15267040074E+02 -0.31090968096E+02  0.25664672228E+02  0.43109235790E+02  0.00000000000E+00 0. -1.
         -5    1    3    3    0  503 -0.20767630260E+02  0.14217849260E+03 -0.19406268836E+02  0.14506795475E+03  0.47000000000E+01 0.  1.
         13    1    4    4    0    0 -0.10767811703E+03  0.94275934067E+02 -0.22239729765E+02  0.14483485150E+03  0.00000000000E+00 0. -1.
        -14    1    4    4    0    0 -0.63860146512E+02  0.30780883158E+02  0.43766113236E+02  0.83312986673E+02  0.00000000000E+00 0.  1.
</event>
<event>
12    1  0.8344842E-002  0.2103368E+03  0.7818608E-02  0.1142500E+00
         21   -1    0    0  501  502  0.00000000000E+00  0.00000000000E+00  0.67696838984E+03  0.67696838984E+03  0.00000000000E+00 0.  1.
         21   -1    0    0  502  503 -0.00000000000E+00 -0.00000000000E+00 -0.65959731987E+02  0.65959731987E+02  0.00000000000E+00 0.  1.
         -6    2    1    2    0  503  0.35311859156E+02  0.10817531540E+03  0.38137882173E+03  0.43553574069E+03  0.17689756781E+03 0.  0.
        -24    2    3    3    0    0 -0.46358743106E+02  0.60296818599E+02  0.25253124921E+03  0.27557879438E+03  0.79917461715E+02 0.  0.
          6    2    1    2  501    0 -0.35311859156E+02 -0.10817531540E+03  0.22962983612E+03  0.30739238114E+03  0.16973917664E+03 0.  0.
         24    2    5    5    0    0  0.23731664103E+02 -0.21109189032E+02  0.16275232012E+03  0.18264728045E+03  0.76569717310E+02 0.  0.
          5    1    5    5  501    0 -0.59043523259E+02 -0.87066126365E+02  0.66877516008E+02  0.12474510069E+03  0.47000000000E+01 0. -1.
        -11    1    6    6    0    0 -0.18243889685E+01 -0.16085426287E+02  0.15447142107E+03  0.15531738236E+03  0.00000000000E+00 0.  1.
         12    1    6    6    0    0  0.25556053071E+02 -0.50237627449E+01  0.82808990443E+01  0.27329898091E+02  0.00000000000E+00 0. -1.
         -5    1    3    3    0  503  0.81670602262E+02  0.47878496798E+02  0.12884757252E+03  0.15995694631E+03  0.47000000000E+01 0.  1.
         13    1    4    4    0    0 -0.20205298931E+02 -0.83559027552E+01  0.13653747315E+03  0.13827710146E+03  0.00000000000E+00 0. -1.
        -14    1    4    4    0    0 -0.26153444175E+02  0.68652721354E+02  0.11599377607E+03  0.13730169292E+03  0.00000000000E+00 0.  1.
</event>
<event>
12    1  0.8344842E-002  0.2606230E+03  0.7818608E-02  0.1106970E+00
         21   -1    0    0  501  502  0.00000000000E+00  0.00000000000E+00  0.12619353654E+03  0.12619353654E+03  0.00000000000E+00 0. -1.
         21   -1    0    0  502  503 -0.00000000000E+00 -0.00000000000E+00 -0.54234785257E+03  0.54234785257E+03  0.00000000000E+00 0. -1.
         -6    2    1    2    0  503 -0.16274785851E+02 -0.19515146072E+03 -0.24617957800E+03  0.35850907570E+03  0.17197503150E+03 0.  0.
        -24    2    3    3    0    0  0.20730894833E+02 -0.13165329913E+03 -0.24043563470E+03  0.28464081586E+03  0.73815570467E+02 0.  0.
          6    2    1    2  501    0  0.16274785851E+02  0.19515146072E+03 -0.16997473804E+03  0.31003231341E+03  0.16994017334E+03 0.  0.
         24    2    5    5    0    0 -0.29537983343E+02  0.35665246695E+02 -0.52249395372E+02  0.10652307876E+03  0.80452872602E+02 0.  0.
          5    1    5    5  501    0  0.45812769194E+02  0.15948621402E+03 -0.11772534266E+03  0.20350923465E+03  0.47000000000E+01 0. -1.
        -11    1    6    6    0    0  0.20606330377E+02 -0.13503611661E+01 -0.36976959077E+02  0.42352565796E+02  0.00000000000E+00 0.  1.
         12    1    6    6    0    0 -0.50144313720E+02  0.37015607861E+02 -0.15272436295E+02  0.64170512965E+02  0.00000000000E+00 0. -1.
         -5    1    3    3    0  503 -0.37005680683E+02 -0.63498161583E+02 -0.57439432985E+01  0.73868259840E+02  0.47000000000E+01 0.  1.
         11    1    4    4    0    0 -0.42825160954E+01  0.48638869015E+01 -0.41930272148E+02  0.42428116413E+02  0.00000000000E+00 0. -1.
        -12    1    4    4    0    0  0.25013410928E+02 -0.13651718603E+03 -0.19850536255E+03  0.24221269944E+03  0.00000000000E+00 0.  1.
</event>
<event>
12    1  0.8344842E-002  0.2528907E+03  0.7818608E-02  0.1111614E+00
         21   -1    0    0  503  502  0.00000000000E+00  0.00000000000E+00  0.14344014146E+04  0.14344014146E+04  0.00000000000E+00 0.  1.
         21   -1    0    0  501  503 -0.00000000000E+00 -0.00000000000E+00 -0.56606687860E+02  0.56606687860E+02  0.00000000000E+00 0.  1.
          6    2    1    2  501    0  0.18475882997E+03  0.36438693097E+01  0.10352630608E+04  0.10657031994E+04  0.17264009159E+03 0.  0.
         24    2    3    3    0    0  0.93767321180E+02 -0.17695391026E+02  0.84026653740E+03  0.84941507486E+03  0.79703689534E+02 0.  0.
         -6    2    1    2    0  502 -0.18475882997E+03 -0.36438693097E+01  0.34253166592E+03  0.42530490299E+03  0.17148532099E+03 0.  0.
        -24    2    5    5    0    0 -0.76216184682E+02 -0.36724649927E+02  0.10453150402E+03  0.16159671018E+03  0.89604992542E+02 0.  0.
          5    1    3    3  501    0  0.90991508787E+02  0.21339260335E+02  0.19499652338E+03  0.21628812458E+03  0.47000000000E+01 0. -1.
        -11    1    4    4    0    0  0.70530751561E+02 -0.41668740721E+02  0.42598193175E+03  0.43378736386E+03  0.00000000000E+00 0.  1.
         12    1    4    4    0    0  0.23236569619E+02  0.23973349695E+02  0.41428460565E+03  0.41562771099E+03  0.00000000000E+00 0. -1.
         -5    1    5    5    0  502 -0.10854264528E+03  0.33080780617E+02  0.23800016190E+03  0.26370819281E+03  0.47000000000E+01 0.  1.
         13    1    6    6    0    0 -0.38083433680E+00 -0.25006793118E+02  0.75531425475E+02  0.79564319711E+02  0.00000000000E+00 0. -1.
        -14    1    6    6    0    0 -0.75835350345E+02 -0.11717856808E+02  0.29000078543E+02  0.82032390467E+02  0.00000000000E+00 0.  1.
</event>
<event>
12    1  0.8344842E-002  0.2343398E+03  0.7818608E-02  0.1123776E+00
         21   -1    0    0  503  502  0.00000000000E+00  0.00000000000E+00  0.30584639445E+03  0.30584639445E+03  0.00000000000E+00 0. -1.
         21   -1    0    0  501  503 -0.00000000000E+00 -0.00000000000E+00 -0.25018694587E+03  0.25018694587E+03  0.00000000000E+00 0.  1.
          6    2    1    2  501    0 -0.15544770786E+03  0.33779949568E+02 -0.12064481409E+03  0.26277862128E+03  0.17085771203E+03 0.  0.
         24    2    3    3    0    0 -0.12334516204E+03 -0.21866819499E+02 -0.12902089468E+03  0.19782182731E+03  0.82431167073E+02 0.  0.
         -6    2    1    2    0  502  0.15544770786E+03 -0.33779949568E+02  0.17630426267E+03  0.29325471905E+03  0.17207574592E+03 0.  0.
        -24    2    5    5    0    0  0.18247005376E+03 -0.23729942473E+02  0.16871313246E+03  0.26307318366E+03  0.82975588036E+02 0.  0.
          5    1    3    3  501    0 -0.32102545825E+02  0.55646769068E+02  0.83760805894E+01  0.64956793965E+02  0.47000000000E+01 0. -1.
        -13    1    4    4    0    0 -0.11453850666E+03 -0.40066358398E+02 -0.81485186996E+02  0.14616503783E+03  0.00000000000E+00 0.  1.
         14    1    4    4    0    0 -0.88066553739E+01  0.18199538899E+02 -0.47535707679E+02  0.51656789482E+02  0.00000000000E+00 0. -1.
         -5    1    5    5    0  502 -0.27022345896E+02 -0.10050007095E+02  0.75911302146E+01  0.30181535387E+02  0.47000000000E+01 0.  1.
         11    1    6    6    0    0  0.41141059655E+02  0.29651531527E+02  0.45268858329E+02  0.67978449863E+02  0.00000000000E+00 0. -1.
        -12    1    6    6    0    0  0.14132899410E+03 -0.53381474000E+02  0.12344427413E+03  0.19509473380E+03  0.00000000000E+00 0.  1.
</event>
<event>
12    1  0.8344842E-002  0.2224154E+03  0.7818608E-02  0.1132108E+00
         21   -1    0    0  501  502  0.00000000000E+00  0.00000000000E+00  0.41760839015E+03  0.41760839015E+03  0.00000000000E+00 0.  1.
         21   -1    0    0  502  503 -0.00000000000E+00 -0.00000000000E+00 -0.14436503165E+03  0.14436503165E+03  0.00000000000E+00 0.  1.
         -6    2    1    2    0  503 -0.14015112528E+03  0.17317861778E+02  0.17482861998E+02  0.22303089084E+03  0.17174073935E+03 0.  0.
        -24    2    3    3    0    0 -0.97840623092E+01 -0.15381766214E+02 -0.17133987683E+02  0.84159536485E+02  0.80355008806E+02 0.  0.
          6    2    1    2  501    0  0.14015112528E+03 -0.17317861778E+02  0.25576049650E+03  0.33894253096E+03  0.17183236445E+03 0.  0.
         24    2    5    5    0    0  0.14674940528E+03 -0.44810743039E+02  0.14755245737E+03  0.22700296891E+03  0.78836727339E+02 0.  0.
          5    1    5    5  501    0 -0.65982800023E+01  0.27492881261E+02  0.10820803913E+03  0.11193956205E+03  0.47000000000E+01 0. -1.
        -13    1    6    6    0    0  0.14066619756E+03 -0.20318745677E+02  0.14250936229E+03  0.20126785362E+03  0.00000000000E+00 0.  1.
         14    1    6    6    0    0  0.60832077220E+01 -0.24491997361E+02  0.50430950764E+01  0.25735115288E+02  0.00000000000E+00 0. -1.
         -5    1    3    3    0  503 -0.13036706297E+03  0.32699627992E+02  0.34616849682E+02  0.13887135435E+03  0.47000000000E+01 0.  1.
         11    1    4    4    0    0  0.30105927981E+01 -0.39004104995E+02 -0.34508995872E+02  0.52165646469E+02  0.00000000000E+00 0. -1.
        -12    1    4    4    0    0 -0.12794655107E+02  0.23622338780E+02  0.17375008189E+02  0.31993890016E+02  0.00000000000E+00 0.  1.
</event>
<event>
12    1  0.8344842E-002  0.2096461E+03  0.7818608E-02  0.1141944E+00
         21   -1    0    0  503  502  0.00000000000E+00  0.00000000000E+00  0.32163740183E+03  0.32163740183E+03  0.00000000000E+00 0. -1.
         21   -1    0    0  501  503 -0.00000000000E+00 -0.00000000000E+00 -0.61384910204E+03  0.61384910204E+03  0.00000000000E+00 0. -1.
          6    2    1    2  501    0 -0.33876449791E+02 -0.11517035016E+03 -0.55869025030E+03  0.59672965138E+03  0.17187104946E+03 0.  0.
         24    2    3    3    0    0  0.35785180085E+02 -0.18857048917E+02 -0.21114000016E+03  0.22938477113E+03  0.80006913134E+02 0.  0.
         -6    2    1    2    0  502  0.33876449791E+02  0.11517035016E+03  0.26647855009E+03  0.33875685250E+03  0.17127044126E+03 0.  0.
        -24    2    5    5    0    0  0.81696087888E+01  0.14541851785E+03  0.19883412979E+03  0.26018426873E+03  0.83351992669E+02 0.  0.
          5    1    3    3  501    0 -0.69661629876E+02 -0.96313301243E+02 -0.34755025014E+03  0.36734488025E+03  0.47000000000E+01 0. -1.
        -11    1    4    4    0    0  0.20787004994E+02 -0.19311497248E+02 -0.13936200363E+02  0.31610934550E+02  0.00000000000E+00 0.  1.
         12    1    4    4    0    0  0.14998175092E+02  0.45444833105E+00 -0.19720379980E+03  0.19777383658E+03  0.00000000000E+00 0. -1.
         -5    1    5    5    0  502  0.25706841002E+02 -0.30248167689E+02  0.67644420296E+02  0.78572583768E+02  0.47000000000E+01 0.  1.
         13    1    6    6    0    0  0.12070817937E+02  0.10663035013E+02  0.76380917601E+02  0.78060550439E+02  0.00000000000E+00 0. -1.
        -14    1    6    6    0    0 -0.39012091478E+01  0.13475548284E+03  0.12245321219E+03  0.18212371829E+03  0.00000000000E+00 0.  1.
</event>
<event>
12    1  0.8344842E-002  0.2567093E+03  0.7818608E-02  0.1109268E+00
         21   -1    0    0  501  502  0.00000000000E+00  0.00000000000E+00  0.42993640372E+03  0.42993640372E+03  0.00000000000E+00 0. -1.
         21   -1    0    0  502  503 -0.00000000000E+00 -0.00000000000E+00 -0.15290587902E+03  0.15290587902E+03  0.00000000000E+00 0.  1.
         -6    2    1    2    0  503  0.11734155283E+03 -0.14921115474E+03  0.12941013023E+03  0.28671483029E+03  0.17153834378E+03 0.  0.
        -24    2    3    3    0    0  0.98850469753E+02 -0.17902030368E+03  0.10243886375E+03  0.24221713676E+03  0.79722870188E+02 0.  0.
          6    2    1    2  501    0 -0.11734155283E+03  0.14921115474E+03  0.14762039447E+03  0.29612745245E+03  0.17281978624E+03 0.  0.
         24    2    5    5    0    0 -0.76212900610E+02  0.16545637941E+03  0.82277618265E+02  0.21708795752E+03  0.84695661780E+02 0.  0.
          5    1    5    5  501    0 -0.41128652220E+02 -0.16245224673E+02  0.65342776205E+02  0.79039494940E+02  0.47000000000E+01 0. -1.
        -11    1    6    6    0    0 -0.17204361925E+02  0.11463109782E+03  0.20572729698E+02  0.11772644505E+03  0.00000000000E+00 0.  1.
         12    1    6    6    0    0 -0.59008538685E+02  0.50825281587E+02  0.61704888567E+02  0.99361512464E+02  0.00000000000E+00 0. -1.
         -5    1    3    3    0  503  0.18491083077E+02  0.29809148949E+02  0.26971266480E+02  0.44497693536E+02  0.47000000000E+01 0.  1.
         11    1    4    4    0    0  0.93868626524E+01 -0.18934510571E+02  0.45540273765E+02  0.50205033768E+02  0.00000000000E+00 0. -1.
        -12    1    4    4    0    0  0.89463607100E+02 -0.16008579311E+03  0.56898589982E+02  0.19201210299E+03  0.00000000000E+00 0.  1.
</event>
<event>
12    1  0.8344842E-002  0.2161481E+03  0.7818608E-02  0.1137106E+00
         21   -1    0    0  501  502  0.00000000000E+00  0.00000000000E+00  0.10009967355E+04  0.10009967355E+04  0.00000000000E+00 0.  1.
         21   -1    0    0  502  503 -0.00000000000E+00 -0.00000000000E+00 -0.51292687339E+02  0.51292687339E+02  0.00000000000E+00 0.  1.
         -6    2    1    2    0  503 -0.12296665301E+01  0.12811883750E+03  0.31260455091E+03  0.38005472757E+03  0.17408056207E+03 0.  0.
        -24    2    3    3    0    0 -0.56999902509E+02  0.26827070425E+02  0.13536290886E+03  0.16837801421E+03  0.77841878072E+02 0.  0.
          6    2    1    2  501    0  0.12296665301E+01 -0.12811883750E+03  0.63709949725E+03  0.67223469527E+03  0.17201095177E+03 0.  0.
         24    2    5    5    0    0 -0.34888262114E+02 -0.14687977123E+03  0.48392845247E+03  0.51367891214E+03  0.82996503815E+02 0.  0.
          5    1    5    5  501    0  0.36117928644E+02  0.18760933723E+02  0.15317104478E+03  0.15855578313E+03  0.47000000000E+01 0. -1.
        -11    1    6    6    0    0  0.22884298979E+02 -0.68213699065E+02  0.16150912481E+03  0.17681062547E+03  0.00000000000E+00 0.  1.
         12    1    6    6    0    0 -0.57772561092E+02 -0.78666072161E+02  0.32241932765E+03  0.33686828668E+03  0.00000000000E+00 0. -1.
         -5    1    3    3    0  503  0.55770235979E+02  0.10129176708E+03  0.17724164205E+03  0.21167671335E+03  0.47000000000E+01 0.  1.
         11    1    4    4    0    0 -0.29123596025E+02  0.31625793007E+02  0.16264106335E+02  0.45966246134E+02  0.00000000000E+00 0. -1.
        -12    1    4    4    0    0 -0.27876306484E+02 -0.47987225818E+01  0.11909880252E+03  0.12241176808E+03  0.00000000000E+00 0.  1.
</event>
<event>
12    1  0.8344842E-002  0.3574526E+03  0.7818608E-02  0.1059632E+00
         21   -1    0    0  503  502  0.00000000000E+00  0.00000000000E+00  0.89809193366E+03  0.89809193366E+03  0.00000000000E+00 0.  1.
         21   -1    0    0  501  503 -0.00000000000E+00 -0.00000000000E+00 -0.26240693040E+03  0.26240693040E+03  0.00000000000E+00 0. -1.
          6    2    1    2  501    0  0.12864520024E+03 -0.28503151941E+03 -0.74913049244E+02  0.36521822000E+03  0.17314684136E+03 0.  0.
         24    2    3    3    0    0  0.16187010359E+03 -0.22986711663E+03 -0.55974918034E+02  0.29792967454E+03  0.81166974707E+02 0.  0.
         -6    2    1    2    0  502 -0.12864520024E+03  0.28503151941E+03  0.71059805250E+03  0.79528064406E+03  0.17242144878E+03 0.  0.
        -24    2    5    5    0    0 -0.47710156092E+02  0.15503380105E+03  0.24061843408E+03  0.30096008017E+03  0.79799752993E+02 0.  0.
          5    1    3    3  501    0 -0.33224903343E+02 -0.55164402778E+02 -0.18938131211E+02  0.67288545458E+02  0.47000000000E+01 0. -1.
        -11    1    4    4    0    0  0.10534959421E+03 -0.99214010948E+02  0.68145797751E+00  0.14471496589E+03  0.00000000000E+00 0.  1.
         12    1    4    4    0    0  0.56520509375E+02 -0.13065310568E+03 -0.56656376011E+02  0.15321470865E+03  0.00000000000E+00 0. -1.
         -5    1    5    5    0  502 -0.80935044151E+02  0.12999771836E+03  0.46997961842E+03  0.49432056389E+03  0.47000000000E+01 0.  1.
         11    1    6    6    0    0 -0.18815235290E+01 -0.94326488451E+01  0.18012752089E+02  0.20419946935E+02  0.00000000000E+00 0. -1.
        -12    1    6    6    0    0 -0.45828632563E+02  0.16446644989E+03  0.22260568199E+03  0.28054013324E+03  0.00000000000E+00 0.  1.
</event>
<event>
12    1  0.8344842E-002  0.1791450E+03  0.7818608E-02  0.1169168E+00
         21   -1    0    0  501  502  0.00000000000E+00  0.00000000000E+00  0.11291311092E+03  0.11291311092E+03  0.00000000000E+00 0. -1.
         21   -1    0    0  502  503 -0.00000000000E+00 -0.00000000000E+00 -0.30490714146E+03  0.30490714146E+03  0.00000000000E+00 0.  1.
         -6    2    1    2    0  503  0.54702052860E+02 -0.75826108551E+00 -0.15531114438E+03  0.23709593113E+03  0.17058733670E+03 0.  0.
        -24    2    3    3    0    0  0.21088345067E+02  0.41432772234E+02 -0.15579596869E+03  0.18294531064E+03  0.83876158193E+02 0.  0.
          6    2    1    2  501    0 -0.54702052860E+02  0.75826108551E+00 -0.36682886169E+02  0.18072432125E+03  0.16829366181E+03 0.  0.
         24    2    5    5    0    0 -0.26880392014E+02 -0.66205948917E+02 -0.35105724117E+02  0.10804125807E+03  0.73039156839E+02 0.  0.
          5    1    5    5  501    0 -0.27821660846E+02  0.66964210002E+02 -0.15771620522E+01  0.72683063182E+02  0.47000000000E+01 0. -1.
        -11    1    6    6    0    0 -0.41832202360E+02 -0.64568598409E+02 -0.45845669113E+02  0.89559267702E+02  0.00000000000E+00 0.  1.
         12    1    6    6    0    0  0.14951810346E+02 -0.16373505072E+01  0.10739944996E+02  0.18481990364E+02  0.00000000000E+00 0. -1.
         -5    1    3    3    0  503  0.33613707793E+02 -0.42191033319E+02  0.48482431714E+00  0.54150620484E+02  0.47000000000E+01 0.  1.
         13    1    4    4    0    0 -0.29555950145E+02  0.33418255959E+02 -0.73884291820E+02  0.86308879022E+02  0.00000000000E+00 0. -1.
        -14    1    4    4    0    0  0.50644295211E+02  0.80145162752E+01 -0.81911676873E+02  0.96636431623E+02  0.00000000000E+00 0.  1.
</event>
<event>
12    1  0.8344842E-002  0.2180791E+03  0.7818608E-02  0.1135358E+00
         21   -1    0    0  503  502  0.00000000000E+00  0.00000000000E+00  0.73333404624E+03  0.73333404624E+03  0.00000000000E+00 0. -1.
         21   -1    0    0  501  503 -0.00000000000E+00 -0.00000000000E+00 -0.17254124280E+03  0.17254124280E+03  0.00000000000E+00 0. -1.
          6    2    1    2  501    0  0.65467442268E+02  0.11602250333E+03 -0.77480749357E+02  0.23143414464E+03  0.17265946109E+03 0.  0.
         24    2    3    3    0    0  0.10850629108E+03  0.83348982715E+02 -0.35041776827E+02  0.16256428297E+03  0.80489451794E+02 0.  0.
         -6    2    1    2    0  502 -0.65467442268E+02 -0.11602250333E+03  0.63827355280E+03  0.67444114440E+03  0.17242540933E+03 0.  0.
        -24    2    5    5    0    0 -0.60981468528E+02 -0.12603851814E+03  0.64220076800E+03  0.66187302870E+03  0.77779381212E+02 0.  0.
          5    1    3    3  501    0 -0.43038848812E+02  0.32673520619E+02 -0.42438972530E+02  0.68869861667E+02  0.47000000000E+01 0. -1.
        -13    1    4    4    0    0  0.88916624797E+02  0.89433617358E+02 -0.50317970063E+01  0.12621353755E+03  0.00000000000E+00 0.  1.
         14    1    4    4    0    0  0.19589666283E+02 -0.60846346428E+01 -0.30009979821E+02  0.36350745421E+02  0.00000000000E+00 0. -1.
         -5    1    5    5    0  502 -0.44859737400E+01  0.10016014804E+02 -0.39272152051E+01  0.12568115699E+02  0.47000000000E+01 0.  1.
         11    1    6    6    0    0 -0.29130546843E+02 -0.87661166592E+02  0.54342866746E+03  0.55122389780E+03  0.00000000000E+00 0. -1.
        -12    1    6    6    0    0 -0.31850921685E+02 -0.38377351546E+02  0.98772100540E+02  0.11064913090E+03  0.00000000000E+00 0.  1.
</event>
<event>
12    1  0.8344842E-002  0.2449573E+03  0.7818608E-02  0.1116718E+00
         21   -1    0    0  503  502  0.00000000000E+00  0.00000000000E+00  0.11639122688E+03  0.11639122688E+03  0.00000000000E+00 0. -1.
         21   -1    0    0  501  503 -0.00000000000E+00 -0.00000000000E+00 -0.54254700668E+03  0.54254700668E+03  0.00000000000E+00 0. -1.
          6    2    1    2  501    0 -0.12984261304E+03  0.11735312358E+03 -0.28929584906E+03  0.37834117986E+03  0.16976189302E+03 0.  0.
         24    2    3    3    0    0 -0.16187065711E+02  0.61359950015E+02 -0.19101811602E+03  0.21792477878E+03  0.83523792987E+02 0.  0.
         -6    2    1    2    0  502  0.12984261304E+03 -0.11735312358E+03 -0.13685993075E+03  0.28059705370E+03  0.17138613166E+03 0.  0.
        -24    2    5    5    0    0  0.46604094523E+02  0.82460285888E+01 -0.62973754421E+02  0.11271300132E+03  0.80613822062E+02 0.  0.
          5    1    3    3  501    0 -0.11365554733E+03  0.55993173564E+02 -0.98277733033E+02  0.16041640108E+03  0.47000000000E+01 0. -1.
        -11    1    4    4    0    0 -0.17419176685E+02 -0.17137166978E+02 -0.65131910707E+02  0.69564904951E+02  0.00000000000E+00 0.  1.
         12    1    4    4    0    0  0.12321109740E+01  0.78497116993E+02 -0.12588620532E+03  0.14835987383E+03  0.00000000000E+00 0. -1.
         -5    1    5    5    0  502  0.83238518519E+02 -0.12559915217E+03 -0.73886176332E+02  0.16788405238E+03  0.47000000000E+01 0.  1.
         11    1    6    6    0    0  0.16199573011E+02  0.11367983935E+02  0.17632920465E+02  0.26506171142E+02  0.00000000000E+00 0. -1.
        -12    1    6    6    0    0  0.30404521512E+02 -0.31219553465E+01 -0.80606674886E+02  0.86206830180E+02  0.00000000000E+00 0.  1.
</event>
<event>
12    1  0.8344842E-002  0.1814479E+03  0.7818608E-02  0.1166409E+00
         21   -1    0    0  503  502  0.00000000000E+00  0.00000000000E+00  0.61781016925E+03  0.61781016925E+03  0.00000000000E+00 0.  1.
         21   -1    0    0  501  503 -0.00000000000E+00 -0.00000000000E+00 -0.17188066600E+03  0.17188066600E+03  0.00000000000E+00 0.  1.
          6    2    1    2  501    0 -0.17759898145E+02 -0.55422087295E+02 -0.10500835101E+03  0.20964274048E+03  0.17186129032E+03 0.  0.
         24    2    3    3    0    0  0.30717975537E+02  0.97166618594E+01 -0.14155140980E+02  0.87701948901E+02  0.80332162214E+02 0.  0.
         -6    2    1    2    0  502  0.17759898145E+02  0.55422087295E+02  0.55093785426E+03  0.58004809477E+03  0.17186113942E+03 0.  0.
        -24    2    5    5    0    0 -0.52796403736E+02  0.31274732292E+02  0.25064585260E+03  0.27059912846E+03  0.81455360592E+02 0.  0.
          5    1    3    3  501    0 -0.48477873682E+02 -0.65138749155E+02 -0.90853210029E+02  0.12194079158E+03  0.47000000000E+01 0. -1.
        -13    1    4    4    0    0  0.25241901295E+02  0.39941434223E+01 -0.47225195560E+02  0.53696609375E+02  0.00000000000E+00 0.  1.
         14    1    4    4    0    0  0.54760742425E+01  0.57225184371E+01  0.33070054580E+02  0.34005339526E+02  0.00000000000E+00 0. -1.
         -5    1    5    5    0  502  0.70556301880E+02  0.24147355004E+02  0.30029200166E+03  0.30944896630E+03  0.47000000000E+01 0.  1.
         11    1    6    6    0    0 -0.18332941797E+02  0.39223466968E+02  0.46992287955E+02  0.63897200589E+02  0.00000000000E+00 0. -1.
        -12    1    6    6    0    0 -0.34463461939E+02 -0.79487346763E+01  0.20365356465E+03  0.20670192787E+03  0.00000000000E+00 0.  1.
</event>
<event>
12    1  0.8344842E-002  0.1771289E+03  0.7818608E-02  0.1174679E+00
         21   -1    0    0  501  502  0.00000000000E+00  0.00000000000E+00  0.41933324750E+02  0.41933324750E+02  0.00000000000E+00 0. -1.
         21   -1    0    0  502  503 -0.00000000000E+00 -0.00000000000E+00 -0.96652386229E+03  0.96652386229E+03  0.00000000000E+00 0. -1.
         -6    2    1    2    0  503 -0.40239561802E+02 -0.59751394249E+01 -0.71982504828E+03  0.73771089375E+03  0.15625088160E+03 0.  0.
        -24    2    3    3    0    0 -0.59034635479E+02  0.27975273060E+02 -0.64597070410E+03  0.65414990132E+03  0.79788713155E+02 0.  0.
          6    2    1    2  501    0  0.40239561802E+02  0.59751394249E+01 -0.20476548926E+03  0.27074629329E+03  0.17239409826E+03 0.  0.
         24    2    5    5    0    0 -0.22499377004E+02  0.28326207977E+02 -0.17802105210E+03  0.19882203016E+03  0.80809087747E+02 0.  0.
          5    1    5    5  501    0  0.62738938806E+02 -0.22351068552E+02 -0.26744437162E+02  0.71924263131E+02  0.47000000000E+01 0. -1.
        -11    1    6    6    0    0 -0.33303923752E+02  0.16804567394E+02 -0.17914434643E+03  0.18298699867E+03  0.00000000000E+00 0.  1.
         12    1    6    6    0    0  0.10804546748E+02  0.11521640583E+02  0.11232943355E+01  0.15835031490E+02  0.00000000000E+00 0. -1.
         -5    1    3    3    0  503  0.18795073677E+02 -0.33950412485E+02 -0.73854344177E+02  0.83560992432E+02  0.47000000000E+01 0.  1.
         13    1    4    4    0    0 -0.12765109745E+02 -0.27547781373E+02 -0.22125548314E+03  0.22332894373E+03  0.00000000000E+00 0. -1.
        -14    1    4    4    0    0 -0.46269525733E+02  0.55523054432E+02 -0.42471522096E+03  0.43082095759E+03  0.00000000000E+00 0.  1.
</event>
<event>
12    1  0.8344842E-002  0.1794176E+03  0.7818608E-02  0.1169012E+00
         21   -1    0    0  501  502  0.00000000000E+00  0.00000000000E+00  0.31637598089E+03  0.31637598089E+03  0.00000000000E+00 0.  1.
         21   -1    0    0  502  503 -0.00000000000E+00 -0.00000000000E+00 -0.12168382607E+03  0.12168382607E+03  0.00000000000E+00 0.  1.
         -6    2    1    2    0  503  0.15155462812E+02 -0.39242111944E+02  0.48541917742E+01  0.17685271704E+03  0.17170815048E+03 0.  0.
        -24    2    3    3    0    0 -0.40297570866E+02 -0.62911132228E+02  0.26129687868E+02  0.11274344938E+03  0.80290846391E+02 0.  0.
          6    2    1    2  501    0 -0.15155462812E+02  0.39242111944E+02  0.18983796305E+03  0.26120708993E+03  0.17441634159E+03 0.  0.
         24    2    5    5    0    0 -0.54537252825E+02  0.72510090138E+02  0.16410220032E+03  0.20339616327E+03  0.78793667056E+02 0.  0.
          5    1    5    5  501    0  0.39381790013E+02 -0.33267978194E+02  0.25735762733E+02  0.57810926659E+02  0.47000000000E+01 0. -1.
        -13    1    6    6    0    0  0.13979625159E+02  0.43369812368E+02  0.67199747800E+02  0.81192220371E+02  0.00000000000E+00 0.  1.
         14    1    6    6    0    0 -0.68516877983E+02  0.29140277770E+02  0.96902452515E+02  0.12220394290E+03  0.00000000000E+00 0. -1.
         -5    1    3    3    0  503  0.55453033678E+02  0.23669020284E+02 -0.21275496094E+02  0.64109267656E+02  0.47000000000E+01 0.  1.
         11    1    4    4    0    0 -0.35623112636E+02 -0.49182545287E+01 -0.17526784228E+02  0.40004794049E+02  0.00000000000E+00 0. -1.
        -12    1    4    4    0    0 -0.46744582300E+01 -0.57992877699E+02  0.43656472096E+02  0.72738655332E+02  0.00000000000E+00 0.  1.
</event>
<event>
12    1  0.8344842E-002  0.1876960E+03  0.7818608E-02  0.1160665E+00
         21   -1    0    0  503  502  0.00000000000E+00  0.00000000000E+00  0.22049954447E+04  0.22049954447E+04  0.00000000000E+00 0. -1.
         21   -1    0    0  501  503 -0.00000000000E+00 -0.00000000000E+00 -0.16221363457E+02  0.16221363457E+02  0.00000000000E+00 0. -1.
          6    2    1    2  501    0 -0.15820162870E+02  0.72652109911E+02  0.94597474172E+03  0.96432382577E+03  0.17182439390E+03 0.  0.
         24    2    3    3    0    0 -0.23344698492E+02  0.78246952201E+02  0.34272454255E+03  0.36098245167E+03  0.78617160159E+02 0.  0.
         -6    2    1    2    0  502  0.15820162870E+02 -0.72652109911E+02  0.12427993396E+04  0.12568929824E+04  0.17234025717E+03 0.  0.
        -24    2    5    5    0    0  0.56124632989E+02 -0.90787440504E+02  0.71013685122E+03  0.72237941196E+03  0.78392178094E+02 0.  0.
          5    1    3    3  501    0  0.75245356216E+01 -0.55948422900E+01  0.60325019917E+03  0.60334137410E+03  0.47000000000E+01 0. -1.
        -13    1    4    4    0    0  0.55793020687E+01 -0.14478332969E+02  0.34821297447E+02  0.38121824366E+02  0.00000000000E+00 0.  1.
         14    1    4    4    0    0 -0.28924000560E+02  0.92725285169E+02  0.30790324511E+03  0.32286062731E+03  0.00000000000E+00 0. -1.
         -5    1    5    5    0  502 -0.40304470119E+02  0.18135330594E+02  0.53266248834E+03  0.53451357046E+03  0.47000000000E+01 0.  1.
         13    1    6    6    0    0 -0.64033973171E+01 -0.61692432946E+02  0.38970952909E+03  0.39461433937E+03  0.00000000000E+00 0. -1.
        -14    1    6    6    0    0  0.62528030306E+02 -0.29095007558E+02  0.32042732213E+03  0.32776507258E+03  0.00000000000E+00 0.  1.
</event>
<event>
12    1  0.8344842E-002  0.1815787E+03  0.7818608E-02  0.1166307E+00
         21   -1    0    0  501  502  0.00000000000E+00  0.00000000000E+00  0.13353772911E+04  0.13353772911E+04  0.00000000000E+00 0.  1.
         21   -1    0    0  502  503 -0.00000000000E+00 -0.00000000000E+00 -0.54864453422E+02  0.54864453422E+02  0.00000000000E+00 0.  1.
         -6    2    1    2    0  503  0.53575345499E+02 -0.16469871546E+02  0.12456588874E+03  0.22012030459E+03  0.17261145252E+03 0.  0.
        -24    2    3    3    0    0  0.62325972528E+02 -0.26255690804E+02  0.11576694920E+02  0.10627398866E+03  0.81155730842E+02 0.  0.
          6    2    1    2  501    0 -0.53575345499E+02  0.16469871546E+02  0.11559469489E+04  0.11701214399E+04  0.17271149676E+03 0.  0.
         24    2    5    5    0    0 -0.39125939309E+02 -0.46553827518E+02  0.90717441051E+03  0.91304044518E+03  0.83542477088E+02 0.  0.
          5    1    5    5  501    0 -0.14449406191E+02  0.63023699064E+02  0.24877253840E+03  0.25708099471E+03  0.47000000000E+01 0. -1.
        -13    1    6    6    0    0  0.19269975306E+02  0.10163110521E+02  0.21164919383E+03  0.21276748344E+03  0.00000000000E+00 0.  1.
         14    1    6    6    0    0 -0.58395914615E+02 -0.56716938038E+02  0.69552521668E+03  0.70027296174E+03  0.00000000000E+00 0. -1.
         -5    1    3    3    0  503 -0.87506270287E+01  0.97858192575E+01  0.11298919382E+03  0.11384631594E+03  0.47000000000E+01 0.  1.
         13    1    4    4    0    0  0.25292467746E+02  0.73067018252E+01  0.40667327719E+02  0.48445106667E+02  0.00000000000E+00 0. -1.
        -14    1    4    4    0    0  0.37033504782E+02 -0.33562392629E+02 -0.29090632799E+02  0.57828881988E+02  0.00000000000E+00 0.  1.
</event>
<event>
12    1  0.8344842E-002  0.1835087E+03  0.7818608E-02  0.1165571E+00
         21   -1    0    0  501  502  0.00000000000E+00  0.00000000000E+00  0.49963460499E+03  0.49963460499E+03  0.00000000000E+00 0. -1.
         21   -1    0    0  502  503 -0.00000000000E+00 -0.00000000000E+00 -0.10884278062E+03  0.10884278062E+03  0.00000000000E+00 0.  1.
         -6    2    1    2    0  503 -0.58476884393E+02  0.43162984892E+02  0.53647804627E+01  0.18358710639E+03  0.16850179670E+03 0.  0.
        -24    2    3    3    0    0 -0.47751405208E+02  0.91047030581E+02  0.21270840677E+02  0.13178932182E+03  0.79663154626E+02 0.  0.
          6    2    1    2  501    0  0.58476884393E+02 -0.43162984892E+02  0.38542704391E+03  0.42489027922E+03  0.16338651694E+03 0.  0.
         24    2    5    5    0    0  0.44633139579E+02 -0.90929414030E+02  0.24959480260E+03  0.28016374812E+03  0.77031712891E+02 0.  0.
          5    1    5    5  501    0  0.13843744814E+02  0.47766429137E+02  0.13583224131E+03  0.14472653110E+03  0.47000000000E+01 0. -1.
        -11    1    6    6    0    0  0.37765977066E+01  0.13646740873E+02  0.39328591414E+02  0.41799932168E+02  0.00000000000E+00 0.  1.
         12    1    6    6    0    0  0.40856541873E+02 -0.10457615490E+03  0.21026621119E+03  0.23836381595E+03  0.00000000000E+00 0. -1.
         -5    1    3    3    0  503 -0.10725479186E+02 -0.47884045689E+02 -0.15906060214E+02  0.51797784574E+02  0.47000000000E+01 0.  1.
         11    1    4    4    0    0 -0.35778786134E+02  0.41782647670E+02  0.49292394149E+02  0.73862380847E+02  0.00000000000E+00 0. -1.
        -12    1    4    4    0    0 -0.11972619074E+02  0.49264382911E+02 -0.28021553472E+02  0.57926940970E+02  0.00000000000E+00 0.  1.
</event>
<event>
12    1  0.8344842E-002  0.2123264E+03  0.7818608E-02  0.1139840E+00
         21   -1    0    0  501  502  0.00000000000E+00  0.00000000000E+00  0.52782036018E+03  0.52782036018E+03  0.00000000000E+00 0. -1.
         21   -1    0    0  502  503 -0.00000000000E+00 -0.00000000000E+00 -0.85472777811E+02  0.85472777811E+02  0.00000000000E+00 0. -1.
         -6    2    1    2    0  503 -0.11126734394E+03  0.54813567292E+02  0.20358227584E+03  0.29377573097E+03  0.17167844385E+03 0.  0.
        -24    2    3    3    0    0 -0.32221523205E+02  0.89672092478E+02  0.11955808824E+03  0.17317095222E+03  0.81330999640E+02 0.  0.
          6    2    1    2  501    0  0.11126734394E+03 -0.54813567292E+02  0.23876530653E+03  0.31951740703E+03  0.17232977921E+03 0.  0.
         24    2    5    5    0    0  0.84445159287E+02  0.48475063171E+01  0.22421537009E+03  0.25234104255E+03  0.79050530214E+02 0.  0.
          5    1    5    5  501    0  0.26822184658E+02 -0.59661073609E+02  0.14549936444E+02  0.67176364478E+02  0.47000000000E+01 0. -1.
        -11    1    6    6    0    0  0.47845065089E+02  0.18443041936E+02  0.42859223250E+02  0.66829701981E+02  0.00000000000E+00 0.  1.
         12    1    6    6    0    0  0.36600094198E+02 -0.13595535619E+02  0.18135614684E+03  0.18551134057E+03  0.00000000000E+00 0. -1.
         -5    1    3    3    0  503 -0.79045820740E+02 -0.34858525186E+02  0.84024187604E+02  0.12060477875E+03  0.47000000000E+01 0.  1.
         11    1    4    4    0    0 -0.30432937247E+02  0.44507147824E+02  0.11589438359E+03  0.12782236903E+03  0.00000000000E+00 0. -1.
        -12    1    4    4    0    0 -0.17885859583E+01  0.45164944654E+02  0.36637046454E+01  0.45348583187E+02  0.00000000000E+00 0.  1.
</event>
<event>
12    1  0.8344842E-002  0.1873980E+03  0.7818608E-02  0.1160977E+00
         21   -1    0    0  503  502  0.00000000000E+00  0.00000000000E+00  0.28472932654E+03  0.28472932654E+03  0.00000000000E+00 0. -1.
         21   -1    0    0  501  503 -0.00000000000E+00 -0.00000000000E+00 -0.34563114552E+03  0.34563114552E+03  0.00000000000E+00 0. -1.
          6    2    1    2  501    0 -0.51609091149E+02  0.53334755440E+02 -0.28343634911E+03  0.33943159814E+03  0.17137546905E+03 0.  0.
         24    2    3    3    0    0  0.18999298302E+02  0.53411765596E+02 -0.78110365736E+02  0.12225333026E+03  0.75039039735E+02 0.  0.
         -6    2    1    2    0  502  0.51609091149E+02 -0.53334755440E+02  0.22253453013E+03  0.29092887392E+03  0.17207526886E+03 0.  0.
        -24    2    5    5    0    0  0.15478067291E+02  0.36685145431E+02  0.12454844351E+03  0.15297092160E+03  0.79387767393E+02 0.  0.
          5    1    3    3  501    0 -0.70608389451E+02 -0.77010156623E-01 -0.20532598337E+03  0.21717826788E+03  0.47000000000E+01 0. -1.
        -11    1    4    4    0    0 -0.31587469192E+01  0.50653655135E+02 -0.11553148454E+02  0.52050414982E+02  0.00000000000E+00 0.  1.
         12    1    4    4    0    0  0.22158045221E+02  0.27581104613E+01 -0.66557217282E+02  0.70202915278E+02  0.00000000000E+00 0. -1.
         -5    1    5    5    0  502  0.36131023858E+02 -0.90019900871E+02  0.97986086622E+02  0.13795795232E+03  0.47000000000E+01 0.  1.
         13    1    6    6    0    0 -0.13592385105E+02  0.40844441667E+02  0.11385019646E+03  0.12171642692E+03  0.00000000000E+00 0. -1.
        -14    1    6    6    0    0  0.29070452396E+02 -0.41592962358E+01  0.10698247047E+02  0.31254494678E+02  0.00000000000E+00 0.  1.
</event>
<event>
12    1  0.8344842E-002  0.2035588E+03  0.7818608E-02  0.1147091E+00
         21   -1    0    0  501  502  0.00000000000E+00  0.00000000000E+00  0.32577003428E+03  0.32577003428E+03  0.00000000000E+00 0.  1.
         21   -1    0    0  502  503 -0.00000000000E+00 -0.00000000000E+00 -0.13176998519E+03  0.13176998519E+03  0.00000000000E+00 0.  1.
         -6    2    1    2    0  503  0.10494672078E+03 -0.29052697972E+02  0.14355819543E+03  0.24782461556E+03  0.17014761573E+03 0.  0.
        -24    2    3    3    0    0  0.44186770804E+02 -0.77791623536E+02  0.10913470509E+03  0.16253498504E+03  0.80642607232E+02 0.  0.
          6    2    1    2  501    0 -0.10494672078E+03  0.29052697972E+02  0.50441853657E+02  0.20971540391E+03  0.17198341947E+03 0.  0.
         24    2    5    5    0    0 -0.12902899669E+03  0.30701701866E+02  0.12928618217E+01  0.15475734148E+03  0.79731341177E+02 0.  0.
          5    1    5    5  501    0  0.24082275912E+02 -0.16490038935E+01  0.49148991836E+02  0.54958062424E+02  0.47000000000E+01 0. -1.
        -11    1    6    6    0    0 -0.68582365900E+02  0.41011176612E+02  0.32122616200E+02  0.86123864236E+02  0.00000000000E+00 0.  1.
         12    1    6    6    0    0 -0.60446630793E+02 -0.10309474746E+02 -0.30829754378E+02  0.68633477245E+02  0.00000000000E+00 0. -1.
         -5    1    3    3    0  503  0.60759949976E+02  0.48738925563E+02  0.34423490340E+02  0.85289630515E+02  0.47000000000E+01 0.  1.
         13    1    4    4    0    0  0.11397192305E+02  0.10762128625E+02  0.46878565940E+02  0.49429943856E+02  0.00000000000E+00 0. -1.
        -14    1    4    4    0    0  0.32789578499E+02 -0.88553752161E+02  0.62256139153E+02  0.11310504119E+03  0.00000000000E+00 0.  1.
</event>
<event>
12    1  0.8344842E-002  0.1836342E+03  0.7818608E-02  0.1164439E+00
         21   -1    0    0  503  502  0.00000000000E+00  0.00000000000E+00  0.19157776353E+04  0.19157776353E+04  0.00000000000E+00 0. -1.
         21   -1    0    0  501  503 -0.00000000000E+00 -0.00000000000E+00 -0.18663168804E+02  0.18663168804E+02  0.00000000000E+00 0. -1.
          6    2    1    2  501    0 -0.57509014312E+01  0.59868904414E+02  0.71433278069E+03  0.73755870525E+03  0.17350551446E+03 0.  0.
         24    2    3    3    0    0  0.13608674728E+02  0.24211896206E+02  0.15550031732E+03  0.17723555962E+03  0.80378373708E+02 0.  0.
         -6    2    1    2    0  502  0.57509014312E+01 -0.59868904414E+02  0.11827816858E+04  0.11968820988E+04  0.17302278371E+03 0.  0.
        -24    2    5    5    0    0 -0.52749400063E+02  0.22920778544E+01  0.68571192918E+03  0.69251446909E+03  0.81164568974E+02 0.  0.
          5    1    3    3  501    0 -0.19359576159E+02  0.35657008208E+02  0.55883246337E+03  0.56032314564E+03  0.47000000000E+01 0. -1.
        -11    1    4    4    0    0  0.44172149132E+02 -0.12379254324E+01  0.67677371110E+02  0.80826590790E+02  0.00000000000E+00 0.  1.
         12    1    4    4    0    0 -0.30563474404E+02  0.25449821639E+02  0.87822946211E+02  0.96408968827E+02  0.00000000000E+00 0. -1.
         -5    1    5    5    0  502  0.58500301494E+02 -0.62160982269E+02  0.49706975663E+03  0.50436762976E+03  0.47000000000E+01 0.  1.
         13    1    6    6    0    0 -0.62763589993E+01 -0.27550331018E+02  0.92055573376E+02  0.96294558574E+02  0.00000000000E+00 0. -1.
        -14    1    6    6    0    0 -0.46473041064E+02  0.29842408873E+02  0.59365635580E+03  0.59621991052E+03  0.00000000000E+00 0.  1.
</event>
<event>
12    1  0.8344842E-002  0.1969471E+03  0.7818608E-02  0.1155345E+00
         21   -1    0    0  501  502  0.00000000000E+00  0.00000000000E+00  0.45518930585E+02  0.45518930585E+02  0.00000000000E+00 0. -1.
         21   -1    0    0  502  503 -0.00000000000E+00 -0.00000000000E+00 -0.95031224840E+03  0.95031224840E+03  0.00000000000E+00 0. -1.
         -6    2    1    2    0  503 -0.63517812134E+02 -0.74178154504E+02 -0.66697815186E+03  0.69544806543E+03  0.17102995526E+03 0.  0.
        -24    2    3    3    0    0  0.14730003552E+02 -0.64987577220E+02 -0.47749724283E+03  0.49018654382E+03  0.88537408095E+02 0.  0.
          6    2    1    2  501    0  0.63517812134E+02  0.74178154504E+02 -0.23781516596E+03  0.30038311355E+03  0.15536103335E+03 0.  0.
         24    2    5    5    0    0  0.23493076757E+02  0.52545389120E+01 -0.52895188150E+02  0.98963322018E+02  0.80101831070E+02 0.  0.
          5    1    5    5  501    0  0.40024735377E+02  0.68923615592E+02 -0.18491997781E+03  0.20141979153E+03  0.47000000000E+01 0. -1.
        -13    1    6    6    0    0  0.33911590075E+02 -0.12551038120E+02 -0.65478036713E+02  0.74799049400E+02  0.00000000000E+00 0.  1.
         14    1    6    6    0    0 -0.10418513318E+02  0.17805577032E+02  0.12582848563E+02  0.24164272618E+02  0.00000000000E+00 0. -1.
         -5    1    3    3    0  503 -0.78247815686E+02 -0.91905772840E+01 -0.18948090903E+03  0.20526152162E+03  0.47000000000E+01 0.  1.
         13    1    4    4    0    0  0.31509443002E+02 -0.72006432839E+02 -0.45248296867E+03  0.45925875964E+03  0.00000000000E+00 0. -1.
        -14    1    4    4    0    0 -0.16779439450E+02  0.70188556192E+01 -0.25014274157E+02  0.30927784176E+02  0.00000000000E+00 0.  1.
</event>
<event>
12    1  0.8344842E-002  0.2255328E+03  0.7818608E-02  0.1130171E+00
         21   -1    0    0  501  502  0.00000000000E+00  0.00000000000E+00  0.89841822874E+02  0.89841822874E+02  0.00000000000E+00 0.  1.
         21   -1    0    0  502  503 -0.00000000000E+00 -0.00000000000E+00 -0.85317095520E+03  0.85317095520E+03  0.00000000000E+00 0. -1.
         -6    2    1    2    0  503  0.14352901824E+03  0.49332586477E+01 -0.65848294950E+03  0.69603506893E+03  0.17389682656E+03 0.  0.
        -24    2    3    3    0    0  0.67238710943E+02 -0.46009330132E+02 -0.49813497634E+03  0.51124080269E+03  0.81183748244E+02 0.  0.
          6    2    1    2  501    0 -0.14352901824E+03 -0.49332586477E+01 -0.10484618283E+03  0.24697770914E+03  0.17140697373E+03 0.  0.
         24    2    5    5    0    0 -0.71023171948E+02  0.50977866789E+02 -0.10060285482E+03  0.15519945722E+03  0.79516685460E+02 0.  0.
          5    1    5    5  501    0 -0.72505846292E+02 -0.55911125437E+02 -0.42433280128E+01  0.91778251927E+02  0.47000000000E+01 0. -1.
        -13    1    6    6    0    0 -0.61662565370E+02  0.31035489552E+02 -0.20337656078E+02  0.71965921341E+02  0.00000000000E+00 0.  1.
         14    1    6    6    0    0 -0.93606065784E+01  0.19942377237E+02 -0.80265198741E+02  0.83233535875E+02  0.00000000000E+00 0. -1.
         -5    1    3    3    0  503  0.76290307298E+02  0.50942588779E+02 -0.16034797316E+03  0.18479426624E+03  0.47000000000E+01 0.  1.
         11    1    4    4    0    0  0.18850366083E+02 -0.43262530480E+01 -0.34203057875E+03  0.34257695422E+03  0.00000000000E+00 0. -1.
        -12    1    4    4    0    0  0.48388344860E+02 -0.41683077084E+02 -0.15610439759E+03  0.16866384847E+03  0.00000000000E+00 0.  1.
</event>
<event>
12    1  0.8344842E-002  0.2526001E+03  0.7818608E-02  0.1111724E+00
         21   -1    0    0  503  502  0.00000000000E+00  0.00000000000E+00  0.26064856320E+03  0.26064856320E+03  0.00000000000E+00 0. -1.
         21   -1    0    0  501  503 -0.00000000000E+00 -0.00000000000E+00 -0.64537779512E+03  0.64537779512E+03  0.00000000000E+00 0. -1.
          6    2    1    2  501    0  0.11936370775E+03  0.14204695280E+03 -0.54945668411E+03  0.60473917721E+03  0.17141118169E+03 0.  0.
         24    2    3    3    0    0  0.25164560840E+02  0.12797980734E+03 -0.33865153828E+03  0.37336877424E+03  0.87791178318E+02 0.  0.
         -6    2    1    2    0  502 -0.11936370775E+03 -0.14204695280E+03  0.16472745219E+03  0.30128718111E+03  0.17092045070E+03 0.  0.
        -24    2    5    5    0    0 -0.47575126576E+02 -0.14939089630E+03  0.88967553197E+02  0.19655329839E+03  0.78338630449E+02 0.  0.
          5    1    3    3  501    0  0.94199146909E+02  0.14067145458E+02 -0.21080514584E+03  0.23137040297E+03  0.47000000000E+01 0. -1.
        -11    1    4    4    0    0 -0.30530382729E+02  0.46437828008E+02 -0.89359834511E+02  0.10523191609E+03  0.00000000000E+00 0.  1.
         12    1    4    4    0    0  0.55694943569E+02  0.81541979330E+02 -0.24929170376E+03  0.26813685815E+03  0.00000000000E+00 0. -1.
         -5    1    5    5    0  502 -0.71788581173E+02  0.73439435060E+01  0.75759898994E+02  0.10473388272E+03  0.47000000000E+01 0.  1.
         11    1    6    6    0    0 -0.15119497847E+01 -0.43717258050E+02  0.65734043577E+02  0.78958527902E+02  0.00000000000E+00 0. -1.
        -12    1    6    6    0    0 -0.46063176791E+02 -0.10567363825E+03  0.23233509620E+02  0.11759477049E+03  0.00000000000E+00 0.  1.
</event>
<event>
12    1  0.8344842E-002  0.1763451E+03  0.7818608E-02  0.1171488E+00
         21   -1    0    0  503  502  0.00000000000E+00  0.00000000000E+00  0.21951310159E+03  0.21951310159E+03  0.00000000000E+00 0.  1.
         21   -1    0    0  501  503 -0.00000000000E+00 -0.00000000000E+00 -0.15526910378E+03  0.15526910378E+03  0.00000000000E+00 0.  1.
          6    2    1    2  501    0  0.33709555398E+02 -0.31779980050E+01 -0.23965647854E+02  0.17796616636E+03  0.17306406414E+03 0.  0.
         24    2    3    3    0    0  0.80543228068E+02  0.23517795897E+02 -0.36989866139E+02  0.12230847534E+03  0.80937102943E+02 0.  0.
         -6    2    1    2    0  502 -0.33709555398E+02  0.31779980050E+01  0.88209645670E+02  0.19681603901E+03  0.17265334583E+03 0.  0.
        -24    2    5    5    0    0 -0.86275943311E+01  0.25098259880E+02  0.12509039733E+03  0.14689728006E+03  0.72296924926E+02 0.  0.
          5    1    3    3  501    0 -0.46833672670E+02 -0.26695793901E+02  0.13024218285E+02  0.55657691020E+02  0.47000000000E+01 0. -1.
        -11    1    4    4    0    0 -0.30576927314E+01  0.10628529874E+02 -0.36056600343E+02  0.37714633239E+02  0.00000000000E+00 0.  1.
         12    1    4    4    0    0  0.83600920799E+02  0.12889266023E+02 -0.93326579636E+00  0.84593842105E+02  0.00000000000E+00 0. -1.
         -5    1    5    5    0  502 -0.25081961067E+02 -0.21920261875E+02 -0.36880751658E+02  0.49918758944E+02  0.47000000000E+01 0.  1.
         11    1    6    6    0    0  0.80919751639E+01  0.21147497693E+02  0.21303128056E+01  0.22742800034E+02  0.00000000000E+00 0. -1.
        -12    1    6    6    0    0 -0.16719569495E+02  0.39507621872E+01  0.12296008452E+03  0.12415448003E+03  0.00000000000E+00 0.  1.
</event>
<event>
12    1  0.8344842E-002  0.1769101E+03  0.7818608E-02  0.1170831E+00
         21   -1    0    0  501  502  0.00000000000E+00  0.00000000000E+00  0.61062519564E+03  0.61062519564E+03  0.00000000000E+00 0.  1.
         21   -1    0    0  502  503 -0.00000000000E+00 -0.00000000000E+00 -0.54880032076E+02  0.54880032076E+02  0.00000000000E+00 0. -1.
         -6    2    1    2    0  503 -0.36490295663E+02 -0.10810027765E+02  0.19230600501E+03  0.26130207632E+03  0.17276798647E+03 0.  0.
        -24    2    3    3    0    0 -0.47341571521E+02 -0.70108073729E+02  0.13512283561E+03  0.17807940330E+03  0.79358218096E+02 0.  0.
          6    2    1    2  501    0  0.36490295663E+02  0.10810027765E+02  0.36343915856E+03  0.40420315140E+03  0.17275348693E+03 0.  0.
         24    2    5    5    0    0  0.80202550498E+02  0.84185563656E+01  0.16193815936E+03  0.19794791380E+03  0.80349784837E+02 0.  0.
          5    1    5    5  501    0 -0.43712254835E+02  0.23914713994E+01  0.20150099920E+03  0.20625523760E+03  0.47000000000E+01 0. -1.
        -13    1    6    6    0    0  0.31307474548E+01  0.16422345240E+02 -0.17861334258E+01  0.16813247022E+02  0.00000000000E+00 0.  1.
         14    1    6    6    0    0  0.77071803043E+02 -0.80037888744E+01  0.16372429278E+03  0.18113466678E+03  0.00000000000E+00 0. -1.
         -5    1    3    3    0  503  0.10851275857E+02  0.59298045964E+02  0.57183169402E+02  0.83222673027E+02  0.47000000000E+01 0.  1.
         11    1    4    4    0    0  0.20716961102E+02 -0.10774638049E+02  0.14799081669E+02  0.27645942209E+02  0.00000000000E+00 0. -1.
        -12    1    4    4    0    0 -0.68058532623E+02 -0.59333435681E+02  0.12032375394E+03  0.15043346109E+03  0.00000000000E+00 0.  1.
</event>
<event>
12    1  0.8344842E-002  0.2452947E+03  0.7818608E-02  0.1116333E+00
         21   -1    0    0  501  502  0.00000000000E+00  0.00000000000E+00  0.16023277266E+04  0.16023277266E+04  0.00000000000E+00 0.  1.
         21   -1    0    0  502  503 -0.00000000000E+00 -0.00000000000E+00 -0.12716620528E+03  0.12716620528E+03  0.00000000000E+00 0.  1.
         -6    2    1    2    0  503 -0.16283653611E+03  0.62660806116E+02  0.11535376165E+02  0.24545518823E+03  0.17225873102E+03 0.  0.
        -24    2    3    3    0    0 -0.58345569702E+02 -0.77509567584E+01  0.53018796870E+02  0.11271806982E+03  0.80187827052E+02 0.  0.
          6    2    1    2  501    0  0.16283653611E+03 -0.62660806116E+02  0.14636261451E+04  0.14840387436E+04  0.17241631523E+03 0.  0.
         24    2    5    5    0    0  0.14254574321E+03 -0.36420260964E+01  0.12676422690E+04  0.12783042002E+04  0.82535766362E+02 0.  0.
          5    1    5    5  501    0  0.20290792897E+02 -0.59018780020E+02  0.19598387609E+03  0.20573454342E+03  0.47000000000E+01 0. -1.
        -13    1    6    6    0    0  0.11695283760E+03 -0.16517495753E+02  0.11842990584E+04  0.11901743795E+04  0.00000000000E+00 0.  1.
         14    1    6    6    0    0  0.25592905616E+02  0.12875469657E+02  0.83343210613E+02  0.88129820674E+02  0.00000000000E+00 0. -1.
         -5    1    3    3    0  503 -0.10449096641E+03  0.70411762874E+02 -0.41483420705E+02  0.13273711841E+03  0.47000000000E+01 0.  1.
         13    1    4    4    0    0 -0.48707464667E+02  0.10396522651E+02  0.70104183083E+02  0.85994774744E+02  0.00000000000E+00 0. -1.
        -14    1    4    4    0    0 -0.96381050353E+01 -0.18147479409E+02 -0.17085386213E+02  0.26723295074E+02  0.00000000000E+00 0.  1.
</event>
<event>
12    1  0.8344842E-002  0.2983880E+03  0.7818608E-02  0.1086132E+00
         21   -1    0    0  503  502  0.00000000000E+00  0.00000000000E+00  0.35367788114E+04  0.35367788114E+04  0.00000000000E+00 0. -1.
         21   -1    0    0  501  503 -0.00000000000E+00 -0.00000000000E+00 -0.17885883371E+03  0.17885883371E+03  0.00000000000E+00 0.  1.
          6    2    1    2  501    0 -0.23897092634E+03 -0.49442281362E+02 -0.43733609412E+02  0.30092206296E+03  0.17055737029E+03 0.  0.
         24    2    3    3    0    0 -0.10072657792E+03  0.39061422921E+02 -0.21797549704E+02  0.13524863039E+03  0.78392733015E+02 0.  0.
         -6    2    1    2    0  502  0.23897092634E+03  0.49442281362E+02  0.34016535871E+04  0.34147155821E+04  0.17170829211E+03 0.  0.
        -24    2    5    5    0    0  0.52176333158E+02  0.29431678892E+02  0.16252620475E+04  0.16284116785E+04  0.81604400451E+02 0.  0.
          5    1    3    3  501    0 -0.13824434842E+03 -0.88503704283E+02 -0.21936059709E+02  0.16567343257E+03  0.47000000000E+01 0. -1.
        -13    1    4    4    0    0 -0.85353161694E+02  0.11297936470E+02  0.14198357222E+02  0.87260523305E+02  0.00000000000E+00 0.  1.
         14    1    4    4    0    0 -0.15373416227E+02  0.27763486451E+02 -0.35995906925E+02  0.47988107087E+02  0.00000000000E+00 0. -1.
         -5    1    5    5    0  502  0.18679459319E+03  0.20010602470E+02  0.17763915396E+04  0.17863039037E+04  0.47000000000E+01 0.  1.
         11    1    6    6    0    0  0.13334887126E+02  0.44001092049E+02  0.43421255747E+03  0.43663996654E+03  0.00000000000E+00 0. -1.
        -12    1    6    6    0    0  0.38841446032E+02 -0.14569413157E+02  0.11910494900E+04  0.11917717119E+04  0.00000000000E+00 0.  1.
</event>
<event>
12    1  0.8344842E-002  0.2226074E+03  0.7818608E-02  0.1134817E+00
         21   -1    0    0  503  502  0.00000000000E+00  0.00000000000E+00  0.49736316979E+03  0.49736316979E+03  0.00000000000E+00 0. -1.
         21   -1    0    0  501  503 -0.00000000000E+00 -0.00000000000E+00 -0.95339328065E+02  0.95339328065E+02  0.00000000000E+00 0. -1.
          6    2    1    2  501    0 -0.12650631570E+03 -0.54703914039E+02  0.16169390093E+03  0.27513449941E+03  0.17480763440E+03 0.  0.
         24    2    3    3    0    0 -0.15425500077E+03 -0.71668508651E+02  0.14834445868E+03  0.23966501109E+03  0.80636584303E+02 0.  0.
         -6    2    1    2    0  502  0.12650631570E+03  0.54703914039E+02  0.24032994079E+03  0.31756799844E+03  0.15522431210E+03 0.  0.
        -24    2    5    5    0    0  0.24565210305E+02  0.63081157121E+02  0.12414417400E+03  0.16270228378E+03  0.80483385047E+02 0.  0.
          5    1    3    3  501    0  0.27748685065E+02  0.16964594613E+02  0.13349442249E+02  0.35469488319E+02  0.47000000000E+01 0. -1.
        -13    1    4    4    0    0 -0.69535216686E+02  0.66031353135E+01  0.77371924501E+02  0.10423608999E+03  0.00000000000E+00 0.  1.
         14    1    4    4    0    0 -0.84719784081E+02 -0.78271643965E+02  0.70972534179E+02  0.13542892110E+03  0.00000000000E+00 0. -1.
         -5    1    5    5    0  502  0.10194110540E+03 -0.83772430823E+01  0.11618576680E+03  0.15486571466E+03  0.47000000000E+01 0.  1.
         11    1    6    6    0    0 -0.11540798654E+02 -0.87454271836E+01  0.54335556508E+02  0.56231888028E+02  0.00000000000E+00 0. -1.
        -12    1    6    6    0    0  0.36106008959E+02  0.71826584304E+02  0.69808617491E+02  0.10647039575E+03  0.00000000000E+00 0.  1.
</event>
<event>
12    1  0.8344842E-002  0.1824624E+03  0.7818608E-02  0.1165624E+00
         21   -1    0    0  503  502  0.00000000000E+00  0.00000000000E+00  0.32326464673E+03  0.32326464673E+03  0.00000000000E+00 0. -1.
         21   -1    0    0  501  503 -0.00000000000E+00 -0.00000000000E+00 -0.36814376827E+03  0.36814376827E+03  0.00000000000E+00 0. -1.
          6    2    1    2  501    0  0.38738817088E+02  0.48791988667E+02 -0.31608273318E+03  0.36496685490E+03  0.17149681295E+03 0.  0.
         24    2    3    3    0    0 -0.27878203501E+02  0.71516940758E+02 -0.17878729433E+03  0.21060889945E+03  0.80618514433E+02 0.  0.
         -6    2    1    2    0  502 -0.38738817088E+02 -0.48791988667E+02  0.27120361164E+03  0.32644156010E+03  0.17067905287E+03 0.  0.
        -24    2    5    5    0    0 -0.80353486387E+02 -0.16718973890E+02  0.23755237683E+03  0.26387196220E+03  0.80380805142E+02 0.  0.
          5    1    3    3  501    0  0.66617020588E+02 -0.22724952091E+02 -0.13729543885E+03  0.15435795545E+03  0.47000000000E+01 0. -1.
        -11    1    4    4    0    0 -0.97799544464E-01  0.35311150338E+02 -0.11390453338E+02  0.37102955815E+02  0.00000000000E+00 0.  1.
         12    1    4    4    0    0 -0.27780403956E+02  0.36205790420E+02 -0.16739684099E+03  0.17350594364E+03  0.00000000000E+00 0. -1.
         -5    1    5    5    0  502  0.41614669299E+02 -0.32073014777E+02  0.33651234810E+02  0.62569597905E+02  0.47000000000E+01 0.  1.
         11    1    6    6    0    0 -0.17317823849E+02 -0.41130238863E+02  0.12320568963E+03  0.13103909924E+03  0.00000000000E+00 0. -1.
        -12    1    6    6    0    0 -0.63035662538E+02  0.24411264973E+02  0.11434668720E+03  0.13283286296E+03  0.00000000000E+00 0.  1.
</event>
<event>
12    1  0.8344842E-002  0.2024584E+03  0.7818608E-02  0.1149971E+00
         21   -1    0    0  501  502  0.00000000000E+00  0.00000000000E+00  0.96467363644E+02  0.96467363644E+02  0.00000000000E+00 0.  1.
         21   -1    0    0  502  503 -0.00000000000E+00 -0.00000000000E+00 -0.59897815693E+03  0.59897815693E+03  0.00000000000E+00 0.  1.
         -6    2    1    2    0  503  0.75267798437E+02  0.35974933476E+02 -0.45483800742E+03  0.49786246308E+03  0.18447217087E+03 0.  0.
        -24    2    3    3    0    0 -0.34544209210E+02  0.18950980480E+02 -0.22467913909E+03  0.24223835101E+03  0.81524604300E+02 0.  0.
          6    2    1    2  501    0 -0.75267798437E+02 -0.35974933476E+02 -0.47672785862E+02  0.19758305750E+03  0.17264684410E+03 0.  0.
         24    2    5    5    0    0 -0.10702177705E+03 -0.82656645546E+01 -0.15111207496E+01  0.13490045969E+03  0.81693748627E+02 0.  0.
          5    1    5    5  501    0  0.31753978613E+02 -0.27709268921E+02 -0.46161665113E+02  0.62682597807E+02  0.47000000000E+01 0. -1.
        -13    1    6    6    0    0 -0.46435493279E+02  0.22290617296E+02  0.30512651892E+02  0.59867759111E+02  0.00000000000E+00 0.  1.
         14    1    6    6    0    0 -0.60586283771E+02 -0.30556281850E+02 -0.32023772642E+02  0.75032700577E+02  0.00000000000E+00 0. -1.
         -5    1    3    3    0  503  0.10981200765E+03  0.17023952997E+02 -0.23015886833E+03  0.25562411206E+03  0.47000000000E+01 0.  1.
         13    1    4    4    0    0  0.17281936025E+02 -0.15872638347E+02 -0.10102198905E+03  0.10371136983E+03  0.00000000000E+00 0. -1.
        -14    1    4    4    0    0 -0.51826145235E+02  0.34823618826E+02 -0.12365715005E+03  0.13852698118E+03  0.00000000000E+00 0.  1.
</event>
<event>
12    1  0.8344842E-002  0.1771718E+03  0.7818608E-02  0.1172333E+00
         21   -1    0    0  501  502  0.00000000000E+00  0.00000000000E+00  0.77032776968E+02  0.77032776968E+02  0.00000000000E+00 0. -1.
         21   -1    0    0  502  503 -0.00000000000E+00 -0.00000000000E+00 -0.39281894155E+03  0.39281894155E+03  0.00000000000E+00 0. -1.
         -6    2    1    2    0  503  0.29558547370E+02 -0.16346412069E+02 -0.17431755107E+03  0.24854872479E+03  0.17392224433E+03 0.  0.
        -24    2    3    3    0    0  0.60519825698E+02 -0.46349490052E+02 -0.60164860852E+02  0.12643520331E+03  0.80963730300E+02 0.  0.
          6    2    1    2  501    0 -0.29558547370E+02  0.16346412069E+02 -0.14146861351E+03  0.22130299373E+03  0.16679548410E+03 0.  0.
         24    2    5    5    0    0 -0.75307742072E+02  0.85852414834E+01 -0.55569858653E+02  0.12355888561E+03  0.80211137856E+02 0.  0.
          5    1    5    5  501    0  0.45749194703E+02  0.77611705861E+01 -0.85898754861E+02  0.97744108117E+02  0.47000000000E+01 0. -1.
        -13    1    6    6    0    0 -0.43877903665E+01  0.17358166744E+02 -0.48559864467E+02  0.51755377441E+02  0.00000000000E+00 0.  1.
         14    1    6    6    0    0 -0.70919951706E+02 -0.87729252604E+01 -0.70099941862E+01  0.71803508174E+02  0.00000000000E+00 0. -1.
         -5    1    3    3    0  503 -0.30961278328E+02  0.30003077983E+02 -0.11415269022E+03  0.12211352148E+03  0.47000000000E+01 0.  1.
         13    1    4    4    0    0  0.45597351939E+02 -0.91343279965E+01 -0.71025271135E+02  0.84894897323E+02  0.00000000000E+00 0. -1.
        -14    1    4    4    0    0  0.14922473759E+02 -0.37215162056E+02  0.10860410283E+02  0.41540305986E+02  0.00000000000E+00 0.  1.
</event>
<event>
12    1  0.8344842E-002  0.2012955E+03  0.7818608E-02  0.1149285E+00
         21   -1    0    0  501  502  0.00000000000E+00  0.00000000000E+00  0.10713431768E+03  0.10713431768E+03  0.00000000000E+00 0. -1.
         21   -1    0    0  502  503 -0.00000000000E+00 -0.00000000000E+00 -0.39628560192E+03  0.39628560192E+03  0.00000000000E+00 0. -1.
         -6    2    1    2    0  503 -0.10682772645E+03 -0.82781393219E+01 -0.20510851415E+03  0.28528446115E+03  0.16684433004E+03 0.  0.
        -24    2    3    3    0    0 -0.73872426524E+02  0.65257587154E+02 -0.13395024460E+03  0.17767802924E+03  0.62538995559E+02 0.  0.
          6    2    1    2  501    0  0.10682772645E+03  0.82781393219E+01 -0.84042770085E+02  0.21813545844E+03  0.17040892083E+03 0.  0.
         24    2    5    5    0    0  0.23090060632E+02  0.70101150452E+01  0.20062375351E+02  0.84443364929E+02  0.78395729239E+02 0.  0.
          5    1    5    5  501    0  0.83737665818E+02  0.12680242768E+01 -0.10410514544E+03  0.13369209352E+03  0.47000000000E+01 0. -1.
        -11    1    6    6    0    0 -0.23457955430E+02 -0.15740903997E+02 -0.15807400919E+01  0.28294000615E+02  0.00000000000E+00 0.  1.
         12    1    6    6    0    0  0.46548016062E+02  0.22751019042E+02  0.21643115443E+02  0.56149364314E+02  0.00000000000E+00 0. -1.
         -5    1    3    3    0  503 -0.32955299927E+02 -0.73535726476E+02 -0.71158269559E+02  0.10760643191E+03  0.47000000000E+01 0.  1.
         11    1    4    4    0    0 -0.82794323880E+02  0.45073833075E+02 -0.11401618588E+03  0.14793999168E+03  0.00000000000E+00 0. -1.
        -12    1    4    4    0    0  0.89218973565E+01  0.20183754079E+02 -0.19934058714E+02  0.29738037561E+02  0.00000000000E+00 0.  1.
</event>
<event>
12    1  0.8344842E-002  0.1989375E+03  0.7818608E-02  0.1151270E+00
         21   -1    0    0  503  502  0.00000000000E+00  0.00000000000E+00  0.94382189968E+03  0.94382189968E+03  0.00000000000E+00 0.  1.
         21   -1    0    0  501  503 -0.00000000000E+00 -0.00000000000E+00 -0.46571221497E+02  0.46571221497E+02  0.00000000000E+00 0.  1.
          6    2    1    2  501    0 -0.24309813531E+02 -0.89323447009E+02  0.61799403589E+03  0.64922474432E+03  0.17608661230E+03 0.  0.
         24    2    3    3    0    0 -0.41925936801E+02 -0.81533544514E+02  0.22186124028E+03  0.25259608659E+03  0.78593065630E+02 0.  0.
         -6    2    1    2    0  502  0.24309813531E+02  0.89323447009E+02  0.27925664230E+03  0.34116837686E+03  0.17274820948E+03 0.  0.
        -24    2    5    5    0    0  0.53303451240E+02  0.47506532811E+02  0.26818513100E+03  0.28888115372E+03  0.80193066500E+02 0.  0.
          5    1    3    3  501    0  0.17616123270E+02 -0.77899024954E+01  0.39613279561E+03  0.39662865773E+03  0.47000000000E+01 0. -1.
        -13    1    4    4    0    0 -0.25545696259E+02  0.33838668068E+01  0.99334449331E+02  0.10262244382E+03  0.00000000000E+00 0.  1.
         14    1    4    4    0    0 -0.16380240543E+02 -0.84917411320E+02  0.12252679095E+03  0.14997364277E+03  0.00000000000E+00 0. -1.
         -5    1    5    5    0  502 -0.28993637709E+02  0.41816914198E+02  0.11071511305E+02  0.52287223136E+02  0.47000000000E+01 0.  1.
         13    1    6    6    0    0  0.77225169462E+01  0.15117809345E+02  0.19991536875E+03  0.20063484266E+03  0.00000000000E+00 0. -1.
        -14    1    6    6    0    0  0.45580934294E+02  0.32388723466E+02  0.68269762251E+02  0.88246311065E+02  0.00000000000E+00 0.  1.
</event>
<event>
12    1  0.8344842E-002  0.1917085E+03  0.7818608E-02  0.1157689E+00
         21   -1    0    0  501  502  0.00000000000E+00  0.00000000000E+00  0.10596338156E+04  0.10596338156E+04  0.00000000000E+00 0. -1.
         21   -1    0    0  502  503 -0.00000000000E+00 -0.00000000000E+00 -0.74780648531E+02  0.74780648531E+02  0.00000000000E+00 0. -1.
         -6    2    1    2    0  503 -0.72111336389E+02 -0.28011328161E+02  0.75951040002E+02  0.20620552289E+03  0.17540660721E+03 0.  0.
        -24    2    3    3    0    0 -0.96832440532E+02  0.26987980075E+02  0.68985939085E+02  0.14532318122E+03  0.79087891621E+02 0.  0.
          6    2    1    2  501    0  0.72111336389E+02  0.28011328161E+02  0.90890212703E+03  0.92820894120E+03  0.17170929697E+03 0.  0.
         24    2    5    5    0    0  0.72137152390E+02 -0.41083188405E+02  0.47704965550E+03  0.49083873183E+03  0.80341083634E+02 0.  0.
          5    1    5    5  501    0 -0.25816001106E-01  0.69094516565E+02  0.43185247152E+03  0.43737020937E+03  0.47000000000E+01 0. -1.
        -11    1    6    6    0    0 -0.14176366216E+02  0.77808355120E+01  0.58134671047E+02  0.60341948411E+02  0.00000000000E+00 0.  1.
         12    1    6    6    0    0  0.86313518606E+02 -0.48864023917E+02  0.41891498446E+03  0.43049678341E+03  0.00000000000E+00 0. -1.
         -5    1    3    3    0  503  0.24721104143E+02 -0.54999308236E+02  0.69651009165E+01  0.60882341671E+02  0.47000000000E+01 0.  1.
         11    1    4    4    0    0 -0.25360495569E+01 -0.15046545549E+02 -0.73393815019E+01  0.16932117444E+02  0.00000000000E+00 0. -1.
        -12    1    4    4    0    0 -0.94296390975E+02  0.42034525624E+02  0.76325320587E+02  0.12839106378E+03  0.00000000000E+00 0.  1.
</event>
<event>
12    1  0.8344842E-002  0.4444861E+03  0.7818608E-02  0.1029397E+00
         21   -1    0    0  501  502  0.00000000000E+00  0.00000000000E+00  0.13598169992E+03  0.13598169992E+03  0.00000000000E+00 0. -1.
         21   -1    0    0  502  503 -0.00000000000E+00 -0.00000000000E+00 -0.14521378109E+04  0.14521378109E+04  0.00000000000E+00 0.  1.
         -6    2    1    2    0  503 -0.23812209349E+03 -0.33366100212E+03 -0.65768164008E+03  0.79366593031E+03  0.17125616338E+03 0.  0.
        -24    2    3    3    0    0 -0.15836473908E+03 -0.26224616607E+03 -0.58264015075E+03  0.66284303663E+03  0.77710383724E+02 0.  0.
          6    2    1    2  501    0  0.23812209349E+03  0.33366100212E+03 -0.65847447093E+03  0.79445358055E+03  0.17186060351E+03 0.  0.
         24    2    5    5    0    0  0.93366350891E+02  0.12049704200E+03 -0.36619491197E+03  0.40478381075E+03  0.80711878217E+02 0.  0.
          5    1    5    5  501    0  0.14475574259E+03  0.21316396012E+03 -0.29227955896E+03  0.38966976979E+03  0.47000000000E+01 0. -1.
        -13    1    6    6    0    0  0.47486464639E+02  0.10331275487E+03 -0.18558676234E+03  0.21764865265E+03  0.00000000000E+00 0.  1.
         14    1    6    6    0    0  0.45879886252E+02  0.17184287127E+02 -0.18060814963E+03  0.18713515810E+03  0.00000000000E+00 0. -1.
         -5    1    3    3    0  503 -0.79757354407E+02 -0.71414836048E+02 -0.75041489324E+02  0.13082289368E+03  0.47000000000E+01 0.  1.
         13    1    4    4    0    0 -0.11191954718E+03 -0.18728975692E+03 -0.33322770831E+03  0.39830157378E+03  0.00000000000E+00 0. -1.
        -14    1    4    4    0    0 -0.46445191902E+02 -0.74956409145E+02 -0.24941244244E+03  0.26454146285E+03  0.00000000000E+00 0.  1.
</event>
<event>
12    1  0.8344842E-002  0.2078950E+03  0.7818608E-02  0.1143454E+00
         21   -1    0    0  503  502  0.00000000000E+00  0.00000000000E+00  0.15212952587E+04  0.15212952587E+04  0.00000000000E+00 0.  1.
         21   -1    0    0  501  503 -0.00000000000E+00 -0.00000000000E+00 -0.49714255173E+02  0.49714255173E+02  0.00000000000E+00 0. -1.
          6    2    1    2  501    0 -0.11884717099E+03 -0.36082844674E+02  0.21880905922E+03  0.30110484229E+03  0.16540888707E+03 0.  0.
         24    2    3    3    0    0 -0.26985983582E+01  0.88996315399E+01  0.74895154438E+02  0.11071782572E+03  0.81010288842E+02 0.  0.
         -6    2    1    2    0  502  0.11884717099E+03  0.36082844674E+02  0.12527719443E+04  0.12699046716E+04  0.16671445267E+03 0.  0.
        -24    2    5    5    0    0  0.17657477116E+02 -0.94410519610E+01  0.30989084555E+03  0.32050557968E+03  0.79313116755E+02 0.  0.
          5    1    3    3  501    0 -0.11614857263E+03 -0.44982476214E+02  0.14391390478E+03  0.19038701657E+03  0.47000000000E+01 0. -1.
        -13    1    4    4    0    0 -0.24261735791E+02  0.30017096510E+01  0.83316514347E+02  0.86829048408E+02  0.00000000000E+00 0.  1.
         14    1    4    4    0    0  0.21563137433E+02  0.58979218889E+01 -0.84213599096E+01  0.23888777308E+02  0.00000000000E+00 0. -1.
         -5    1    5    5    0  502  0.10118969387E+03  0.45523896635E+02  0.94288109878E+03  0.94939909192E+03  0.47000000000E+01 0.  1.
         13    1    6    6    0    0  0.23539207995E+02 -0.28922232690E+02  0.28880150410E+03  0.29119907045E+03  0.00000000000E+00 0. -1.
        -14    1    6    6    0    0 -0.58817308784E+01  0.19481180729E+02  0.21089341446E+02  0.29306509232E+02  0.00000000000E+00 0.  1.
</event>
<event>
12    1  0.8344842E-002  0.1888131E+03  0.7818608E-02  0.1159662E+00
         21   -1    0    0  503  502  0.00000000000E+00  0.00000000000E+00  0.16082252548E+02  0.16082252548E+02  0.00000000000E+00 0.  1.
         21   -1    0    0  501  503 -0.00000000000E+00 -0.00000000000E+00 -0.22243177606E+04  0.22243177606E+04  0.00000000000E+00 0.  1.
          6    2    1    2  501    0 -0.46487861359E+02 -0.63109833179E+02 -0.10135570351E+04  0.10308930758E+04  0.17116862468E+03 0.  0.
         24    2    3    3    0    0 -0.74737397433E+02 -0.38474695882E+02 -0.95024074579E+03  0.95716405325E+03  0.78355402249E+02 0.  0.
         -6    2    1    2    0  502  0.46487861359E+02  0.63109833179E+02 -0.11946784729E+04  0.12095069373E+04  0.17177428624E+03 0.  0.
        -24    2    5    5    0    0  0.97015711787E+02  0.30704902393E+02 -0.72870832799E+03  0.73966291086E+03  0.75700429737E+02 0.  0.
          5    1    3    3  501    0  0.28249536074E+02 -0.24635137297E+02 -0.63316289302E+02  0.73729022569E+02  0.47000000000E+01 0. -1.
        -13    1    4    4    0    0 -0.21838149710E+02 -0.54757304690E+02 -0.44049322378E+03  0.44442046239E+03  0.00000000000E+00 0.  1.
         14    1    4    4    0    0 -0.52899247723E+02  0.16282608808E+02 -0.50974752201E+03  0.51274359085E+03  0.00000000000E+00 0. -1.
         -5    1    5    5    0  502 -0.50527850427E+02  0.32404930786E+02 -0.46597014492E+03  0.46984402642E+03  0.47000000000E+01 0.  1.
         13    1    6    6    0    0 -0.55188806870E+01  0.82324330635E+01 -0.13257072278E+02  0.16552370331E+02  0.00000000000E+00 0. -1.
        -14    1    6    6    0    0  0.10253459247E+03  0.22472469330E+02 -0.71545125571E+03  0.72311054053E+03  0.00000000000E+00 0.  1.
</event>
<event>
12    1  0.8344842E-002  0.3570725E+03  0.7818608E-02  0.1059870E+00
         21   -1    0    0  503  502  0.00000000000E+00  0.00000000000E+00  0.37998341686E+03  0.37998341686E+03  0.00000000000E+00 0. -1.
         21   -1    0    0  501  503 -0.00000000000E+00 -0.00000000000E+00 -0.15616979836E+04  0.15616979836E+04  0.00000000000E+00 0.  1.
          6    2    1    2  501    0 -0.30768372790E+03  0.54979009964E+02 -0.14517156490E+04  0.14949846473E+04  0.17265225766E+03 0.  0.
         24    2    3    3    0    0 -0.31865238420E+03  0.71857043003E+02 -0.13765814447E+04  0.14170589257E+04  0.79854546199E+02 0.  0.
         -6    2    1    2    0  502  0.30768372790E+03 -0.54979009964E+02  0.27000108223E+03  0.44669675323E+03  0.17013358572E+03 0.  0.
        -24    2    5    5    0    0  0.13072038948E+03 -0.60618199018E+02  0.69471775735E+02  0.17914878303E+03  0.80657129615E+02 0.  0.
          5    1    3    3  501    0  0.10968656295E+02 -0.16878033040E+02 -0.75134204296E+02  0.77925721526E+02  0.47000000000E+01 0. -1.
        -11    1    4    4    0    0 -0.17556460345E+03  0.26589626238E+02 -0.58416930795E+03  0.61056016785E+03  0.00000000000E+00 0.  1.
         12    1    4    4    0    0 -0.14308778074E+03  0.45267416765E+02 -0.79241213675E+03  0.80649875789E+03  0.00000000000E+00 0. -1.
         -5    1    5    5    0  502  0.17696333842E+03  0.56391890548E+01  0.20052930649E+03  0.26754797020E+03  0.47000000000E+01 0.  1.
         11    1    6    6    0    0  0.13042184018E+03 -0.63040722723E+02  0.81951038094E+02  0.16643305490E+03  0.00000000000E+00 0. -1.
        -12    1    6    6    0    0  0.29854929722E+00  0.24225237046E+01 -0.12479262359E+02  0.12715728127E+02  0.00000000000E+00 0.  1.
</event>
<event>
12    1  0.8344842E-002  0.1908439E+03  0.7818608E-02  0.1157898E+00
         21   -1    0    0  501  502  0.00000000000E+00  0.00000000000E+00  0.40159920096E+03  0.40159920096E+03  0.00000000000E+00 0. -1.
         21   -1    0    0  502  503 -0.00000000000E+00 -0.00000000000E+00 -0.12678562132E+03  0.12678562132E+03  0.00000000000E+00 0. -1.
         -6    2    1    2    0  503  0.73764910059E+02  0.28288977529E+02 -0.45839111022E+01  0.19002943598E+03  0.17276760719E+03 0.  0.
        -24    2    3    3    0    0  0.64899289430E+02  0.47376643392E+02  0.60282874668E+02  0.12167208002E+03  0.68655706038E+02 0.  0.
          6    2    1    2  501    0 -0.73764910059E+02 -0.28288977529E+02  0.27939749074E+03  0.33835538629E+03  0.17372357754E+03 0.  0.
         24    2    5    5    0    0 -0.15817860607E+02  0.64079547692E+01  0.25007671074E+03  0.26457506513E+03  0.84677843813E+02 0.  0.
          5    1    5    5  501    0 -0.57947049452E+02 -0.34696932298E+02  0.29320779997E+02  0.73780321161E+02  0.47000000000E+01 0. -1.
        -11    1    6    6    0    0  0.32077188954E+02 -0.67284272086E+01  0.62965400715E+02  0.70984924252E+02  0.00000000000E+00 0.  1.
         12    1    6    6    0    0 -0.47895049560E+02  0.13136381978E+02  0.18711131003E+03  0.19359014088E+03  0.00000000000E+00 0. -1.
         -5    1    3    3    0  503  0.88656206291E+01 -0.19087665864E+02 -0.64866785770E+02  0.68357355957E+02  0.47000000000E+01 0.  1.
         13    1    4    4    0    0  0.31372832747E+02 -0.12841631287E+02  0.71453841631E+01  0.34644171856E+02  0.00000000000E+00 0. -1.
        -14    1    4    4    0    0  0.33526456682E+02  0.60218274680E+02  0.53137490505E+02  0.87027908169E+02  0.00000000000E+00 0.  1.
</event>
<event>
12    1  0.8344842E-002  0.2427188E+03  0.7818608E-02  0.1118783E+00
         21   -1    0    0  501  502  0.00000000000E+00  0.00000000000E+00  0.44392369684E+03  0.44392369684E+03  0.00000000000E+00 0.  1.
         21   -1    0    0  502  503 -0.00000000000E+00 -0.00000000000E+00 -0.38770444951E+03  0.38770444951E+03  0.00000000000E+00 0.  1.
         -6    2    1    2    0  503  0.16119048492E+03  0.12132258489E+02 -0.31090381532E+03  0.39152388989E+03  0.17464309277E+03 0.  0.
        -24    2    3    3    0    0  0.45013686198E+02 -0.33123428152E+02 -0.20498854305E+03  0.22786185815E+03  0.82324541785E+02 0.  0.
          6    2    1    2  501    0 -0.16119048492E+03 -0.12132258489E+02  0.36712306264E+03  0.44010425646E+03  0.18106034714E+03 0.  0.
         24    2    5    5    0    0 -0.13482182570E+03 -0.31066545408E+02  0.14915863975E+03  0.21968557972E+03  0.82893903255E+02 0.  0.
          5    1    5    5  501    0 -0.26368659224E+02  0.18934286919E+02  0.21796442289E+03  0.22041867674E+03  0.47000000000E+01 0. -1.
        -11    1    6    6    0    0 -0.82722735834E+02  0.11656489373E+02  0.43016080781E+02  0.93964397376E+02  0.00000000000E+00 0.  1.
         12    1    6    6    0    0 -0.52099089862E+02 -0.42723034781E+02  0.10614255897E+03  0.12572118234E+03  0.00000000000E+00 0. -1.
         -5    1    3    3    0  503  0.11617679872E+03  0.45255686641E+02 -0.10591527226E+03  0.16366203174E+03  0.47000000000E+01 0.  1.
         11    1    4    4    0    0 -0.23564727447E+02 -0.15213674807E+02 -0.69669578067E+02  0.75103943897E+02  0.00000000000E+00 0. -1.
        -12    1    4    4    0    0  0.68578413645E+02 -0.17909753345E+02 -0.13531896499E+03  0.15275791426E+03  0.00000000000E+00 0.  1.
</event>
<event>
12    1  0.8344842E-002  0.1776628E+03  0.7818608E-02  0.1170161E+00
         21   -1    0    0  501  502  0.00000000000E+00  0.00000000000E+00  0.60259678597E+03  0.60259678597E+03  0.00000000000E+00 0.  1.
         21   -1    0    0  502  503 -0.00000000000E+00 -0.00000000000E+00 -0.52608224977E+02  0.52608224977E+02  0.00000000000E+00 0.  1.
         -6    2    1    2    0  503  0.51205701466E+02  0.28174637514E+01  0.24921058115E+03  0.30587500713E+03  0.16977527578E+03 0.  0.
        -24    2    3    3    0    0 -0.30932636668E+02 -0.27439563507E+02  0.12069515294E+03  0.15030990958E+03  0.79473211316E+02 0.  0.
          6    2    1    2  501    0 -0.51205701466E+02 -0.28174637514E+01  0.30077797985E+03  0.34933000382E+03  0.17010025409E+03 0.  0.
         24    2    5    5    0    0 -0.42505535175E+02 -0.64516833087E+02  0.21300308459E+03  0.24158480760E+03  0.83807893109E+02 0.  0.
          5    1    5    5  501    0 -0.87001662911E+01  0.61699369335E+02  0.87774895261E+02  0.10774519622E+03  0.47000000000E+01 0. -1.
        -13    1    6    6    0    0 -0.39256441627E+02 -0.69657452815E+02  0.21894148772E+03  0.23308497161E+03  0.00000000000E+00 0.  1.
         14    1    6    6    0    0 -0.32490935483E+01  0.51406197282E+01 -0.59384031379E+01  0.84998359928E+01  0.00000000000E+00 0. -1.
         -5    1    3    3    0  503  0.82138338134E+02  0.30257027259E+02  0.12851542820E+03  0.15556509755E+03  0.47000000000E+01 0.  1.
         13    1    4    4    0    0 -0.42040820651E+02  0.97907968036E+01  0.32809695371E+02  0.54219612811E+02  0.00000000000E+00 0. -1.
        -14    1    4    4    0    0  0.11108183982E+02 -0.37230360311E+02  0.87885457570E+02  0.96090296766E+02  0.00000000000E+00 0.  1.
</event>
<event>
12    1  0.8344842E-002  0.2308315E+03  0.7818608E-02  0.1126405E+00
         21   -1    0    0  503  502  0.00000000000E+00  0.00000000000E+00  0.71387932149E+02  0.71387932149E+02  0.00000000000E+00 0.  1.
         21   -1    0    0  501  503 -0.00000000000E+00 -0.00000000000E+00 -0.85655057035E+03  0.85655057035E+03  0.00000000000E+00 0.  1.
          6    2    1    2  501    0 -0.31167004095E+02  0.14772338879E+03 -0.22288776886E+03  0.32087715393E+03  0.17461273914E+03 0.  0.
         24    2    3    3    0    0 -0.18175669847E+01  0.86892058620E+02 -0.38420778128E+02  0.12437778788E+03  0.80250511062E+02 0.  0.
         -6    2    1    2    0  502  0.31167004095E+02 -0.14772338879E+03 -0.56227486935E+03  0.60706134857E+03  0.17197927342E+03 0.  0.
        -24    2    5    5    0    0  0.59858209957E+02 -0.93352432768E+02 -0.50383864121E+03  0.52211272344E+03  0.80315861422E+02 0.  0.
          5    1    3    3  501    0 -0.29349437110E+02  0.60831330174E+02 -0.18446699073E+03  0.19649936605E+03  0.47000000000E+01 0. -1.
        -11    1    4    4    0    0  0.25962549353E+02  0.75501549970E+02 -0.47634953499E+02  0.92971107402E+02  0.00000000000E+00 0.  1.
         12    1    4    4    0    0 -0.27780116338E+02  0.11390508650E+02  0.92141753710E+01  0.31406680481E+02  0.00000000000E+00 0. -1.
         -5    1    5    5    0  502 -0.28691205862E+02 -0.54370956025E+02 -0.58436228137E+02  0.84948625132E+02  0.47000000000E+01 0.  1.
         11    1    6    6    0    0  0.24863351850E+02  0.10397328851E+02 -0.11804973377E+03  0.12108687111E+03  0.00000000000E+00 0. -1.
        -12    1    6    6    0    0  0.34994858108E+02 -0.10374976162E+03 -0.38578890744E+03  0.40102585233E+03  0.00000000000E+00 0.  1.
</event>
<event>
12    1  0.8344842E-002  0.1967848E+03  0.7818608E-02  0.1152491E+00
         21   -1    0    0  503  502  0.00000000000E+00  0.00000000000E+00  0.89739900283E+03  0.89739900283E+03  0.00000000000E+00 0.  1.
         21   -1    0    0  501  503 -0.00000000000E+00 -0.00000000000E+00 -0.43877999424E+02  0.43877999424E+02  0.00000000000E+00 0. -1.
          6    2    1    2  501    0 -0.93729918964E+02 -0.14911266869E+02  0.36569976251E+03  0.41526004492E+03  0.17232801577E+03 0.  0.
         24    2    3    3    0    0 -0.12110429252E+03  0.22450728996E+02  0.29870407962E+03  0.33367704064E+03  0.83342398376E+02 0.  0.
         -6    2    1    2    0  502  0.93729918964E+02  0.14911266869E+02  0.48782124089E+03  0.52601695733E+03  0.17238512912E+03 0.  0.
        -24    2    5    5    0    0  0.11633020949E+03 -0.26872961545E+02  0.41122610424E+03  0.43576398045E+03  0.80798911806E+02 0.  0.
          5    1    3    3  501    0  0.27374373555E+02 -0.37361995865E+02  0.66995682887E+02  0.81583004284E+02  0.47000000000E+01 0. -1.
        -13    1    4    4    0    0 -0.41035508478E+02  0.13520983110E+02  0.20765079330E+03  0.21209804784E+03  0.00000000000E+00 0.  1.
         14    1    4    4    0    0 -0.80068784041E+02  0.89297458860E+01  0.91053286325E+02  0.12157899280E+03  0.00000000000E+00 0. -1.
         -5    1    5    5    0  502 -0.22600290528E+02  0.41784228415E+02  0.76595136654E+02  0.90252976877E+02  0.47000000000E+01 0.  1.
         11    1    6    6    0    0  0.36886324749E+02  0.28959145975E+02  0.12424810793E+03  0.13280371009E+03  0.00000000000E+00 0. -1.
        -12    1    6    6    0    0  0.79443884743E+02 -0.55832107520E+02  0.28697799631E+03  0.30296027036E+03  0.00000000000E+00 0.  1.
</event>
<event>
12    1  0.8344842E-002  0.1856143E+03  0.7818608E-02  0.1162949E+00
         21   -1    0    0  501  502  0.00000000000E+00  0.00000000000E+00  0.42769601668E+03  0.42769601668E+03  0.00000000000E+00 0. -1.
         21   -1    0    0  502  503 -0.00000000000E+00 -0.00000000000E+00 -0.28519627600E+03  0.28519627600E+03  0.00000000000E+00 0. -1.
         -6    2    1    2    0  503  0.51413360773E+02  0.43838244268E+02 -0.23122254748E+03  0.29650724604E+03  0.17288017575E+03 0.  0.
        -24    2    3    3    0    0  0.28130244953E+02  0.82278777744E+02 -0.99567847658E+02  0.15731375452E+03  0.85280438127E+02 0.  0.
          6    2    1    2  501    0 -0.51413360773E+02 -0.43838244268E+02  0.37372228815E+03  0.41638504664E+03  0.17071330668E+03 0.  0.
         24    2    5    5    0    0  0.22564088975E+02 -0.26269909526E+02  0.28798815296E+03  0.30169528513E+03  0.82967599519E+02 0.  0.
          5    1    5    5  501    0 -0.73977449749E+02 -0.17568334742E+02  0.85734135195E+02  0.11468976151E+03  0.47000000000E+01 0. -1.
        -11    1    6    6    0    0 -0.17341993791E+02 -0.17950215576E+02  0.24161867817E+02  0.34738319537E+02  0.00000000000E+00 0.  1.
         12    1    6    6    0    0  0.39906082766E+02 -0.83196939501E+01  0.26382628514E+03  0.26695696560E+03  0.00000000000E+00 0. -1.
         -5    1    3    3    0  503  0.23283115820E+02 -0.38440533477E+02 -0.13165469982E+03  0.13919349152E+03  0.47000000000E+01 0.  1.
         13    1    4    4    0    0 -0.26513528257E+02  0.13151509468E+02 -0.44373991810E+02  0.53338358909E+02  0.00000000000E+00 0. -1.
        -14    1    4    4    0    0  0.54643773210E+02  0.69127268276E+02 -0.55193855848E+02  0.10397539562E+03  0.00000000000E+00 0.  1.
</event>
<event>
12    1  0.8344842E-002  0.2077727E+03  0.7818608E-02  0.1143375E+00
         21   -1    0    0  503  502  0.00000000000E+00  0.00000000000E+00  0.14928305162E+03  0.14928305162E+03  0.00000000000E+00 0. -1.
         21   -1    0    0  501  503 -0.00000000000E+00 -0.00000000000E+00 -0.36227848124E+03  0.36227848124E+03  0.00000000000E+00 0. -1.
          6    2    1    2  501    0  0.54118603300E+01 -0.11615395235E+03 -0.22160941114E+03  0.30377659515E+03  0.17218728111E+03 0.  0.
         24    2    3    3    0    0  0.16703800339E+02 -0.60078817240E+02 -0.34057342809E+02  0.10763940586E+03  0.80857021145E+02 0.  0.
         -6    2    1    2    0  502 -0.54118603300E+01  0.11615395235E+03  0.86139815201E+01  0.20778493770E+03  0.17198648429E+03 0.  0.
        -24    2    5    5    0    0 -0.16237799715E+02  0.14244688248E+03  0.36057700622E+02  0.16798836930E+03  0.79781915111E+02 0.  0.
          5    1    3    3  501    0 -0.11291940009E+02 -0.56075135111E+02 -0.18755206833E+03  0.19613718929E+03  0.47000000000E+01 0. -1.
        -13    1    4    4    0    0 -0.45559907802E+01 -0.48003224948E+02  0.16920416129E+02  0.51101537544E+02  0.00000000000E+00 0.  1.
         14    1    4    4    0    0  0.21259791119E+02 -0.12075592292E+02 -0.50977758938E+02  0.56537868318E+02  0.00000000000E+00 0. -1.
         -5    1    5    5    0  502  0.10825939385E+02 -0.26292930127E+02 -0.27443719102E+02  0.39796568400E+02  0.47000000000E+01 0.  1.
         13    1    6    6    0    0  0.31979283464E+01  0.38852340724E+02  0.48085081456E+02  0.61902392394E+02  0.00000000000E+00 0. -1.
        -14    1    6    6    0    0 -0.19435728061E+02  0.10359454175E+03 -0.12027380834E+02  0.10608597691E+03  0.00000000000E+00 0.  1.
</event>
<event>
12    1  0.8344842E-002  0.1715300E+03  0.7818608E-02  0.1176491E+00
         21   -1    0    0  503  502  0.00000000000E+00  0.00000000000E+00  0.13374849485E+04  0.13374849485E+04  0.00000000000E+00 0. -1.
         21   -1    0    0  501  503 -0.00000000000E+00 -0.00000000000E+00 -0.47910979068E+02  0.47910979068E+02  0.00000000000E+00 0. -1.
          6    2    1    2  501    0  0.97191845306E+01 -0.92885582018E+00  0.13348054571E+03  0.21664678942E+03  0.17036270120E+03 0.  0.
         24    2    3    3    0    0 -0.44002436962E+02  0.13413542911E+02  0.28710207106E+02  0.97942826259E+02  0.81562145824E+02 0.  0.
         -6    2    1    2    0  502 -0.97191845306E+01  0.92885582018E+00  0.11560934237E+04  0.11687491381E+04  0.17125191457E+03 0.  0.
        -24    2    5    5    0    0 -0.41862390805E+02 -0.16313772612E+02  0.40018849745E+03  0.41195006211E+03  0.86795283504E+02 0.  0.
          5    1    3    3  501    0  0.53721621493E+02 -0.14342398732E+02  0.10477033861E+03  0.11870396316E+03  0.47000000000E+01 0. -1.
        -11    1    4    4    0    0 -0.36501353108E+01  0.38814183857E+02  0.31585780587E+02  0.50174952831E+02  0.00000000000E+00 0.  1.
         12    1    4    4    0    0 -0.40352301652E+02 -0.25400640946E+02 -0.28755734810E+01  0.47767873428E+02  0.00000000000E+00 0. -1.
         -5    1    5    5    0  502  0.32143206274E+02  0.17242628432E+02  0.75590492625E+03  0.75679907602E+03  0.47000000000E+01 0.  1.
         11    1    6    6    0    0 -0.18426591656E+02  0.12340887545E+02  0.19695471420E+02  0.29660552589E+02  0.00000000000E+00 0. -1.
        -12    1    6    6    0    0 -0.23435799149E+02 -0.28654660157E+02  0.38049302603E+03  0.38228950952E+03  0.00000000000E+00 0.  1.
</event>
<event>
12    1  0.8344842E-002  0.2337348E+03  0.7818608E-02  0.1124074E+00
         21   -1    0    0  501  502  0.00000000000E+00  0.00000000000E+00  0.11600521631E+03  0.11600521631E+03  0.00000000000E+00 0.  1.
         21   -1    0    0  502  503 -0.00000000000E+00 -0.00000000000E+00 -0.17486851585E+04  0.17486851585E+04  0.00000000000E+00 0.  1.
         -6    2    1    2    0  503  0.10742225920E+03 -0.11385787312E+03 -0.16135402426E+04  0.16303815660E+04  0.17357643640E+03 0.  0.
        -24    2    3    3    0    0  0.52569713854E+02 -0.14316126719E+03 -0.10703060358E+04  0.10835790568E+04  0.73005745353E+02 0.  0.
          6    2    1    2  501    0 -0.10742225920E+03  0.11385787312E+03 -0.19139699642E+02  0.23430880884E+03  0.17329492998E+03 0.  0.
         24    2    5    5    0    0 -0.10025123826E+03  0.13600645656E+03  0.22002255029E+02  0.18680371729E+03  0.76573249687E+02 0.  0.
          5    1    5    5  501    0 -0.71710209477E+01 -0.22148583439E+02 -0.41141954671E+02  0.47505091558E+02  0.47000000000E+01 0. -1.
        -11    1    6    6    0    0 -0.80414506475E+02  0.50080727897E+02  0.26908256179E+02  0.98481604419E+02  0.00000000000E+00 0.  1.
         12    1    6    6    0    0 -0.19836731782E+02  0.85925728664E+02 -0.49060011500E+01  0.88322112868E+02  0.00000000000E+00 0. -1.
         -5    1    3    3    0  503  0.54852545350E+02  0.29303394065E+02 -0.54323420677E+03  0.54680250917E+03  0.47000000000E+01 0.  1.
         13    1    4    4    0    0  0.13371737621E+02 -0.42946616800E+02 -0.13947230404E+03  0.14654602982E+03  0.00000000000E+00 0. -1.
        -14    1    4    4    0    0  0.39197976233E+02 -0.10021465039E+03 -0.93083373177E+03  0.93703302700E+03  0.00000000000E+00 0.  1.
</event>
<event>
12    1  0.8344842E-002  0.1873838E+03  0.7818608E-02  0.1161635E+00
         21   -1    0    0  503  502  0.00000000000E+00  0.00000000000E+00  0.98808870222E+02  0.98808870222E+02  0.00000000000E+00 0.  1.
         21   -1    0    0  501  503 -0.00000000000E+00 -0.00000000000E+00 -0.55241372675E+03  0.55241372675E+03  0.00000000000E+00 0.  1.
          6    2    1    2  501    0  0.45230939823E+02  0.57832588096E+02 -0.42574881884E+03  0.46516097009E+03  0.17240134916E+03 0.  0.
         24    2    3    3    0    0  0.69435166406E+02  0.91965551631E+02 -0.27409404733E+03  0.30776921838E+03  0.79469742564E+02 0.  0.
         -6    2    1    2    0  502 -0.45230939823E+02 -0.57832588096E+02 -0.27856037690E+02  0.18606162688E+03  0.16867875977E+03 0.  0.
        -24    2    5    5    0    0  0.14823723843E+02  0.18854623709E+02  0.15596733873E+01  0.84204544943E+02  0.80701506704E+02 0.  0.
          5    1    3    3  501    0 -0.24204226584E+02 -0.34132963535E+02 -0.15165477151E+03  0.15739175171E+03  0.47000000000E+01 0. -1.
        -13    1    4    4    0    0  0.53041820614E+02  0.17686086526E+02 -0.16918642595E+03  0.17818608003E+03  0.00000000000E+00 0.  1.
         14    1    4    4    0    0  0.16393345793E+02  0.74279465105E+02 -0.10490762138E+03  0.12958313836E+03  0.00000000000E+00 0. -1.
         -5    1    5    5    0  502 -0.60054663665E+02 -0.76687211805E+02 -0.29415711077E+02  0.10185708194E+03  0.47000000000E+01 0.  1.
         13    1    6    6    0    0  0.27117047954E+02  0.36793880693E+02 -0.23193730488E+02  0.51254981027E+02  0.00000000000E+00 0. -1.
        -14    1    6    6    0    0 -0.12293324111E+02 -0.17939256984E+02  0.24753403875E+02  0.32949563916E+02  0.00000000000E+00 0.  1.
</event>
<event>
12    1  0.8344842E-002  0.1754363E+03  0.7818608E-02  0.1172736E+00
         21   -1    0    0  503  502  0.00000000000E+00  0.00000000000E+00  0.28052053089E+02  0.28052053089E+02  0.00000000000E+00 0.  1.
         21   -1    0    0  501  503 -0.00000000000E+00 -0.00000000000E+00 -0.11253590885E+04  0.11253590885E+04  0.00000000000E+00 0.  1.
          6    2    1    2  501    0  0.32842251362E+02  0.18762335933E+00 -0.43842574496E+03  0.47157359619E+03  0.17054581233E+03 0.  0.
         24    2    3    3    0    0  0.14025584833E+02 -0.62964059580E+02 -0.31765857753E+03  0.33391822679E+03  0.80207359208E+02 0.  0.
         -6    2    1    2    0  502 -0.32842251362E+02 -0.18762335933E+00 -0.65888129048E+03  0.68183754543E+03  0.17233465912E+03 0.  0.
        -24    2    5    5    0    0 -0.83378960392E+02  0.12856617667E+02 -0.53298096033E+03  0.54546638163E+03  0.79671360987E+02 0.  0.
          5    1    3    3  501    0  0.18816666530E+02  0.63151682939E+02 -0.12076716743E+03  0.13765536940E+03  0.47000000000E+01 0. -1.
        -13    1    4    4    0    0 -0.11392513494E+02 -0.73807853645E+02 -0.24717422701E+03  0.25821016076E+03  0.00000000000E+00 0.  1.
         14    1    4    4    0    0  0.25418098327E+02  0.10843794065E+02 -0.70484350523E+02  0.75708066023E+02  0.00000000000E+00 0. -1.
         -5    1    5    5    0  502  0.50536709030E+02 -0.13044241026E+02 -0.12590033015E+03  0.13637116380E+03  0.47000000000E+01 0.  1.
         13    1    6    6    0    0 -0.47720763291E+02 -0.14782915076E+02 -0.43182802922E+03  0.43470823853E+03  0.00000000000E+00 0. -1.
        -14    1    6    6    0    0 -0.35658197101E+02  0.27639532743E+02 -0.10115293111E+03  0.11075814310E+03  0.00000000000E+00 0.  1.
</event>
<event>
12    1  0.8344842E-002  0.1854348E+03  0.7818608E-02  0.1162803E+00
         21   -1    0    0  503  502  0.00000000000E+00  0.00000000000E+00  0.83155462923E+03  0.83155462923E+03  0.00000000000E+00 0. -1.
         21   -1    0    0  501  503 -0.00000000000E+00 -0.00000000000E+00 -0.72034838307E+02  0.72034838307E+02  0.00000000000E+00 0. -1.
          6    2    1    2  501    0 -0.67899699429E+02  0.38596927195E+01  0.83768866277E+02  0.20285744878E+03  0.17178083467E+03 0.  0.
         24    2    3    3    0    0 -0.21400777655E+02  0.24772578265E+02 -0.18123336445E+02  0.88824078740E+02  0.80557977395E+02 0.  0.
         -6    2    1    2    0  502  0.67899699429E+02 -0.38596927195E+01  0.67575092465E+03  0.70073201876E+03  0.17251314018E+03 0.  0.
        -24    2    5    5    0    0  0.37013266050E+02 -0.70432656133E+02  0.38264663071E+03  0.39854309051E+03  0.78021856499E+02 0.  0.
          5    1    3    3  501    0 -0.46498921774E+02 -0.20912885546E+02  0.10189220272E+03  0.11403337004E+03  0.47000000000E+01 0. -1.
        -11    1    4    4    0    0  0.46416776619E+01 -0.16710204340E+02 -0.33301060875E+02  0.37546461298E+02  0.00000000000E+00 0.  1.
         12    1    4    4    0    0 -0.26042455317E+02  0.41482782605E+02  0.15177724430E+02  0.51277617442E+02  0.00000000000E+00 0. -1.
         -5    1    5    5    0  502  0.30886433379E+02  0.66572963414E+02  0.29310429394E+03  0.30218892824E+03  0.47000000000E+01 0.  1.
         13    1    6    6    0    0  0.25524082786E+02 -0.48832135599E+02  0.36301954285E+03  0.36717740230E+03  0.00000000000E+00 0. -1.
        -14    1    6    6    0    0  0.11489183263E+02 -0.21600520534E+02  0.19627087859E+02  0.31365688216E+02  0.00000000000E+00 0.  1.
</event>
<event>
12    1  0.8344842E-002  0.2149370E+03  0.7818608E-02  0.1138282E+00
         21   -1    0    0  501  502  0.00000000000E+00  0.00000000000E+00  0.16640160423E+03  0.16640160423E+03  0.00000000000E+00 0.  1.
         21   -1    0    0  502  503 -0.00000000000E+00 -0.00000000000E+00 -0.28273491339E+03  0.28273491339E+03  0.00000000000E+00 0.  1.
         -6    2    1    2    0  503 -0.12432075446E+03 -0.23249828340E+02 -0.17992366027E+02  0.21277055651E+03  0.17015105047E+03 0.  0.
        -24    2    3    3    0    0 -0.55343355445E+02  0.10119964153E+02 -0.71228684216E+02  0.11934882349E+03  0.77493971043E+02 0.  0.
          6    2    1    2  501    0  0.12432075446E+03  0.23249828340E+02 -0.98340943134E+02  0.23636596110E+03  0.17378642630E+03 0.  0.
         24    2    5    5    0    0  0.74192899339E+02  0.35367957936E+02 -0.13185581365E+03  0.17468138062E+03  0.79825750113E+02 0.  0.
          5    1    5    5  501    0  0.50127855122E+02 -0.12118129596E+02  0.33514870515E+02  0.61684580485E+02  0.47000000000E+01 0. -1.
        -13    1    6    6    0    0  0.43530639543E+02  0.54817589646E+02 -0.52781004584E+02  0.87668233463E+02  0.00000000000E+00 0.  1.
         14    1    6    6    0    0  0.30662259796E+02 -0.19449631710E+02 -0.79074809065E+02  0.87013147156E+02  0.00000000000E+00 0. -1.
         -5    1    3    3    0  503 -0.68977399016E+02 -0.33369792493E+02  0.53236318189E+02  0.93421733019E+02  0.47000000000E+01 0.  1.
         13    1    4    4    0    0 -0.55055444784E+02  0.14663678583E+02 -0.86408210745E+02  0.10350122876E+03  0.00000000000E+00 0. -1.
        -14    1    4    4    0    0 -0.28791066134E+00 -0.45437144294E+01  0.15179526529E+02  0.15847594739E+02  0.00000000000E+00 0.  1.
</event>
<event>
12    1  0.8344842E-002  0.1856317E+03  0.7818608E-02  0.1162547E+00
         21   -1    0    0  503  502  0.00000000000E+00  0.00000000000E+00  0.12281643076E+04  0.12281643076E+04  0.00000000000E+00 0. -1.
         21   -1    0    0  501  503 -0.00000000000E+00 -0.00000000000E+00 -0.11231123958E+03  0.11231123958E+03  0.00000000000E+00 0. -1.
          6    2    1    2  501    0  0.63484319655E+02 -0.28424739314E+02 -0.22640090136E+02  0.18700718192E+03  0.17210719845E+03 0.  0.
         24    2    3    3    0    0  0.45951843364E+02 -0.71365955872E+02 -0.56094378269E+02  0.12962586789E+03  0.80321944620E+02 0.  0.
         -6    2    1    2    0  502 -0.63484319655E+02  0.28424739314E+02  0.11384931582E+04  0.11534683653E+04  0.17171014490E+03 0.  0.
        -24    2    5    5    0    0 -0.88104020291E+02 -0.25348902461E+02  0.65065030769E+03  0.66203121674E+03  0.80837019905E+02 0.  0.
          5    1    3    3  501    0  0.17532476291E+02  0.42941216558E+02  0.33454288134E+02  0.57381314022E+02  0.47000000000E+01 0. -1.
        -13    1    4    4    0    0 -0.73379337743E+01 -0.15681515406E+02  0.16375957845E+02  0.23831223066E+02  0.00000000000E+00 0.  1.
         14    1    4    4    0    0  0.53289777138E+02 -0.55684440467E+02 -0.72470336114E+02  0.10579464483E+03  0.00000000000E+00 0. -1.
         -5    1    5    5    0  502  0.24619700636E+02  0.53773641775E+02  0.48784285051E+03  0.49143714857E+03  0.47000000000E+01 0.  1.
         13    1    6    6    0    0 -0.52396756706E+02  0.21571123544E+02  0.42683765207E+03  0.43058229725E+03  0.00000000000E+00 0. -1.
        -14    1    6    6    0    0 -0.35707263585E+02 -0.46920026005E+02  0.22381265562E+03  0.23144891948E+03  0.00000000000E+00 0.  1.
</event>
<event>
12    1  0.8344842E-002  0.1784559E+03  0.7818608E-02  0.1169623E+00
         21   -1    0    0  503  502  0.00000000000E+00  0.00000000000E+00  0.63745410725E+03  0.63745410725E+03  0.00000000000E+00 0.  1.
         21   -1    0    0  501  503 -0.00000000000E+00 -0.00000000000E+00 -0.12252712832E+03  0.12252712832E+03  0.00000000000E+00 0.  1.
          6    2    1    2  501    0 -0.43606149825E+02  0.14796754583E+02 -0.35318388052E+02  0.18191730445E+03  0.17241251948E+03 0.  0.
         24    2    3    3    0    0 -0.43002907935E+02  0.29018465309E+01  0.38101847167E+02  0.10738896301E+03  0.90680581242E+02 0.  0.
         -6    2    1    2    0  502  0.43606149825E+02 -0.14796754583E+02  0.55024536698E+03  0.57806393111E+03  0.17107748045E+03 0.  0.
        -24    2    5    5    0    0  0.93710141634E+02 -0.19488731289E+02  0.43367237830E+03  0.45100576990E+03  0.78568896448E+02 0.  0.
          5    1    3    3  501    0 -0.60324188995E+00  0.11894908052E+02 -0.73420235219E+02  0.74528341441E+02  0.47000000000E+01 0. -1.
        -13    1    4    4    0    0 -0.49655708235E+01  0.95912572410E+01 -0.28456417601E+02  0.30437095981E+02  0.00000000000E+00 0.  1.
         14    1    4    4    0    0 -0.38037337111E+02 -0.66894107100E+01  0.66558264768E+02  0.76951867028E+02  0.00000000000E+00 0. -1.
         -5    1    5    5    0  502 -0.50103991810E+02  0.46919767059E+01  0.11657298868E+03  0.12705816121E+03  0.47000000000E+01 0.  1.
         11    1    6    6    0    0  0.29301070834E+02 -0.28585411507E+02  0.66299945942E+02  0.77918940797E+02  0.00000000000E+00 0. -1.
        -12    1    6    6    0    0  0.64409070801E+02  0.90966802178E+01  0.36737243236E+03  0.37308682910E+03  0.00000000000E+00 0.  1.
</event>
<event>
12    1  0.8344842E-002  0.1767691E+03  0.7818608E-02  0.1171062E+00
         21   -1    0    0  501  502  0.00000000000E+00  0.00000000000E+00  0.16332885994E+02  0.16332885994E+02  0.00000000000E+00 0.  1.
         21   -1    0    0  502  503 -0.00000000000E+00 -0.00000000000E+00 -0.23696289588E+04  0.23696289588E+04  0.00000000000E+00 0. -1.
         -6    2    1    2    0  503  0.25688335790E+02  0.31736595121E+02 -0.64963952475E+03  0.67315918468E+03  0.17159450383E+03 0.  0.
        -24    2    3    3    0    0  0.19681688451E+02  0.86687925855E+02 -0.50319445437E+03  0.51655785264E+03  0.75664990988E+02 0.  0.
          6    2    1    2  501    0 -0.25688335790E+02 -0.31736595121E+02 -0.17036565481E+04  0.17128026601E+04  0.17198900161E+03 0.  0.
         24    2    5    5    0    0  0.30798243047E+01  0.31894312969E+01 -0.39095369641E+03  0.39931177659E+03  0.81150751073E+02 0.  0.
          5    1    5    5  501    0 -0.28768160094E+02 -0.34926026418E+02 -0.13127028517E+04  0.13134908836E+04  0.47000000000E+01 0. -1.
        -11    1    6    6    0    0  0.13804236886E+02  0.21612007936E+02 -0.36421101605E+03  0.36511272239E+03  0.00000000000E+00 0.  1.
         12    1    6    6    0    0 -0.10724412581E+02 -0.18422576639E+02 -0.26742680364E+02  0.34199054202E+02  0.00000000000E+00 0. -1.
         -5    1    3    3    0  503  0.60066473388E+01 -0.54951330734E+02 -0.14644507038E+03  0.15660133205E+03  0.47000000000E+01 0.  1.
         13    1    4    4    0    0 -0.19531881782E+02 -0.20510015382E+00 -0.55816846827E+02  0.59135918541E+02  0.00000000000E+00 0. -1.
        -14    1    4    4    0    0  0.39213570233E+02  0.86893026009E+02 -0.44737760754E+03  0.45742193410E+03  0.00000000000E+00 0.  1.
</event>
<event>
12    1  0.8344842E-002  0.1772466E+03  0.7818608E-02  0.1170660E+00
         21   -1    0    0  503  502  0.00000000000E+00  0.00000000000E+00  0.75560481540E+03  0.75560481540E+03  0.00000000000E+00 0.  1.
         21   -1    0    0  501  503 -0.00000000000E+00 -0.00000000000E+00 -0.79737021102E+02  0.79737021102E+02  0.00000000000E+00 0.  1.
          6    2    1    2  501    0 -0.11869690758E+02  0.34779694651E+02  0.48736367071E+02  0.18382492441E+03  0.17339507675E+03 0.  0.
         24    2    3    3    0    0  0.54329360099E+02  0.51731369011E+01  0.55597885952E+02  0.11083154774E+03  0.78829349477E+02 0.  0.
         -6    2    1    2    0  502  0.11869690758E+02 -0.34779694651E+02  0.62713142723E+03  0.65151691209E+03  0.17271347082E+03 0.  0.
        -24    2    5    5    0    0  0.35690322152E+02 -0.64728605400E+02  0.57946053503E+03  0.59020652392E+03  0.84294945055E+02 0.  0.
          5    1    3    3  501    0 -0.66199050857E+02  0.29606557750E+02 -0.68615188803E+01  0.72993376669E+02  0.47000000000E+01 0. -1.
        -11    1    4    4    0    0  0.49694694337E+02 -0.27395175440E+02  0.15223514648E+02  0.58752137671E+02  0.00000000000E+00 0.  1.
         12    1    4    4    0    0  0.46346657621E+01  0.32568312341E+02  0.40374371303E+02  0.52079410073E+02  0.00000000000E+00 0. -1.
         -5    1    5    5    0  502 -0.23820631394E+02  0.29948910749E+02  0.47670892194E+02  0.61310388171E+02  0.47000000000E+01 0.  1.
         11    1    6    6    0    0  0.44465452484E+02 -0.54108226492E+02  0.22887614366E+03  0.23935155269E+03  0.00000000000E+00 0. -1.
        -12    1    6    6    0    0 -0.87751303315E+01 -0.10620378908E+02  0.35058439137E+03  0.35085497122E+03  0.00000000000E+00 0.  1.
</event>
<event>
12    1  0.8344842E-002  0.1791896E+03  0.7818608E-02  0.1168729E+00
         21   -1    0    0  501  502  0.00000000000E+00  0.00000000000E+00  0.34760618464E+03  0.34760618464E+03  0.00000000000E+00 0.  1.
         21   -1    0    0  502  503 -0.00000000000E+00 -0.00000000000E+00 -0.13079072674E+03  0.13079072674E+03  0.00000000000E+00 0. -1.
         -6    2    1    2    0  503  0.38639242822E+01 -0.48583018616E+02 -0.21853259076E+02  0.17994814484E+03  0.17183867518E+03 0.  0.
        -24    2    3    3    0    0  0.10817392648E+02  0.29957299241E+01  0.46664495818E+02  0.93776857513E+02  0.80563847063E+02 0.  0.
          6    2    1    2  501    0 -0.38639242822E+01  0.48583018616E+02  0.23866871697E+03  0.29844876654E+03  0.17243453883E+03 0.  0.
         24    2    5    5    0    0  0.28656609341E+02  0.37798240327E+02  0.24830563039E+03  0.26254811683E+03  0.70893718584E+02 0.  0.
          5    1    5    5  501    0 -0.32520533624E+02  0.10784778290E+02 -0.96369134178E+01  0.35900649718E+02  0.47000000000E+01 0. -1.
        -11    1    6    6    0    0  0.87486165542E+01  0.55556749619E+02  0.13710072234E+03  0.14818805210E+03  0.00000000000E+00 0.  1.
         12    1    6    6    0    0  0.19907992787E+02 -0.17758509292E+02  0.11120490805E+03  0.11436006473E+03  0.00000000000E+00 0. -1.
         -5    1    3    3    0  503 -0.69534683654E+01 -0.51578748540E+02 -0.68517754894E+02  0.86171287324E+02  0.47000000000E+01 0.  1.
         13    1    4    4    0    0 -0.20211248430E+02  0.14820785502E+02 -0.10893034160E+02  0.27327796092E+02  0.00000000000E+00 0. -1.
        -14    1    4    4    0    0  0.31028641078E+02 -0.11825055578E+02  0.57557529978E+02  0.66449061421E+02  0.00000000000E+00 0.  1.
</event>
<event>
12    1  0.8344842E-002  0.2564812E+03  0.7818608E-02  0.1109411E+00
         21   -1    0    0  501  502  0.00000000000E+00  0.00000000000E+00  0.18875545322E+03  0.18875545322E+03  0.00000000000E+00 0.  1.
         21   -1    0    0  502  503 -0.00000000000E+00 -0.00000000000E+00 -0.43150374984E+03  0.43150374984E+03  0.00000000000E+00 0. -1.
         -6    2    1    2    0  503  0.65441084148E+02 -0.17812811961E+03 -0.25819897238E+03  0.36331309002E+03  0.17122362438E+03 0.  0.
        -24    2    3    3    0    0  0.54490648237E+02 -0.18756010975E+03 -0.27113458653E+03  0.34335577061E+03  0.78937922980E+02 0.  0.
          6    2    1    2  501    0 -0.65441084148E+02  0.17812811961E+03  0.15450675766E+02  0.25694611305E+03  0.17254106507E+03 0.  0.
         24    2    5    5    0    0 -0.45335730233E+02  0.29927371898E+02  0.42646771308E+02  0.10486256860E+03  0.78907763656E+02 0.  0.
          5    1    5    5  501    0 -0.20105353916E+02  0.14820074772E+03 -0.27196095542E+02  0.15208354445E+03  0.47000000000E+01 0. -1.
        -11    1    6    6    0    0 -0.51586236511E+02  0.34914375114E+02  0.83852583987E+00  0.62296520871E+02  0.00000000000E+00 0.  1.
         12    1    6    6    0    0  0.62505062789E+01 -0.49870032164E+01  0.41808245468E+02  0.42566047725E+02  0.00000000000E+00 0. -1.
         -5    1    3    3    0  503  0.10950435911E+02  0.94319901384E+01  0.12935614143E+02  0.19957319406E+02  0.47000000000E+01 0.  1.
         11    1    4    4    0    0 -0.69482757295E+01  0.44018756071E+01 -0.17919160306E+02  0.19716778401E+02  0.00000000000E+00 0. -1.
        -12    1    4    4    0    0  0.61438923967E+02 -0.19196198536E+03 -0.25321542622E+03  0.32363899221E+03  0.00000000000E+00 0.  1.
</event>
<event>
12    1  0.8344842E-002  0.2078215E+03  0.7818608E-02  0.1144942E+00
         21   -1    0    0  503  502  0.00000000000E+00  0.00000000000E+00  0.22634875989E+03  0.22634875989E+03  0.00000000000E+00 0. -1.
         21   -1    0    0  501  503 -0.00000000000E+00 -0.00000000000E+00 -0.19288266136E+03  0.19288266136E+03  0.00000000000E+00 0. -1.
          6    2    1    2  501    0  0.11380244074E+03  0.14778450733E+02  0.63179683360E+02  0.21721295729E+03  0.17326395557E+03 0.  0.
         24    2    3    3    0    0  0.24074500555E+02  0.64122680634E+02  0.34789070315E+02  0.11084532507E+03  0.79906864087E+02 0.  0.
         -6    2    1    2    0  502 -0.11380244074E+03 -0.14778450733E+02 -0.29713584834E+02  0.20201846396E+03  0.16358228673E+03 0.  0.
        -24    2    5    5    0    0 -0.89683519130E+02  0.50763116274E+02 -0.17284741126E+02  0.13092707530E+03  0.78886685786E+02 0.  0.
          5    1    3    3  501    0  0.89727940190E+02 -0.49344229901E+02  0.28390613045E+02  0.10636763222E+03  0.47000000000E+01 0. -1.
        -11    1    4    4    0    0 -0.10717228108E+02  0.22984984369E+02  0.48957366342E+02  0.55136124310E+02  0.00000000000E+00 0.  1.
         12    1    4    4    0    0  0.34791728662E+02  0.41137696265E+02 -0.14168296026E+02  0.55709200762E+02  0.00000000000E+00 0. -1.
         -5    1    5    5    0  502 -0.24118921615E+02 -0.65541567007E+02 -0.12428843708E+02  0.71091388660E+02  0.47000000000E+01 0.  1.
         11    1    6    6    0    0 -0.95556605598E+02  0.57729644458E+02 -0.28763193694E+00  0.11164165645E+03  0.00000000000E+00 0. -1.
        -12    1    6    6    0    0  0.58730864680E+01 -0.69665281842E+01 -0.16997109189E+02  0.19285418854E+02  0.00000000000E+00 0.  1.
</event>
<event>
12    1  0.8344842E-002  0.2363464E+03  0.7818608E-02  0.1122556E+00
         21   -1    0    0  501  502  0.00000000000E+00  0.00000000000E+00  0.22225409299E+03  0.22225409299E+03  0.00000000000E+00 0. -1.
         21   -1    0    0  502  503 -0.00000000000E+00 -0.00000000000E+00 -0.67417764983E+03  0.67417764983E+03  0.00000000000E+00 0. -1.
         -6    2    1    2    0  503 -0.14991589674E+03 -0.60655622855E+02 -0.58204505123E+03  0.62820064476E+03  0.17235349644E+03 0.  0.
        -24    2    3    3    0    0 -0.24423358064E+02 -0.69117065994E+02 -0.22880595245E+03  0.25320741257E+03  0.79925969943E+02 0.  0.
          6    2    1    2  501    0  0.14991589674E+03  0.60655622855E+02  0.13012149439E+03  0.26823109807E+03  0.16988948758E+03 0.  0.
         24    2    5    5    0    0  0.34149016837E+02 -0.34043974294E+00  0.10065811198E+03  0.13401980556E+03  0.81627088177E+02 0.  0.
          5    1    5    5  501    0  0.11576687990E+03  0.60996062598E+02  0.29463382414E+02  0.13421129251E+03  0.47000000000E+01 0. -1.
        -13    1    6    6    0    0  0.94457468428E+01 -0.16847357671E+02  0.10245026252E+03  0.10425503290E+03  0.00000000000E+00 0.  1.
         14    1    6    6    0    0  0.24703269995E+02  0.16506917928E+02 -0.17921505428E+01  0.29764772660E+02  0.00000000000E+00 0. -1.
         -5    1    3    3    0  503 -0.12549253868E+03  0.84614431392E+01 -0.35323909878E+03  0.37499323219E+03  0.47000000000E+01 0.  1.
         11    1    4    4    0    0 -0.45726202395E+02 -0.36860348347E+02 -0.78677577029E+02  0.98182136832E+02  0.00000000000E+00 0. -1.
        -12    1    4    4    0    0  0.21302844331E+02 -0.32256717647E+02 -0.15012837542E+03  0.15502527574E+03  0.00000000000E+00 0.  1.
</event>
<event>
12    1  0.8344842E-002  0.1749852E+03  0.7818608E-02  0.1173139E+00
         21   -1    0    0  501  502  0.00000000000E+00  0.00000000000E+00  0.14600421039E+03  0.14600421039E+03  0.00000000000E+00 0.  1.
         21   -1    0    0  502  503 -0.00000000000E+00 -0.00000000000E+00 -0.25123149048E+03  0.25123149048E+03  0.00000000000E+00 0.  1.
         -6    2    1    2    0  503 -0.19139793630E+02 -0.16464188999E+02 -0.13533546303E+03  0.22121375338E+03  0.17315437017E+03 0.  0.
        -24    2    3    3    0    0  0.28753434224E+02  0.44293271298E+02 -0.66846397969E+02  0.11778226741E+03  0.81336140384E+02 0.  0.
          6    2    1    2  501    0  0.19139793630E+02  0.16464188999E+02  0.30108182937E+02  0.17602194749E+03  0.17158036630E+03 0.  0.
         24    2    5    5    0    0 -0.40179298246E+02  0.67224521873E+01  0.60381872133E+02  0.10855164028E+03  0.80485531340E+02 0.  0.
          5    1    5    5  501    0  0.59319091876E+02  0.97417368118E+01 -0.30273689196E+02  0.67470307207E+02  0.47000000000E+01 0. -1.
        -11    1    6    6    0    0  0.95095745297E+01  0.30700027949E+02  0.35922840962E+02  0.48201392372E+02  0.00000000000E+00 0.  1.
         12    1    6    6    0    0 -0.49688872776E+02 -0.23977575762E+02  0.24459031171E+02  0.60350247912E+02  0.00000000000E+00 0. -1.
         -5    1    3    3    0  503 -0.47893227854E+02 -0.60757460297E+02 -0.68489065064E+02  0.10343148597E+03  0.47000000000E+01 0.  1.
         13    1    4    4    0    0  0.56050803448E+01 -0.83013186581E+01  0.14842908673E+02  0.17906444511E+02  0.00000000000E+00 0. -1.
        -14    1    4    4    0    0  0.23148353879E+02  0.52594589956E+02 -0.81689306642E+02  0.99875822899E+02  0.00000000000E+00 0.  1.
</event>
<event>
12    1  0.8344842E-002  0.1921883E+03  0.7818608E-02  0.1156602E+00
         21   -1    0    0  501  502  0.00000000000E+00  0.00000000000E+00  0.13605776938E+04  0.13605776938E+04  0.00000000000E+00 0. -1.
         21   -1    0    0  502  503 -0.00000000000E+00 -0.00000000000E+00 -0.39160283576E+02  0.39160283576E+02  0.00000000000E+00 0. -1.
         -6    2    1    2    0  503 -0.74455237943E+02 -0.43044843006E+02  0.27259423506E+03  0.33353256857E+03  0.17187180207E+03 0.  0.
        -24    2    3    3    0    0 -0.11774050122E+03 -0.29047211557E+02  0.22099833839E+03  0.26458494892E+03  0.80363944015E+02 0.  0.
          6    2    1    2  501    0  0.74455237943E+02  0.43044843006E+02  0.10488231751E+04  0.10662054088E+04  0.17136942559E+03 0.  0.
         24    2    5    5    0    0 -0.83665347042E+01  0.21820425211E+01  0.21424722139E+03  0.22652194040E+03  0.73044899868E+02 0.  0.
          5    1    5    5  501    0  0.82821772647E+02  0.40862800485E+02  0.83457595375E+03  0.83968346838E+03  0.47000000000E+01 0. -1.
        -13    1    6    6    0    0  0.78923573774E+01  0.25105890002E+01 -0.28936195895E+01  0.87729924444E+01  0.00000000000E+00 0.  1.
         14    1    6    6    0    0 -0.16258892082E+02 -0.32854647904E+00  0.21714084098E+03  0.21774894796E+03  0.00000000000E+00 0. -1.
         -5    1    3    3    0  503  0.43285263274E+02 -0.13997631449E+02  0.51595896667E+02  0.68947619652E+02  0.47000000000E+01 0.  1.
         11    1    4    4    0    0 -0.11671862558E+03 -0.18461722469E+02  0.14138983134E+03  0.18426925180E+03  0.00000000000E+00 0. -1.
        -12    1    4    4    0    0 -0.10218756416E+01 -0.10585489088E+02  0.79608507050E+02  0.80315697119E+02  0.00000000000E+00 0.  1.
</event>
<event>
12    1  0.8344842E-002  0.2183926E+03  0.7818608E-02  0.1135637E+00
         21   -1    0    0  501  502  0.00000000000E+00  0.00000000000E+00  0.33819602602E+03  0.33819602602E+03  0.00000000000E+00 0.  1.
         21   -1    0    0  502  503 -0.00000000000E+00 -0.00000000000E+00 -0.19068741829E+03  0.19068741829E+03  0.00000000000E+00 0. -1.
         -6    2    1    2    0  503 -0.11252000307E+03  0.67103693353E+02  0.21085510253E+03  0.30148931534E+03  0.17109142658E+03 0.  0.
        -24    2    3    3    0    0 -0.10459519274E+02  0.13210162775E+02  0.15356654910E+03  0.17255164302E+03  0.76860097328E+02 0.  0.
          6    2    1    2  501    0  0.11252000307E+03 -0.67103693353E+02 -0.63346494804E+02  0.22739412897E+03  0.17473309571E+03 0.  0.
         24    2    5    5    0    0  0.38904137021E+02  0.14955584669E+02  0.12711572647E+02  0.93379426544E+02  0.82588932869E+02 0.  0.
          5    1    5    5  501    0  0.73615866045E+02 -0.82059278022E+02 -0.76058067451E+02  0.13401470243E+03  0.47000000000E+01 0. -1.
        -13    1    6    6    0    0  0.31975809200E+02 -0.60106839282E+00  0.45978217610E+02  0.56007233031E+02  0.00000000000E+00 0.  1.
         14    1    6    6    0    0  0.69283278212E+01  0.15556653062E+02 -0.33266644963E+02  0.37372193513E+02  0.00000000000E+00 0. -1.
         -5    1    3    3    0  503 -0.10206048379E+03  0.53893530578E+02  0.57288553430E+02  0.12893767232E+03  0.47000000000E+01 0.  1.
         13    1    4    4    0    0 -0.24963540625E+02 -0.14537752702E+02  0.19442290271E+02  0.34821362196E+02  0.00000000000E+00 0. -1.
        -14    1    4    4    0    0  0.14504021351E+02  0.27747915477E+02  0.13412425883E+03  0.13773028082E+03  0.00000000000E+00 0.  1.
</event>
<event>
12    1  0.8344842E-002  0.1929788E+03  0.7818608E-02  0.1155891E+00
         21   -1    0    0  503  502  0.00000000000E+00  0.00000000000E+00  0.10602272619E+04  0.10602272619E+04  0.00000000000E+00 0. -1.
         21   -1    0    0  501  503 -0.00000000000E+00 -0.00000000000E+00 -0.35603902753E+02  0.35603902753E+02  0.00000000000E+00 0.  1.
          6    2    1    2  501    0  0.66962134194E+02  0.55315438630E+02  0.44463834311E+03  0.48471030531E+03  0.17232846181E+03 0.  0.
         24    2    3    3    0    0  0.95459762125E+02  0.48521703701E+02  0.21687937652E+03  0.25502681332E+03  0.80839901285E+02 0.  0.
         -6    2    1    2    0  502 -0.66962134194E+02 -0.55315438630E+02  0.57998501608E+03  0.61112085937E+03  0.17187891297E+03 0.  0.
        -24    2    5    5    0    0 -0.10572915215E+03 -0.56655974577E+02  0.52005243458E+03  0.53957588721E+03  0.79366556373E+02 0.  0.
          5    1    3    3  501    0 -0.28497627932E+02  0.67937349287E+01  0.22775896659E+03  0.22968349199E+03  0.47000000000E+01 0. -1.
        -13    1    4    4    0    0  0.42870084283E+02  0.44205675278E+02  0.18107566847E+03  0.19125998945E+03  0.00000000000E+00 0.  1.
         14    1    4    4    0    0  0.52589677843E+02  0.43160284227E+01  0.35803708054E+02  0.63766823877E+02  0.00000000000E+00 0. -1.
         -5    1    5    5    0  502  0.38767017956E+02  0.13405359477E+01  0.59932581495E+02  0.71544972168E+02  0.47000000000E+01 0.  1.
         13    1    6    6    0    0 -0.44489563137E+02  0.11226816977E+02  0.10523506906E+03  0.11480323343E+03  0.00000000000E+00 0. -1.
        -14    1    6    6    0    0 -0.61239589013E+02 -0.67882791554E+02  0.41481736553E+03  0.42477265377E+03  0.00000000000E+00 0.  1.
</event>
<event>
12    1  0.8344842E-002  0.1964755E+03  0.7818608E-02  0.1154360E+00
         21   -1    0    0  501  502  0.00000000000E+00  0.00000000000E+00  0.17943904868E+03  0.17943904868E+03  0.00000000000E+00 0. -1.
         21   -1    0    0  502  503 -0.00000000000E+00 -0.00000000000E+00 -0.20939360826E+03  0.20939360826E+03  0.00000000000E+00 0. -1.
         -6    2    1    2    0  503 -0.79711411739E+02 -0.63177286690E+02 -0.34648801182E+02  0.19230108721E+03  0.15948006146E+03 0.  0.
        -24    2    3    3    0    0 -0.10667426644E+03 -0.75891342733E+02 -0.96659922626E+01  0.15312362562E+03  0.78832216100E+02 0.  0.
          6    2    1    2  501    0  0.79711411739E+02  0.63177286690E+02  0.46942415968E+01  0.19653156973E+03  0.16809920667E+03 0.  0.
         24    2    5    5    0    0 -0.68096560557E+01  0.34494737622E+02 -0.38460200514E+02  0.95571282158E+02  0.80115071057E+02 0.  0.
          5    1    5    5  501    0  0.86521067794E+02  0.28682549067E+02  0.43154442111E+02  0.10096028757E+03  0.47000000000E+01 0. -1.
        -13    1    6    6    0    0  0.60766553959E+01 -0.25454058048E+02 -0.11110708478E+02  0.28430312253E+02  0.00000000000E+00 0.  1.
         14    1    6    6    0    0 -0.12886311452E+02  0.59948795670E+02 -0.27349492036E+02  0.67140969905E+02  0.00000000000E+00 0. -1.
         -5    1    3    3    0  503  0.26962854702E+02  0.12714056044E+02 -0.24982808919E+02  0.39177461585E+02  0.47000000000E+01 0.  1.
         11    1    4    4    0    0 -0.37633611020E+01 -0.36853643204E+02  0.15597789227E+02  0.40195085931E+02  0.00000000000E+00 0. -1.
        -12    1    4    4    0    0 -0.10291090534E+03 -0.39037699529E+02 -0.25263781489E+02  0.11292853969E+03  0.00000000000E+00 0.  1.
</event>
<event>
12    1  0.8344842E-002  0.1737286E+03  0.7818608E-02  0.1174213E+00
         21   -1    0    0  503  502  0.00000000000E+00  0.00000000000E+00  0.13244694096E+03  0.13244694096E+03  0.00000000000E+00 0. -1.
         21   -1    0    0  501  503 -0.00000000000E+00 -0.00000000000E+00 -0.29176993545E+03  0.29176993545E+03  0.00000000000E+00 0. -1.
          6    2    1    2  501    0 -0.92698453484E+01 -0.16477228666E+02 -0.17957334696E+03  0.24931204691E+03  0.17190834970E+03 0.  0.
         24    2    3    3    0    0  0.53016701889E+02  0.22337771070E+01 -0.51873764980E+02  0.10592798593E+03  0.75591601853E+02 0.  0.
         -6    2    1    2    0  502  0.92698453484E+01  0.16477228666E+02  0.20250352470E+02  0.17490482950E+03  0.17269682542E+03 0.  0.
        -24    2    5    5    0    0  0.14644928979E+02  0.76307697868E+02  0.19527027136E+02  0.11464547530E+03  0.82005740768E+02 0.  0.
          5    1    3    3  501    0 -0.62286547237E+02 -0.18711005773E+02 -0.12769958198E+03  0.14338406098E+03  0.47000000000E+01 0. -1.
        -11    1    4    4    0    0 -0.18574646800E+02  0.81044139044E+01 -0.82025756144E+01  0.21862782879E+02  0.00000000000E+00 0.  1.
         12    1    4    4    0    0  0.71591348689E+02 -0.58706367974E+01 -0.43671189366E+02  0.84065203052E+02  0.00000000000E+00 0. -1.
         -5    1    5    5    0  502 -0.53750836307E+01 -0.59830469202E+02  0.72332533483E+00  0.60259354200E+02  0.47000000000E+01 0.  1.
         13    1    6    6    0    0  0.40891195096E+02  0.38042151795E+02 -0.13782283617E+02  0.57526050545E+02  0.00000000000E+00 0. -1.
        -14    1    6    6    0    0 -0.26246266117E+02  0.38265546073E+02  0.33309310753E+02  0.57119424753E+02  0.00000000000E+00 0.  1.
</event>
<event>
12    1  0.8344842E-002  0.1796503E+03  0.7818608E-02  0.1168187E+00
         21   -1    0    0  503  502  0.00000000000E+00  0.00000000000E+00  0.50394616810E+03  0.50394616810E+03  0.00000000000E+00 0. -1.
         21   -1    0    0  501  503 -0.00000000000E+00 -0.00000000000E+00 -0.42453972266E+03  0.42453972266E+03  0.00000000000E+00 0. -1.
          6    2    1    2  501    0  0.57627266631E+01  0.52155582915E+02 -0.38812863830E+03  0.42768920226E+03  0.17181618087E+03 0.  0.
         24    2    3    3    0    0 -0.23273230021E+02 -0.19452771293E+02 -0.10814152426E+03  0.13719700408E+03  0.78793242808E+02 0.  0.
         -6    2    1    2    0  502 -0.57627266631E+01 -0.52155582915E+02  0.46753508374E+03  0.50079668851E+03  0.17162416743E+03 0.  0.
        -24    2    5    5    0    0  0.24206013490E+02  0.32317879427E+02  0.21444634239E+03  0.23226383721E+03  0.79554257544E+02 0.  0.
          5    1    3    3  501    0  0.29035956684E+02  0.71608354208E+02 -0.27998711404E+03  0.29049219818E+03  0.47000000000E+01 0. -1.
        -11    1    4    4    0    0  0.24727377057E+02 -0.24472336158E+01 -0.10303786530E+02  0.26899816827E+02  0.00000000000E+00 0.  1.
         12    1    4    4    0    0 -0.48000607078E+02 -0.17005537677E+02 -0.97837737732E+02  0.11029718725E+03  0.00000000000E+00 0. -1.
         -5    1    5    5    0  502 -0.29968740153E+02 -0.84473462342E+02  0.25308874135E+03  0.26853285130E+03  0.47000000000E+01 0.  1.
         11    1    6    6    0    0  0.69937439896E+01  0.37703349906E+02  0.21028778397E+03  0.21375548446E+03  0.00000000000E+00 0. -1.
        -12    1    6    6    0    0  0.17212269500E+02 -0.53854704785E+01  0.41585584204E+01  0.18508352756E+02  0.00000000000E+00 0.  1.
</event>
<event>
12    1  0.8344842E-002  0.1928840E+03  0.7818608E-02  0.1157609E+00
         21   -1    0    0  501  502  0.00000000000E+00  0.00000000000E+00  0.13649827428E+03  0.13649827428E+03  0.00000000000E+00 0.  1.
         21   -1    0    0  502  503 -0.00000000000E+00 -0.00000000000E+00 -0.34442881420E+03  0.34442881420E+03  0.00000000000E+00 0.  1.
         -6    2    1    2    0  503  0.54888583421E+02 -0.66837443432E+02 -0.22325611699E+03  0.29503819965E+03  0.17240720705E+03 0.  0.
        -24    2    3    3    0    0  0.52753484786E+02 -0.47952801867E+02 -0.45728823852E+02  0.11643467745E+03  0.79896854867E+02 0.  0.
          6    2    1    2  501    0 -0.54888583421E+02  0.66837443432E+02  0.15325577069E+02  0.18588888883E+03  0.16382858495E+03 0.  0.
         24    2    5    5    0    0 -0.82500971473E+02  0.20290803392E+02  0.43816846263E+02  0.12454660250E+03  0.79836164616E+02 0.  0.
          5    1    5    5  501    0  0.27612388053E+02  0.46546640040E+02 -0.28491269194E+02  0.61342286338E+02  0.47000000000E+01 0. -1.
        -13    1    6    6    0    0 -0.86893114979E+01  0.20526578310E+02 -0.17698127850E+02  0.28461698488E+02  0.00000000000E+00 0.  1.
         14    1    6    6    0    0 -0.73811659975E+02 -0.23577491822E+00  0.61514974113E+02  0.96084904008E+02  0.00000000000E+00 0. -1.
         -5    1    3    3    0  503  0.21350986343E+01 -0.18884641564E+02 -0.17752729314E+03  0.17860352220E+03  0.47000000000E+01 0.  1.
         13    1    4    4    0    0  0.14230393448E+02  0.21892917148E+02 -0.40067942035E+01  0.26417008133E+02  0.00000000000E+00 0. -1.
        -14    1    4    4    0    0  0.38523091338E+02 -0.69845719015E+02 -0.41722029649E+02  0.90017669315E+02  0.00000000000E+00 0.  1.
</event>
<event>
12    1  0.8344842E-002  0.2089992E+03  0.7818608E-02  0.1142405E+00
         21   -1    0    0  503  502  0.00000000000E+00  0.00000000000E+00  0.49125311475E+02  0.49125311475E+02  0.00000000000E+00 0. -1.
         21   -1    0    0  501  503 -0.00000000000E+00 -0.00000000000E+00 -0.92587603475E+03  0.92587603475E+03  0.00000000000E+00 0. -1.
          6    2    1    2  501    0  0.33030116019E+02  0.11246714448E+03 -0.53645645524E+03  0.57565081120E+03  0.17276712916E+03 0.  0.
         24    2    3    3    0    0  0.11313935020E+02  0.11773650434E+03 -0.24570863555E+03  0.28400763311E+03  0.79358128145E+02 0.  0.
         -6    2    1    2    0  502 -0.33030116019E+02 -0.11246714448E+03 -0.34029426803E+03  0.39935053502E+03  0.17303414061E+03 0.  0.
        -24    2    5    5    0    0 -0.80851499007E+02 -0.10090305726E+03 -0.19769717832E+03  0.24843124275E+03  0.76912393054E+02 0.  0.
          5    1    3    3  501    0  0.21716180999E+02 -0.52693598658E+01 -0.29074781969E+03  0.29164317809E+03  0.47000000000E+01 0. -1.
        -11    1    4    4    0    0  0.91058459312E+01  0.39998543424E+02 -0.20720950773E+02  0.45958216970E+02  0.00000000000E+00 0.  1.
         12    1    4    4    0    0  0.22080890886E+01  0.77737960919E+02 -0.22498768477E+03  0.23804941614E+03  0.00000000000E+00 0. -1.
         -5    1    5    5    0  502  0.47821382987E+02 -0.11564087221E+02 -0.14259708971E+03  0.15091929227E+03  0.47000000000E+01 0.  1.
         13    1    6    6    0    0 -0.90103494627E+02 -0.98667233585E+02 -0.19804661144E+03  0.23890651525E+03  0.00000000000E+00 0. -1.
        -14    1    6    6    0    0  0.92519956203E+01 -0.22358236708E+01  0.34943312107E+00  0.95247275001E+01  0.00000000000E+00 0.  1.
</event>
<event>
12    1  0.8344842E-002  0.2944799E+03  0.7818608E-02  0.1088196E+00
         21   -1    0    0  503  502  0.00000000000E+00  0.00000000000E+00  0.14001642873E+04  0.14001642873E+04  0.00000000000E+00 0.  1.
         21   -1    0    0  501  503 -0.00000000000E+00 -0.00000000000E+00 -0.75770041217E+02  0.75770041217E+02  0.00000000000E+00 0.  1.
          6    2    1    2  501    0  0.16557688017E+03 -0.17195898307E+03  0.34265660778E+03  0.45098202390E+03  0.17025169580E+03 0.  0.
         24    2    3    3    0    0  0.17093331232E+03 -0.19262710772E+03  0.30298687575E+03  0.40568698685E+03  0.80358475171E+02 0.  0.
         -6    2    1    2    0  502 -0.16557688017E+03  0.17195898307E+03  0.98173763827E+03  0.10249523046E+04  0.17243213497E+03 0.  0.
        -24    2    5    5    0    0 -0.41908060156E+02  0.53732645446E+02  0.21060026374E+03  0.23504953566E+03  0.79071679099E+02 0.  0.
          5    1    3    3  501    0 -0.53564321558E+01  0.20668124651E+02  0.39669732035E+02  0.45295037055E+02  0.47000000000E+01 0. -1.
        -13    1    4    4    0    0  0.79249843075E+01 -0.26508999297E+02  0.58984234719E+01  0.28289995042E+02  0.00000000000E+00 0.  1.
         14    1    4    4    0    0  0.16300832802E+03 -0.16611810842E+03  0.29708845227E+03  0.37739699180E+03  0.00000000000E+00 0. -1.
         -5    1    5    5    0  502 -0.12366882001E+03  0.11822633762E+03  0.77113737453E+03  0.78990276892E+03  0.47000000000E+01 0.  1.
         11    1    6    6    0    0  0.21044189753E+02  0.11589191611E+02  0.85389572879E+02  0.88704827609E+02  0.00000000000E+00 0. -1.
        -12    1    6    6    0    0 -0.62952249909E+02  0.42143453835E+02  0.12521069086E+03  0.14634470805E+03  0.00000000000E+00 0.  1.
</event>
<event>
12    1  0.8344842E-002  0.1730124E+03  0.7818608E-02  0.1178162E+00
         21   -1    0    0  501  502  0.00000000000E+00  0.00000000000E+00  0.19107702081E+03  0.19107702081E+03  0.00000000000E+00 0. -1.
         21   -1    0    0  502  503 -0.00000000000E+00 -0.00000000000E+00 -0.14554892832E+03  0.14554892832E+03  0.00000000000E+00 0. -1.
         -6    2    1    2    0  503 -0.32657980198E+01 -0.19954913336E+02  0.13819777187E+02  0.16073195236E+03  0.15885499760E+03 0.  0.
        -24    2    3    3    0    0 -0.33394138696E+02  0.17449916741E+01 -0.38680777304E+02  0.96257143236E+02  0.81553795717E+02 0.  0.
          6    2    1    2  501    0  0.32657980198E+01  0.19954913336E+02  0.31708315302E+02  0.17589399677E+03  0.17182670584E+03 0.  0.
         24    2    5    5    0    0  0.26960581726E+02 -0.49586647124E+02  0.30838733820E+02  0.10227119067E+03  0.79515158292E+02 0.  0.
          5    1    5    5  501    0 -0.23694783707E+02  0.69541560460E+02  0.86958148238E+00  0.73622806100E+02  0.47000000000E+01 0. -1.
        -11    1    6    6    0    0 -0.12882309422E+02 -0.40149306135E+02  0.42326465163E+02  0.59744877039E+02  0.00000000000E+00 0.  1.
         12    1    6    6    0    0  0.39842891148E+02 -0.94373409884E+01 -0.11487731343E+02  0.42526313635E+02  0.00000000000E+00 0. -1.
         -5    1    3    3    0  503  0.30128340676E+02 -0.21699905010E+02  0.52500554490E+02  0.64474809121E+02  0.47000000000E+01 0.  1.
         13    1    4    4    0    0 -0.50132184010E+02 -0.34095366395E+01  0.37161762162E+01  0.50385223820E+02  0.00000000000E+00 0. -1.
        -14    1    4    4    0    0  0.16738045315E+02  0.51545283136E+01 -0.42396953520E+02  0.45871919415E+02  0.00000000000E+00 0.  1.
</event>
<event>
12    1  0.8344842E-002  0.2061283E+03  0.7818608E-02  0.1145177E+00
         21   -1    0    0  501  502  0.00000000000E+00  0.00000000000E+00  0.13182779408E+03  0.13182779408E+03  0.00000000000E+00 0.  1.
         21   -1    0    0  502  503 -0.00000000000E+00 -0.00000000000E+00 -0.35599844167E+03  0.35599844167E+03  0.00000000000E+00 0. -1.
         -6    2    1    2    0  503 -0.89199614036E+02 -0.62847754181E+02 -0.19192724549E+03  0.28164683250E+03  0.17487841304E+03 0.  0.
        -24    2    3    3    0    0 -0.71344035326E+02 -0.67022047061E+02 -0.45432930597E+02  0.13393454219E+03  0.79324550054E+02 0.  0.
          6    2    1    2  501    0  0.89199614036E+02  0.62847754181E+02 -0.32243402099E+02  0.20617940325E+03  0.17194155401E+03 0.  0.
         24    2    5    5    0    0  0.10833207660E+03  0.80577098379E+02 -0.59941514684E+02  0.16784330785E+03  0.79686154416E+02 0.  0.
          5    1    5    5  501    0 -0.19132462561E+02 -0.17729344198E+02  0.27698112585E+02  0.38336095395E+02  0.47000000000E+01 0. -1.
        -13    1    6    6    0    0  0.48705051803E+01  0.37617905043E+01  0.16780087285E+02  0.17873002484E+02  0.00000000000E+00 0.  1.
         14    1    6    6    0    0  0.10346157142E+03  0.76815307875E+02 -0.76721601969E+02  0.14997030537E+03  0.00000000000E+00 0. -1.
         -5    1    3    3    0  503 -0.17855578710E+02  0.41742928795E+01 -0.14649431489E+03  0.14771229030E+03  0.47000000000E+01 0.  1.
         11    1    4    4    0    0 -0.68263089454E+02 -0.74429613215E+02 -0.59879149799E+02  0.11741009022E+03  0.00000000000E+00 0. -1.
        -12    1    4    4    0    0 -0.30809458725E+01  0.74075661540E+01  0.14446219202E+02  0.16524451973E+02  0.00000000000E+00 0.  1.
</event>
<event>
12    1  0.8344842E-002  0.1778671E+03  0.7818608E-02  0.1170238E+00
         21   -1    0    0  503  502  0.00000000000E+00  0.00000000000E+00  0.87323976334E+02  0.87323976334E+02  0.00000000000E+00 0. -1.
         21   -1    0    0  501  503 -0.00000000000E+00 -0.00000000000E+00 -0.38058635453E+03  0.38058635453E+03  0.00000000000E+00 0. -1.
          6    2    1    2  501    0  0.41898411547E+02 -0.15634851160E+02 -0.90832292507E+02  0.19843929627E+03  0.17066846071E+03 0.  0.
         24    2    3    3    0    0  0.61771197083E+02  0.21345127923E+01 -0.12134172435E+03  0.15765212511E+03  0.79436399402E+02 0.  0.
         -6    2    1    2    0  502 -0.41898411547E+02  0.15634851160E+02 -0.20243008568E+03  0.26947103459E+03  0.17215334278E+03 0.  0.
        -24    2    5    5    0    0 -0.84438804847E+02  0.32581488045E+02 -0.18288495498E+03  0.21946127856E+03  0.80776734890E+02 0.  0.
          5    1    3    3  501    0 -0.19872785535E+02 -0.17769363953E+02  0.30509431842E+02  0.40787171164E+02  0.47000000000E+01 0. -1.
        -13    1    4    4    0    0 -0.45298561013E+01  0.17608064957E+02 -0.70158177825E+02  0.72475743967E+02  0.00000000000E+00 0.  1.
         14    1    4    4    0    0  0.66301053184E+02 -0.15473552165E+02 -0.51183546524E+02  0.85176381143E+02  0.00000000000E+00 0. -1.
         -5    1    5    5    0  502  0.42540393300E+02 -0.16946636885E+02 -0.19545130700E+02  0.50009756027E+02  0.47000000000E+01 0.  1.
         11    1    6    6    0    0 -0.20676484098E+02  0.24686364606E+02 -0.13642498370E+03  0.14017385551E+03  0.00000000000E+00 0. -1.
        -12    1    6    6    0    0 -0.63762320749E+02  0.78951234394E+01 -0.46459971287E+02  0.79287423047E+02  0.00000000000E+00 0.  1.
</event>
<event>
12    1  0.8344842E-002  0.1984343E+03  0.7818608E-02  0.1151086E+00
         21   -1    0    0  501  502  0.00000000000E+00  0.00000000000E+00  0.32903139686E+03  0.32903139686E+03  0.00000000000E+00 0.  1.
         21   -1    0    0  502  503 -0.00000000000E+00 -0.00000000000E+00 -0.12527140831E+03  0.12527140831E+03  0.00000000000E+00 0.  1.
         -6    2    1    2    0  503  0.97950024182E+02 -0.12401711579E+02  0.53601554651E+02  0.20545801531E+03  0.17202284647E+03 0.  0.
        -24    2    3    3    0    0  0.11528116068E+03 -0.55086368655E+02  0.52291110460E+02  0.15913139763E+03  0.79146620005E+02 0.  0.
          6    2    1    2  501    0 -0.97950024182E+02  0.12401711579E+02  0.15015843391E+03  0.24884478986E+03  0.17212833723E+03 0.  0.
         24    2    5    5    0    0 -0.63496613161E+02 -0.58565401021E+02  0.72626323245E+02  0.13813486805E+03  0.79655086872E+02 0.  0.
          5    1    5    5  501    0 -0.34453411021E+02  0.70967112600E+02  0.77532110662E+02  0.11070992180E+03  0.47000000000E+01 0. -1.
        -13    1    6    6    0    0 -0.12103979189E+02  0.19867580074E+02  0.19530255839E+02  0.30375285074E+02  0.00000000000E+00 0.  1.
         14    1    6    6    0    0 -0.51392633972E+02 -0.78432981095E+02  0.53096067407E+02  0.10775958298E+03  0.00000000000E+00 0. -1.
         -5    1    3    3    0  503 -0.17331136500E+02  0.42684657076E+02  0.13104441907E+01  0.46326617684E+02  0.47000000000E+01 0.  1.
         13    1    4    4    0    0  0.20882978262E+02  0.20507008091E+02  0.80177616856E+01  0.30346674684E+02  0.00000000000E+00 0. -1.
        -14    1    4    4    0    0  0.94398182419E+02 -0.75593376746E+02  0.44273348774E+02  0.12878472294E+03  0.00000000000E+00 0.  1.
</event>
<event>
12    1  0.8344842E-002  0.1902620E+03  0.7818608E-02  0.1158442E+00
         21   -1    0    0  501  502  0.00000000000E+00  0.00000000000E+00  0.62949957930E+02  0.62949957930E+02  0.00000000000E+00 0. -1.
         21   -1    0    0  502  503 -0.00000000000E+00 -0.00000000000E+00 -0.61394423411E+03  0.61394423411E+03  0.00000000000E+00 0. -1.
         -6    2    1    2    0  503 -0.80540485682E+02  0.33051151704E+00 -0.36314762904E+03  0.40952556055E+03  0.17131288682E+03 0.  0.
        -24    2    3    3    0    0  0.21842498428E+02 -0.16922691029E+02 -0.14411404988E+03  0.16708433626E+03  0.79905217862E+02 0.  0.
          6    2    1    2  501    0  0.80540485682E+02 -0.33051151704E+00 -0.18784664714E+03  0.26736863150E+03  0.17237384719E+03 0.  0.
         24    2    5    5    0    0  0.10090111788E+03 -0.28111754989E+00 -0.20284053982E+03  0.24164967737E+03  0.84078340619E+02 0.  0.
          5    1    5    5  501    0 -0.20360632201E+02 -0.49393967148E-01  0.14993892682E+02  0.25718954123E+02  0.47000000000E+01 0. -1.
        -11    1    6    6    0    0  0.60841061578E+01 -0.27126243015E+01 -0.10560710840E+03  0.10581699307E+03  0.00000000000E+00 0.  1.
         12    1    6    6    0    0  0.94817011725E+02  0.24315067516E+01 -0.97233431421E+02  0.13583268430E+03  0.00000000000E+00 0. -1.
         -5    1    3    3    0  503 -0.10238298411E+03  0.17253202546E+02 -0.21903357917E+03  0.24244122429E+03  0.47000000000E+01 0.  1.
         11    1    4    4    0    0  0.13111478137E+02 -0.49276234385E+02 -0.84249914083E+02  0.98478963018E+02  0.00000000000E+00 0. -1.
        -12    1    4    4    0    0  0.87310202917E+01  0.32353543356E+02 -0.59864135792E+02  0.68605373238E+02  0.00000000000E+00 0.  1.
</event>
<event>
12    1  0.8344842E-002  0.1987289E+03  0.7818608E-02  0.1151251E+00
         21   -1    0    0  503  502  0.00000000000E+00  0.00000000000E+00  0.60270861598E+02  0.60270861598E+02  0.00000000000E+00 0. -1.
         21   -1    0    0  501  503 -0.00000000000E+00 -0.00000000000E+00 -0.67824329428E+03  0.67824329428E+03  0.00000000000E+00 0. -1.
          6    2    1    2  501    0  0.48544469755E+02 -0.86398736746E+02 -0.38773444561E+03  0.43569620246E+03  0.17225525615E+03 0.  0.
         24    2    3    3    0    0  0.70911197871E+02 -0.71857772904E+02 -0.38756228773E+03  0.40860690947E+03  0.81013221704E+02 0.  0.
         -6    2    1    2    0  502 -0.48544469755E+02  0.86398736746E+02 -0.23023798708E+03  0.30281795342E+03  0.16990548833E+03 0.  0.
        -24    2    5    5    0    0 -0.50936481550E+02  0.57993369685E+00 -0.60768356418E+02  0.11278470793E+03  0.80204337319E+02 0.  0.
          5    1    3    3  501    0 -0.22366728116E+02 -0.14540963842E+02 -0.17215787961E+00  0.27089292985E+02  0.47000000000E+01 0. -1.
        -11    1    4    4    0    0 -0.13647848682E+02 -0.30373679927E+02 -0.72785399965E+02  0.80040856155E+02  0.00000000000E+00 0.  1.
         12    1    4    4    0    0  0.84559046553E+02 -0.41484092977E+02 -0.31477688776E+03  0.32856605332E+03  0.00000000000E+00 0. -1.
         -5    1    5    5    0  502  0.23920117949E+01  0.85818803049E+02 -0.16946963066E+03  0.19003324549E+03  0.47000000000E+01 0.  1.
         13    1    6    6    0    0 -0.69029663430E+02  0.14257549355E+02 -0.54933948860E+02  0.89365042854E+02  0.00000000000E+00 0. -1.
        -14    1    6    6    0    0  0.18093181880E+02 -0.13677615658E+02 -0.58344075577E+01  0.23419665074E+02  0.00000000000E+00 0.  1.
</event>
<event>
12    1  0.8344842E-002  0.2272861E+03  0.7818608E-02  0.1129071E+00
         21   -1    0    0  503  502  0.00000000000E+00  0.00000000000E+00  0.17481082348E+03  0.17481082348E+03  0.00000000000E+00 0. -1.
         21   -1    0    0  501  503 -0.00000000000E+00 -0.00000000000E+00 -0.49034251982E+03  0.49034251982E+03  0.00000000000E+00 0. -1.
          6    2    1    2  501    0  0.13397317869E+03 -0.52569470321E+02 -0.36994164688E+03  0.43418406634E+03  0.17591651299E+03 0.  0.
         24    2    3    3    0    0  0.12931263290E+02 -0.66214892726E+02 -0.12564427131E+03  0.16116274748E+03  0.75068759640E+02 0.  0.
         -6    2    1    2    0  502 -0.13397317869E+03  0.52569470321E+02  0.54409950546E+02  0.23096927696E+03  0.17226143609E+03 0.  0.
        -24    2    5    5    0    0 -0.11702698949E+03  0.37895381519E+02  0.10146352492E+03  0.17863734529E+03  0.80529982194E+02 0.  0.
          5    1    3    3  501    0  0.12104191540E+03  0.13645422405E+02 -0.24429737557E+03  0.27302131885E+03  0.47000000000E+01 0. -1.
        -13    1    4    4    0    0 -0.19537383872E+02  0.59600918125E+01 -0.37501124093E+02  0.42703236074E+02  0.00000000000E+00 0.  1.
         14    1    4    4    0    0  0.32468647162E+02 -0.72174984539E+02 -0.88143147221E+02  0.11845951141E+03  0.00000000000E+00 0. -1.
         -5    1    5    5    0  502 -0.16946189197E+02  0.14674088802E+02 -0.47053574378E+02  0.52331931669E+02  0.47000000000E+01 0.  1.
         13    1    6    6    0    0 -0.90288349543E+02  0.78375924832E-01  0.33311976690E+02  0.96237622565E+02  0.00000000000E+00 0. -1.
        -14    1    6    6    0    0 -0.26738639951E+02  0.37817005594E+02  0.68151548235E+02  0.82399722726E+02  0.00000000000E+00 0.  1.
</event>
<event>
12    1  0.8344842E-002  0.1773749E+03  0.7818608E-02  0.1170497E+00
         21   -1    0    0  501  502  0.00000000000E+00  0.00000000000E+00  0.12484914165E+02  0.12484914165E+02  0.00000000000E+00 0.  1.
         21   -1    0    0  502  503 -0.00000000000E+00 -0.00000000000E+00 -0.27931830793E+04  0.27931830793E+04  0.00000000000E+00 0.  1.
         -6    2    1    2    0  503  0.10977093413E+02 -0.37639388696E+02 -0.94757096766E+03  0.96402936223E+03  0.17298743404E+03 0.  0.
        -24    2    3    3    0    0  0.51060704226E+01  0.43485187390E+02 -0.49616949897E+03  0.50533442909E+03  0.85215491770E+02 0.  0.
          6    2    1    2  501    0 -0.10977093413E+02  0.37639388696E+02 -0.18331271974E+04  0.18416386312E+04  0.17245377863E+03 0.  0.
         24    2    5    5    0    0  0.76925999232E+01  0.88826330832E+02 -0.14072484569E+04  0.14122629773E+04  0.78671497589E+02 0.  0.
          5    1    5    5  501    0 -0.18669693337E+02 -0.51186942135E+02 -0.42587874057E+03  0.42937565390E+03  0.47000000000E+01 0. -1.
        -13    1    6    6    0    0 -0.12679939321E+01  0.48318790280E+01 -0.69572322277E+03  0.69574115702E+03  0.00000000000E+00 0.  1.
         14    1    6    6    0    0  0.89605938554E+01  0.83994451804E+02 -0.71152523411E+03  0.71652182029E+03  0.00000000000E+00 0. -1.
         -5    1    3    3    0  503  0.58710229907E+01 -0.81124576087E+02 -0.45140146869E+03  0.45869493314E+03  0.47000000000E+01 0.  1.
         13    1    4    4    0    0 -0.32430463420E+02 -0.24513925643E+01 -0.25057995944E+03  0.25268173728E+03  0.00000000000E+00 0. -1.
        -14    1    4    4    0    0  0.37536533843E+02  0.45936579955E+02 -0.24558953953E+03  0.25265269181E+03  0.00000000000E+00 0.  1.
</event>
<event>
12    1  0.8344842E-002  0.1776212E+03  0.7818608E-02  0.1170271E+00
         21   -1    0    0  503  502  0.00000000000E+00  0.00000000000E+00  0.35567242563E+03  0.35567242563E+03  0.00000000000E+00 0.  1.
         21   -1    0    0  501  503 -0.00000000000E+00 -0.00000000000E+00 -0.90918442488E+02  0.90918442488E+02  0.00000000000E+00 0.  1.
          6    2    1    2  501    0  0.35000088508E+02  0.27316422864E+02  0.95061313841E+02  0.20093888622E+03  0.17137266250E+03 0.  0.
         24    2    3    3    0    0  0.34305474344E+02  0.64884044067E+02  0.11487160975E+03  0.15820311109E+03  0.80286567288E+02 0.  0.
         -6    2    1    2    0  502 -0.35000088508E+02 -0.27316422864E+02  0.16969266930E+03  0.24565198190E+03  0.17198285101E+03 0.  0.
        -24    2    5    5    0    0 -0.70331989897E+02 -0.28183800370E+02  0.17727434557E+03  0.20920109145E+03  0.81227998007E+02 0.  0.
          5    1    3    3  501    0  0.69461416402E+00 -0.37567621203E+02 -0.19810295913E+02  0.42735775128E+02  0.47000000000E+01 0. -1.
        -11    1    4    4    0    0  0.15678895279E+02  0.64504931012E+02  0.32801470483E+02  0.74044921149E+02  0.00000000000E+00 0.  1.
         12    1    4    4    0    0  0.18626579065E+02  0.37911305475E+00  0.82070139271E+02  0.84158189942E+02  0.00000000000E+00 0. -1.
         -5    1    5    5    0  502  0.35331901389E+02  0.86737750539E+00 -0.75816762695E+01  0.36450890449E+02  0.47000000000E+01 0.  1.
         13    1    6    6    0    0 -0.29430597813E+02  0.27309080069E+02  0.85134033805E+02  0.94126243173E+02  0.00000000000E+00 0. -1.
        -14    1    6    6    0    0 -0.40901392084E+02 -0.55492880439E+02  0.92140311763E+02  0.11507484828E+03  0.00000000000E+00 0.  1.
</event>
<event>
12    1  0.8344842E-002  0.1770386E+03  0.7818608E-02  0.1170767E+00
         21   -1    0    0  503  502  0.00000000000E+00  0.00000000000E+00  0.19910887674E+03  0.19910887674E+03  0.00000000000E+00 0.  1.
         21   -1    0    0  501  503 -0.00000000000E+00 -0.00000000000E+00 -0.16120549239E+03  0.16120549239E+03  0.00000000000E+00 0.  1.
          6    2    1    2  501    0 -0.36470974424E+02  0.50812617658E+01  0.47452776585E+02  0.18328784370E+03  0.17316673019E+03 0.  0.
         24    2    3    3    0    0 -0.37163109336E+02  0.30043831944E+01 -0.39086441117E+02  0.96593445516E+02  0.80077592518E+02 0.  0.
         -6    2    1    2    0  502  0.36470974424E+02 -0.50812617658E+01 -0.95493922382E+01  0.17702652543E+03  0.17289085753E+03 0.  0.
        -24    2    5    5    0    0  0.95278559515E+01  0.60432542391E+02 -0.15872463918E+02  0.10575197595E+03  0.84786042998E+02 0.  0.
          5    1    3    3  501    0  0.69213491211E+00  0.20768785714E+01  0.86539217702E+02  0.86694398180E+02  0.47000000000E+01 0. -1.
        -13    1    4    4    0    0 -0.48704727537E+02  0.27137018981E+02 -0.92426142518E+01  0.56515433307E+02  0.00000000000E+00 0.  1.
         14    1    4    4    0    0  0.11541618201E+02 -0.24132635787E+02 -0.29843826865E+02  0.40078012209E+02  0.00000000000E+00 0. -1.
         -5    1    5    5    0  502  0.26943118473E+02 -0.65513804157E+02  0.63230716798E+01  0.71274549481E+02  0.47000000000E+01 0.  1.
         11    1    6    6    0    0  0.16379207374E+02  0.63056535601E+01 -0.41807897736E+02  0.45342474724E+02  0.00000000000E+00 0. -1.
        -12    1    6    6    0    0 -0.68513514230E+01  0.54126888831E+02  0.25935433818E+02  0.60409501225E+02  0.00000000000E+00 0.  1.
</event>
<event>
12    1  0.8344842E-002  0.2378127E+03  0.7818608E-02  0.1121878E+00
         21   -1    0    0  503  502  0.00000000000E+00  0.00000000000E+00  0.83539666164E+03  0.83539666164E+03  0.00000000000E+00 0.  1.
         21   -1    0    0  501  503 -0.00000000000E+00 -0.00000000000E+00 -0.13027720762E+03  0.13027720762E+03  0.00000000000E+00 0. -1.
          6    2    1    2  501    0  0.12514258836E+03  0.10076427963E+03  0.16563234045E+02  0.23838882072E+03  0.17533049265E+03 0.  0.
         24    2    3    3    0    0  0.16324874753E+01  0.46516374974E+02  0.42073351612E+02  0.10101911417E+03  0.79172320640E+02 0.  0.
         -6    2    1    2    0  502 -0.12514258836E+03 -0.10076427963E+03  0.68855621997E+03  0.72728504854E+03  0.17035188961E+03 0.  0.
        -24    2    5    5    0    0 -0.14033740499E+03 -0.38814309454E+02  0.55084627930E+03  0.57544698013E+03  0.80662665881E+02 0.  0.
          5    1    3    3  501    0  0.12351010088E+03  0.54247904651E+02 -0.25510117566E+02  0.13736970655E+03  0.47000000000E+01 0. -1.
        -11    1    4    4    0    0 -0.11871533533E+01 -0.15937162866E+02  0.34529428857E+02  0.38048442156E+02  0.00000000000E+00 0.  1.
         12    1    4    4    0    0  0.28196408286E+01  0.62453537841E+02  0.75439227545E+01  0.62970672013E+02  0.00000000000E+00 0. -1.
         -5    1    5    5    0  502  0.15194816631E+02 -0.61949970172E+02  0.13770994068E+03  0.15183806841E+03  0.47000000000E+01 0.  1.
         13    1    6    6    0    0 -0.51250021931E+02  0.35744676510E+01  0.32439302887E+03  0.32843595836E+03  0.00000000000E+00 0. -1.
        -14    1    6    6    0    0 -0.89087383059E+02 -0.42388777105E+02  0.22645325043E+03  0.24701102177E+03  0.00000000000E+00 0.  1.
</event>
<event>
12    1  0.8344842E-002  0.1896269E+03  0.7818608E-02  0.1159288E+00
         21   -1    0    0  501  502  0.00000000000E+00  0.00000000000E+00  0.71360613634E+02  0.71360613634E+02  0.00000000000E+00 0. -1.
         21   -1    0    0  502  503 -0.00000000000E+00 -0.00000000000E+00 -0.12018801137E+04  0.12018801137E+04  0.00000000000E+00 0. -1.
         -6    2    1    2    0  503 -0.41861365142E+02  0.67608829757E+02 -0.10537196769E+04  0.10706463123E+04  0.17214831038E+03 0.  0.
        -24    2    3    3    0    0 -0.26108036531E+01  0.17364846848E+02 -0.90695180586E+03  0.91055895374E+03  0.79042241113E+02 0.  0.
          6    2    1    2  501    0  0.41861365142E+02 -0.67608829757E+02 -0.76799823153E+02  0.20259441504E+03  0.16977325000E+03 0.  0.
         24    2    5    5    0    0  0.56826486949E+02  0.18906780299E+02 -0.46190613490E+02  0.10949275356E+03  0.79173065790E+02 0.  0.
          5    1    5    5  501    0 -0.14965121807E+02 -0.86515610056E+02 -0.30609209663E+02  0.93101661479E+02  0.47000000000E+01 0. -1.
        -13    1    6    6    0    0  0.17621027119E+02  0.47119058358E+02 -0.29885998485E+02  0.58513922811E+02  0.00000000000E+00 0.  1.
         14    1    6    6    0    0  0.39205459830E+02 -0.28212278059E+02 -0.16304615005E+02  0.50978830746E+02  0.00000000000E+00 0. -1.
         -5    1    3    3    0  503 -0.39250561489E+02  0.50243982909E+02 -0.14676787102E+03  0.16008735853E+03  0.47000000000E+01 0.  1.
         11    1    4    4    0    0 -0.64470323400E+00  0.47087105656E+02 -0.68507245269E+03  0.68668906835E+03  0.00000000000E+00 0. -1.
        -12    1    4    4    0    0 -0.19661004192E+01 -0.29722258809E+02 -0.22187935318E+03  0.22386988539E+03  0.00000000000E+00 0.  1.
</event>
<event>
12    1  0.8344842E-002  0.1734767E+03  0.7818608E-02  0.1174694E+00
         21   -1    0    0  503  502  0.00000000000E+00  0.00000000000E+00  0.15035832242E+03  0.15035832242E+03  0.00000000000E+00 0. -1.
         21   -1    0    0  501  503 -0.00000000000E+00 -0.00000000000E+00 -0.21834858074E+03  0.21834858074E+03  0.00000000000E+00 0. -1.
          6    2    1    2  501    0  0.19924925068E+02 -0.45709969751E+01 -0.89796545141E+02  0.19386498497E+03  0.17059400993E+03 0.  0.
         24    2    3    3    0    0  0.15453755150E+01 -0.70284193615E+02 -0.32118380733E+02  0.10439491900E+03  0.70174444598E+02 0.  0.
         -6    2    1    2    0  502 -0.19924925068E+02  0.45709969751E+01  0.21806286821E+02  0.17484191820E+03  0.17226806310E+03 0.  0.
        -24    2    5    5    0    0 -0.53981539076E+02  0.39729786252E+02 -0.24840336807E+02  0.10706293240E+03  0.79705499709E+02 0.  0.
          5    1    3    3  501    0  0.18379549553E+02  0.65713196640E+02 -0.57678164408E+02  0.89470065966E+02  0.47000000000E+01 0. -1.
        -13    1    4    4    0    0 -0.97819342629E+01 -0.94591512941E+01  0.19527914979E+02  0.23801286616E+02  0.00000000000E+00 0.  1.
         14    1    4    4    0    0  0.11327309778E+02 -0.60825042321E+02 -0.51646295712E+02  0.80593632384E+02  0.00000000000E+00 0. -1.
         -5    1    5    5    0  502  0.34056614008E+02 -0.35158789277E+02  0.46646623628E+02  0.67778985807E+02  0.47000000000E+01 0.  1.
         13    1    6    6    0    0 -0.12289118022E+02 -0.10401207730E+02  0.21652354270E+02  0.26982067924E+02  0.00000000000E+00 0. -1.
        -14    1    6    6    0    0 -0.41692421054E+02  0.50130993982E+02 -0.46492691077E+02  0.80080864472E+02  0.00000000000E+00 0.  1.
</event>
<event>
12    1  0.8344842E-002  0.1946472E+03  0.7818608E-02  0.1154354E+00
         21   -1    0    0  501  502  0.00000000000E+00  0.00000000000E+00  0.28910352078E+04  0.28910352078E+04  0.00000000000E+00 0. -1.
         21   -1    0    0  502  503 -0.00000000000E+00 -0.00000000000E+00 -0.30046474980E+02  0.30046474980E+02  0.00000000000E+00 0. -1.
         -6    2    1    2    0  503  0.66780474428E+02 -0.66185086174E+02  0.33373902944E+03  0.38635382661E+03  0.17043310174E+03 0.  0.
        -24    2    3    3    0    0  0.49309524886E+02 -0.91722230664E+02  0.14072195387E+03  0.19081594975E+03  0.75918782491E+02 0.  0.
          6    2    1    2  501    0 -0.66780474428E+02  0.66185086174E+02  0.25272497034E+04  0.25347278562E+04  0.17033538742E+03 0.  0.
         24    2    5    5    0    0 -0.39631462676E+02  0.79871392261E+01  0.76161771681E+03  0.76792213061E+03  0.89489691555E+02 0.  0.
          5    1    5    5  501    0 -0.27149011752E+02  0.58197946948E+02  0.17656319866E+04  0.17668057256E+04  0.47000000000E+01 0. -1.
        -11    1    6    6    0    0 -0.43835782665E+02  0.76944480026E+00  0.75720888314E+03  0.75847706662E+03  0.00000000000E+00 0.  1.
         12    1    6    6    0    0  0.42043199892E+01  0.72176944259E+01  0.44088336715E+01  0.94450639881E+01  0.00000000000E+00 0. -1.
         -5    1    3    3    0  503  0.17470949542E+02  0.25537144490E+02  0.19301707556E+03  0.19553787686E+03  0.47000000000E+01 0.  1.
         13    1    4    4    0    0 -0.11073358630E+02 -0.54308896399E+02  0.80235428691E+02  0.97518200951E+02  0.00000000000E+00 0. -1.
        -14    1    4    4    0    0  0.60382883516E+02 -0.37413334265E+02  0.60486525181E+02  0.93297748799E+02  0.00000000000E+00 0.  1.
</event>
<event>
12    1  0.8344842E-002  0.2248712E+03  0.7818608E-02  0.1130874E+00
         21   -1    0    0  503  502  0.00000000000E+00  0.00000000000E+00  0.12934353059E+04  0.12934353059E+04  0.00000000000E+00 0. -1.
         21   -1    0    0  501  503 -0.00000000000E+00 -0.00000000000E+00 -0.38659068625E+02  0.38659068625E+02  0.00000000000E+00 0.  1.
          6    2    1    2  501    0 -0.58531902860E+02 -0.12842494593E+03  0.59688332169E+03  0.63783756981E+03  0.17506603143E+03 0.  0.
         24    2    3    3    0    0 -0.39064991464E+02 -0.50466044202E+02  0.13407745515E+03  0.16808453778E+03  0.78757556371E+02 0.  0.
         -6    2    1    2    0  502  0.58531902860E+02  0.12842494593E+03  0.65789291557E+03  0.69425680470E+03  0.17102769403E+03 0.  0.
        -24    2    5    5    0    0  0.34127695267E+02  0.78992229286E+01  0.40231177277E+03  0.41059181601E+03  0.74187462262E+02 0.  0.
          5    1    3    3  501    0 -0.19466911396E+02 -0.77958901733E+02  0.46280586654E+03  0.46975303203E+03  0.47000000000E+01 0. -1.
        -13    1    4    4    0    0 -0.43592514918E+02 -0.65350198587E+02  0.13018146885E+03  0.15204660681E+03  0.00000000000E+00 0.  1.
         14    1    4    4    0    0  0.45275234544E+01  0.14884154385E+02  0.38959863021E+01  0.16037930966E+02  0.00000000000E+00 0. -1.
         -5    1    5    5    0  502  0.24404207593E+02  0.12052572301E+03  0.25558114280E+03  0.28366498869E+03  0.47000000000E+01 0.  1.
         11    1    6    6    0    0 -0.15600150915E+01  0.32216129725E+02  0.25648578742E+03  0.25850584483E+03  0.00000000000E+00 0. -1.
        -12    1    6    6    0    0  0.35687710358E+02 -0.24316906797E+02  0.14582598535E+03  0.15208597118E+03  0.00000000000E+00 0.  1.
</event>
<event>
12    1  0.8344842E-002  0.1840773E+03  0.7818608E-02  0.1165233E+00
         21   -1    0    0  503  502  0.00000000000E+00  0.00000000000E+00  0.29222270337E+03  0.29222270337E+03  0.00000000000E+00 0. -1.
         21   -1    0    0  501  503 -0.00000000000E+00 -0.00000000000E+00 -0.13740189177E+03  0.13740189177E+03  0.00000000000E+00 0. -1.
          6    2    1    2  501    0  0.71349067181E+02  0.55478724181E+01 -0.14990126199E+02  0.17918455384E+03  0.16358768956E+03 0.  0.
         24    2    3    3    0    0  0.12339208044E+02 -0.50394440633E+02  0.52056170850E+01  0.95269931085E+02  0.79733340691E+02 0.  0.
         -6    2    1    2    0  502 -0.71349067181E+02 -0.55478724181E+01  0.16981093779E+03  0.25044004131E+03  0.16959655486E+03 0.  0.
        -24    2    5    5    0    0 -0.22618557265E+02 -0.15840536901E+02  0.18200404772E+03  0.19894864913E+03  0.75449121028E+02 0.  0.
          5    1    3    3  501    0  0.59009859137E+02  0.55942313051E+02 -0.20195743284E+02  0.83914622752E+02  0.47000000000E+01 0. -1.
        -13    1    4    4    0    0 -0.42365208695E+01 -0.92095551901E+01 -0.34346574875E+02  0.35811328117E+02  0.00000000000E+00 0.  1.
         14    1    4    4    0    0  0.16575728914E+02 -0.41184885443E+02  0.39552191960E+02  0.59458602967E+02  0.00000000000E+00 0. -1.
         -5    1    5    5    0  502 -0.48730509916E+02  0.10292664483E+02 -0.12193109921E+02  0.51491392177E+02  0.47000000000E+01 0.  1.
         11    1    6    6    0    0 -0.45937711163E+02 -0.24386490519E+02  0.14776326722E+03  0.15664915373E+03  0.00000000000E+00 0. -1.
        -12    1    6    6    0    0  0.23319153897E+02  0.85459536179E+01  0.34240780500E+02  0.42299495399E+02  0.00000000000E+00 0.  1.
</event>
<event>
12    1  0.8344842E-002  0.1862467E+03  0.7818608E-02  0.1163322E+00
         21   -1    0    0  503  502  0.00000000000E+00  0.00000000000E+00  0.29000880903E+03  0.29000880903E+03  0.00000000000E+00 0. -1.
         21   -1    0    0  501  503 -0.00000000000E+00 -0.00000000000E+00 -0.62223096146E+03  0.62223096146E+03  0.00000000000E+00 0. -1.
          6    2    1    2  501    0  0.33737879015E+02  0.52770623573E+02 -0.57710674177E+03  0.60457711555E+03  0.16893286852E+03 0.  0.
         24    2    3    3    0    0  0.77457008691E+02  0.25620916829E+02 -0.26832700171E+03  0.29150286439E+03  0.79489122047E+02 0.  0.
         -6    2    1    2    0  502 -0.33737879015E+02 -0.52770623573E+02  0.24488458933E+03  0.30766265494E+03  0.17539915610E+03 0.  0.
        -24    2    5    5    0    0  0.13495268052E+02  0.32492904107E+02  0.14277885473E+03  0.16642345934E+03  0.77929810634E+02 0.  0.
          5    1    3    3  501    0 -0.43719129676E+02  0.27149706744E+02 -0.30877974006E+03  0.31307425117E+03  0.47000000000E+01 0. -1.
        -13    1    4    4    0    0  0.33022836380E+02 -0.14464074297E+02 -0.18749436823E+03  0.19092892731E+03  0.00000000000E+00 0.  1.
         14    1    4    4    0    0  0.44434172311E+02  0.40084991126E+02 -0.80832633482E+02  0.10057393707E+03  0.00000000000E+00 0. -1.
         -5    1    5    5    0  502 -0.47233147067E+02 -0.85263527680E+02  0.10210573461E+03  0.14123919560E+03  0.47000000000E+01 0.  1.
         11    1    6    6    0    0  0.19736638909E+02 -0.19833390779E+02  0.25532263744E+02  0.37878685261E+02  0.00000000000E+00 0. -1.
        -12    1    6    6    0    0 -0.62413708565E+01  0.52326294886E+02  0.11724659098E+03  0.12854477408E+03  0.00000000000E+00 0.  1.
</event>
<event>
12    1  0.8344842E-002  0.1994156E+03  0.7818608E-02  0.1150452E+00
         21   -1    0    0  503  502  0.00000000000E+00  0.00000000000E+00  0.28603221368E+03  0.28603221368E+03  0.00000000000E+00 0.  1.
         21   -1    0    0  501  503 -0.00000000000E+00 -0.00000000000E+00 -0.25510725507E+03  0.25510725507E+03  0.00000000000E+00 0.  1.
          6    2    1    2  501    0  0.13645380044E+02  0.10078778561E+03 -0.16759318723E+03  0.26048813624E+03  0.17152906049E+03 0.  0.
         24    2    3    3    0    0  0.18853625770E+02  0.13840245080E+03 -0.14765830348E+03  0.21734328195E+03  0.76970319153E+02 0.  0.
         -6    2    1    2    0  502 -0.13645380044E+02 -0.10078778561E+03  0.19851814584E+03  0.28065133251E+03  0.17032716193E+03 0.  0.
        -24    2    5    5    0    0  0.10466343248E+02  0.42492722473E+01  0.37652194973E+02  0.86965755171E+02  0.77574184692E+02 0.  0.
          5    1    3    3  501    0 -0.52082457254E+01 -0.37614665197E+02 -0.19934883747E+02  0.43144854287E+02  0.47000000000E+01 0. -1.
        -11    1    4    4    0    0  0.39258147604E+02  0.69868757094E+02 -0.44038063045E+02  0.91445045617E+02  0.00000000000E+00 0.  1.
         12    1    4    4    0    0 -0.20404521835E+02  0.68533693710E+02 -0.10362024043E+03  0.12589823634E+03  0.00000000000E+00 0. -1.
         -5    1    5    5    0  502 -0.24111723292E+02 -0.10503705785E+03  0.16086595086E+03  0.19368557734E+03  0.47000000000E+01 0.  1.
         13    1    6    6    0    0 -0.34096649368E+01  0.19889733368E+02  0.55764232207E+02  0.59303262154E+02  0.00000000000E+00 0. -1.
        -14    1    6    6    0    0  0.13876008184E+02 -0.15640461121E+02 -0.18112037233E+02  0.27662493018E+02  0.00000000000E+00 0.  1.
</event>
<event>
12    1  0.8344842E-002  0.1918857E+03  0.7818608E-02  0.1156872E+00
         21   -1    0    0  501  502  0.00000000000E+00  0.00000000000E+00  0.29636426761E+03  0.29636426761E+03  0.00000000000E+00 0. -1.
         21   -1    0    0  502  503 -0.00000000000E+00 -0.00000000000E+00 -0.39848984548E+03  0.39848984548E+03  0.00000000000E+00 0. -1.
         -6    2    1    2    0  503  0.73690515786E+02  0.41818694845E+02 -0.33942071881E+03  0.38968351487E+03  0.17166164990E+03 0.  0.
        -24    2    3    3    0    0 -0.25001237014E+01 -0.23829592682E+02 -0.20585902728E+03  0.22242465368E+03  0.80750773045E+02 0.  0.
          6    2    1    2  501    0 -0.73690515786E+02 -0.41818694845E+02  0.23729514094E+03  0.30517059822E+03  0.17216566077E+03 0.  0.
         24    2    5    5    0    0  0.14283808116E+02 -0.56498701707E+02  0.98075116471E+02  0.13976416098E+03  0.80741326183E+02 0.  0.
          5    1    5    5  501    0 -0.87974323902E+02  0.14680006862E+02  0.13922002447E+03  0.16540643724E+03  0.47000000000E+01 0. -1.
        -13    1    6    6    0    0  0.25207205965E+00  0.20784937027E+02  0.24627513573E+02  0.32227186851E+02  0.00000000000E+00 0.  1.
         14    1    6    6    0    0  0.14031736056E+02 -0.77283638734E+02  0.73447602898E+02  0.10753697413E+03  0.00000000000E+00 0. -1.
         -5    1    3    3    0  503  0.76190639487E+02  0.65648287526E+02 -0.13356169154E+03  0.16725886119E+03  0.47000000000E+01 0.  1.
         11    1    4    4    0    0  0.99235813586E+01 -0.33158789515E+02 -0.29775446674E+02  0.45656982092E+02  0.00000000000E+00 0. -1.
        -12    1    4    4    0    0 -0.12423705060E+02  0.93291968331E+01 -0.17608358060E+03  0.17676767159E+03  0.00000000000E+00 0.  1.
</event>
<event>
12    1  0.8344842E-002  0.2029832E+03  0.7818608E-02  0.1147435E+00
         21   -1    0    0  501  502  0.00000000000E+00  0.00000000000E+00  0.29249277211E+03  0.29249277211E+03  0.00000000000E+00 0.  1.
         21   -1    0    0  502  503 -0.00000000000E+00 -0.00000000000E+00 -0.19820559523E+03  0.19820559523E+03  0.00000000000E+00 0. -1.
         -6    2    1    2    0  503 -0.92868426918E+02 -0.53391823301E+02 -0.85620526719E+02  0.21946241382E+03  0.17134072770E+03 0.  0.
        -24    2    3    3    0    0 -0.12905313735E+03 -0.58306812885E+02 -0.82703203747E+02  0.18252880900E+03  0.80140810551E+02 0.  0.
          6    2    1    2  501    0  0.92868426918E+02  0.53391823301E+02  0.17990770360E+03  0.27123595353E+03  0.17241499110E+03 0.  0.
         24    2    5    5    0    0  0.13946906199E+02  0.85030553771E+02  0.11547173434E+03  0.16444784636E+03  0.79275856805E+02 0.  0.
          5    1    5    5  501    0  0.78921520719E+02 -0.31638730470E+02  0.64435969258E+02  0.10678810717E+03  0.47000000000E+01 0. -1.
        -11    1    6    6    0    0  0.35488838979E+02  0.89481919490E+01  0.48918018850E+02  0.61094192845E+02  0.00000000000E+00 0.  1.
         12    1    6    6    0    0 -0.21541932780E+02  0.76082361822E+02  0.66553715491E+02  0.10335365351E+03  0.00000000000E+00 0. -1.
         -5    1    3    3    0  503  0.36184710431E+02  0.49149895837E+01 -0.29173229726E+01  0.36933604819E+02  0.47000000000E+01 0.  1.
         11    1    4    4    0    0 -0.42369993633E+02 -0.56703114370E+02 -0.60290523557E+02  0.92980679555E+02  0.00000000000E+00 0. -1.
        -12    1    4    4    0    0 -0.86683143716E+02 -0.16036985145E+01 -0.22412680189E+02  0.89548129443E+02  0.00000000000E+00 0.  1.
</event>
<event>
12    1  0.8344842E-002  0.1975279E+03  0.7818608E-02  0.1152208E+00
         21   -1    0    0  501  502  0.00000000000E+00  0.00000000000E+00  0.76983036442E+02  0.76983036442E+02  0.00000000000E+00 0. -1.
         21   -1    0    0  502  503 -0.00000000000E+00 -0.00000000000E+00 -0.60103247103E+03  0.60103247103E+03  0.00000000000E+00 0. -1.
         -6    2    1    2    0  503 -0.97632673378E+02 -0.60181055071E+01 -0.39835462674E+03  0.44388638833E+03  0.16964775447E+03 0.  0.
        -24    2    3    3    0    0 -0.47735548345E+02 -0.40943548324E+02 -0.89337386766E+02  0.12888915939E+03  0.68382673303E+02 0.  0.
          6    2    1    2  501    0  0.97632673378E+02  0.60181055071E+01 -0.12569480785E+03  0.23412911914E+03  0.17160682738E+03 0.  0.
         24    2    5    5    0    0  0.49821067117E+02  0.63490259392E+02 -0.41355930398E+02  0.12132781412E+03  0.80603807185E+02 0.  0.
          5    1    5    5  501    0  0.47811606261E+02 -0.57472153885E+02 -0.84338877449E+02  0.11280130502E+03  0.47000000000E+01 0. -1.
        -13    1    6    6    0    0  0.12235066535E+01  0.43977431287E+02 -0.51765000515E+02  0.67934723886E+02  0.00000000000E+00 0.  1.
         14    1    6    6    0    0  0.48597560463E+02  0.19512828105E+02  0.10409070117E+02  0.53393090230E+02  0.00000000000E+00 0. -1.
         -5    1    3    3    0  503 -0.49897125033E+02  0.34925442817E+02 -0.30901723997E+03  0.31499722894E+03  0.47000000000E+01 0.  1.
         11    1    4    4    0    0 -0.51973656860E+02 -0.51417971812E+01 -0.71832987629E+02  0.88812595938E+02  0.00000000000E+00 0. -1.
        -12    1    4    4    0    0  0.42381085150E+01 -0.35801751143E+02 -0.17504399138E+02  0.40076563449E+02  0.00000000000E+00 0.  1.
</event>
<event>
12    1  0.8344842E-002  0.1814452E+03  0.7818608E-02  0.1167261E+00
         21   -1    0    0  503  502  0.00000000000E+00  0.00000000000E+00  0.38680727952E+03  0.38680727952E+03  0.00000000000E+00 0. -1.
         21   -1    0    0  501  503 -0.00000000000E+00 -0.00000000000E+00 -0.85574001545E+02  0.85574001545E+02  0.00000000000E+00 0. -1.
          6    2    1    2  501    0 -0.38270140942E+02 -0.25686145256E+02  0.11218964811E+03  0.21035099832E+03  0.17186228092E+03 0.  0.
         24    2    3    3    0    0 -0.50732647949E+02  0.10794317690E+02  0.40124185194E+01  0.95413879595E+02  0.79983686179E+02 0.  0.
         -6    2    1    2    0  502  0.38270140942E+02  0.25686145256E+02  0.18904362986E+03  0.26203028275E+03  0.17549357065E+03 0.  0.
        -24    2    5    5    0    0  0.67752458556E+02 -0.36696395364E+02  0.12975778996E+03  0.17093862979E+03  0.80286424912E+02 0.  0.
          5    1    3    3  501    0  0.12462507007E+02 -0.36480462946E+02  0.10817722959E+03  0.11493711872E+03  0.47000000000E+01 0. -1.
        -13    1    4    4    0    0 -0.28303403209E+02  0.31247474204E+02  0.32924884384E+02  0.53493320041E+02  0.00000000000E+00 0.  1.
         14    1    4    4    0    0 -0.22429244739E+02 -0.20453156514E+02 -0.28912465864E+02  0.41920559554E+02  0.00000000000E+00 0. -1.
         -5    1    5    5    0  502 -0.29482317614E+02  0.62382540620E+02  0.59285839900E+02  0.91091652959E+02  0.47000000000E+01 0.  1.
         11    1    6    6    0    0  0.55092425039E+02 -0.28875148951E+01  0.12216969907E+03  0.13404830625E+03  0.00000000000E+00 0. -1.
        -12    1    6    6    0    0  0.12660033517E+02 -0.33808880469E+02  0.75880908943E+01  0.36890323536E+02  0.00000000000E+00 0.  1.
</event>
<event>
12    1  0.8344842E-002  0.1760268E+03  0.7818608E-02  0.1171945E+00
         21   -1    0    0  501  502  0.00000000000E+00  0.00000000000E+00  0.20712550678E+04  0.20712550678E+04  0.00000000000E+00 0.  1.
         21   -1    0    0  502  503 -0.00000000000E+00 -0.00000000000E+00 -0.15736154091E+02  0.15736154091E+02  0.00000000000E+00 0. -1.
         -6    2    1    2    0  503 -0.29142900942E+02  0.20701280134E+02  0.12687551087E+04  0.12807761695E+04  0.17137741688E+03 0.  0.
        -24    2    3    3    0    0 -0.54726153802E+01  0.75647556697E+02  0.66434372845E+03  0.67339277969E+03  0.79704101880E+02 0.  0.
          6    2    1    2  501    0  0.29142900942E+02 -0.20701280134E+02  0.78676380500E+03  0.80621505231E+03  0.17235885251E+03 0.  0.
         24    2    5    5    0    0  0.37368051947E+02 -0.67963214899E+02  0.68402507508E+03  0.69273077934E+03  0.77267453793E+02 0.  0.
          5    1    5    5  501    0 -0.82251510050E+01  0.47261934765E+02  0.10273872992E+03  0.11348427297E+03  0.47000000000E+01 0. -1.
        -11    1    6    6    0    0  0.47542012214E+02 -0.13311634324E+02  0.22506693090E+03  0.23041824129E+03  0.00000000000E+00 0.  1.
         12    1    6    6    0    0 -0.10173960267E+02 -0.54651580575E+02  0.45895814418E+03  0.46231253805E+03  0.00000000000E+00 0. -1.
         -5    1    3    3    0  503 -0.23670285562E+02 -0.54946276563E+02  0.60441138023E+03  0.60738338986E+03  0.47000000000E+01 0.  1.
         13    1    4    4    0    0 -0.37743170722E+02  0.49667264308E+02  0.28234617693E+03  0.28915523116E+03  0.00000000000E+00 0. -1.
        -14    1    4    4    0    0  0.32270555341E+02  0.25980292389E+02  0.38199755152E+03  0.38423754853E+03  0.00000000000E+00 0.  1.
</event>
<event>
12    1  0.8344842E-002  0.1762458E+03  0.7818608E-02  0.1172524E+00
         21   -1    0    0  501  502  0.00000000000E+00  0.00000000000E+00  0.23842726883E+03  0.23842726883E+03  0.00000000000E+00 0. -1.
         21   -1    0    0  502  503 -0.00000000000E+00 -0.00000000000E+00 -0.12756756309E+03  0.12756756309E+03  0.00000000000E+00 0. -1.
         -6    2    1    2    0  503  0.20121965625E+02 -0.31492180492E+02  0.45719581586E+02  0.17809640823E+03  0.16802202103E+03 0.  0.
        -24    2    3    3    0    0  0.21251213827E+02 -0.79895538137E+02  0.57659448299E+02  0.12800837922E+03  0.78908947964E+02 0.  0.
          6    2    1    2  501    0 -0.20121965625E+02  0.31492180492E+02  0.65140124153E+02  0.18789842369E+03  0.17223800660E+03 0.  0.
         24    2    5    5    0    0 -0.48806446080E+02  0.65807890163E+02  0.80530230045E+02  0.14036619558E+03  0.80652360936E+02 0.  0.
          5    1    5    5  501    0  0.28684480455E+02 -0.34315709671E+02 -0.15390105892E+02  0.47532228105E+02  0.47000000000E+01 0. -1.
        -11    1    6    6    0    0  0.11114612120E+02  0.42029297356E+01 -0.10007317446E+02  0.15535302488E+02  0.00000000000E+00 0.  1.
         12    1    6    6    0    0 -0.59921058200E+02  0.61604960428E+02  0.90537547491E+02  0.12483089309E+03  0.00000000000E+00 0. -1.
         -5    1    3    3    0  503 -0.11292482021E+01  0.48403357644E+02 -0.11939866713E+02  0.50088029008E+02  0.47000000000E+01 0.  1.
         11    1    4    4    0    0  0.19048035151E+02 -0.14221079727E+02 -0.16490966096E+02  0.28931275715E+02  0.00000000000E+00 0. -1.
        -12    1    4    4    0    0  0.22031786757E+01 -0.65674458410E+02  0.74150414395E+02  0.99077103504E+02  0.00000000000E+00 0.  1.
</event>
<event>
12    1  0.8344842E-002  0.2710415E+03  0.7818608E-02  0.1100769E+00
         21   -1    0    0  503  502  0.00000000000E+00  0.00000000000E+00  0.62988549062E+03  0.62988549062E+03  0.00000000000E+00 0.  1.
         21   -1    0    0  501  503 -0.00000000000E+00 -0.00000000000E+00 -0.12375351221E+03  0.12375351221E+03  0.00000000000E+00 0.  1.
          6    2    1    2  501    0 -0.82360792532E+02  0.19279185193E+03  0.34481515236E+03  0.43822404967E+03  0.17085324139E+03 0.  0.
         24    2    3    3    0    0 -0.12231597336E+03  0.16881789170E+03  0.27881489107E+03  0.35729635518E+03  0.80388208405E+02 0.  0.
         -6    2    1    2    0  502  0.82360792532E+02 -0.19279185193E+03  0.16131682606E+03  0.31541495316E+03  0.17178904502E+03 0.  0.
        -24    2    5    5    0    0  0.80537325582E+02 -0.21347761780E+03  0.12146018742E+03  0.27022792422E+03  0.78813703043E+02 0.  0.
          5    1    3    3  501    0  0.39955180825E+02  0.23973960234E+02  0.66000261296E+02  0.80927694488E+02  0.47000000000E+01 0. -1.
        -11    1    4    4    0    0 -0.87028199825E+02  0.16660783896E+03  0.23865905251E+03  0.30379305935E+03  0.00000000000E+00 0.  1.
         12    1    4    4    0    0 -0.35287773532E+02  0.22100527342E+01  0.40155838560E+02  0.53503295827E+02  0.00000000000E+00 0. -1.
         -5    1    5    5    0  502  0.18234669503E+01  0.20685765865E+02  0.39856638634E+02  0.45187028939E+02  0.47000000000E+01 0.  1.
         11    1    6    6    0    0 -0.89188832524E+01 -0.40419697472E+02  0.14484180234E+01  0.41417343432E+02  0.00000000000E+00 0. -1.
        -12    1    6    6    0    0  0.89456208834E+02 -0.17305792033E+03  0.12001176940E+03  0.22881058079E+03  0.00000000000E+00 0.  1.
</event>
<event>
12    1  0.8344842E-002  0.1909560E+03  0.7818608E-02  0.1157846E+00
         21   -1    0    0  503  502  0.00000000000E+00  0.00000000000E+00  0.27674539192E+02  0.27674539192E+02  0.00000000000E+00 0. -1.
         21   -1    0    0  501  503 -0.00000000000E+00 -0.00000000000E+00 -0.14237130437E+04  0.14237130437E+04  0.00000000000E+00 0. -1.
          6    2    1    2  501    0 -0.38477396840E+02  0.70405755747E+02 -0.90115822187E+03  0.92094372823E+03  0.17208640043E+03 0.  0.
         24    2    3    3    0    0  0.51528802686E+02  0.28512660940E+02 -0.36595745288E+03  0.37659264623E+03  0.66550541226E+02 0.  0.
         -6    2    1    2    0  502  0.38477396840E+02 -0.70405755747E+02 -0.49488028264E+03  0.53044385466E+03  0.17328216381E+03 0.  0.
        -24    2    5    5    0    0  0.10290358109E+02 -0.15851397240E+02 -0.44228770398E+03  0.44945770453E+03  0.77695925230E+02 0.  0.
          5    1    3    3  501    0 -0.90006199526E+02  0.41893094807E+02 -0.53520076899E+03  0.54435108200E+03  0.47000000000E+01 0. -1.
        -13    1    4    4    0    0  0.39745766086E+02  0.15464431004E+02 -0.35079016964E+03  0.35337319885E+03  0.00000000000E+00 0.  1.
         14    1    4    4    0    0  0.11783036600E+02  0.13048229936E+02 -0.15167283242E+02  0.23219447386E+02  0.00000000000E+00 0. -1.
         -5    1    5    5    0  502  0.28187038731E+02 -0.54554358507E+02 -0.52592578657E+02  0.80986150139E+02  0.47000000000E+01 0.  1.
         13    1    6    6    0    0  0.99644248718E+01  0.30980812596E+02 -0.15523458867E+03  0.15860919908E+03  0.00000000000E+00 0. -1.
        -14    1    6    6    0    0  0.32593323722E+00 -0.46832209835E+02 -0.28705311531E+03  0.29084850544E+03  0.00000000000E+00 0.  1.
</event>
<event>
12    1  0.8344842E-002  0.2523615E+03  0.7818608E-02  0.1111946E+00
         21   -1    0    0  503  502  0.00000000000E+00  0.00000000000E+00  0.12451988220E+03  0.12451988220E+03  0.00000000000E+00 0.  1.
         21   -1    0    0  501  503 -0.00000000000E+00 -0.00000000000E+00 -0.65773411975E+03  0.65773411975E+03  0.00000000000E+00 0.  1.
          6    2    1    2  501    0 -0.17901148658E+03 -0.42910746097E+02 -0.80812770249E+02  0.26422559365E+03  0.17145849657E+03 0.  0.
         24    2    3    3    0    0 -0.15697364770E+03 -0.25106844573E+02  0.46821091152E+01  0.17403629468E+03  0.70679770805E+02 0.  0.
         -6    2    1    2    0  502  0.17901148658E+03  0.42910746097E+02 -0.45240146730E+03  0.51802840831E+03  0.17262647462E+03 0.  0.
        -24    2    5    5    0    0  0.16143666406E+03 -0.23293817604E+02 -0.29304026497E+03  0.34450607128E+03  0.78787294721E+02 0.  0.
          5    1    3    3  501    0 -0.22037838873E+02 -0.17803901524E+02 -0.85494879364E+02  0.90189298972E+02  0.47000000000E+01 0. -1.
        -13    1    4    4    0    0 -0.13058801416E+03 -0.38654932189E+02 -0.17069779280E+02  0.13725454670E+03  0.00000000000E+00 0.  1.
         14    1    4    4    0    0 -0.26385633545E+02  0.13548087615E+02  0.21751888395E+02  0.36781747979E+02  0.00000000000E+00 0. -1.
         -5    1    5    5    0  502  0.17574822517E+02  0.66204563701E+02 -0.15936120233E+03  0.17352233703E+03  0.47000000000E+01 0.  1.
         13    1    6    6    0    0  0.67475320833E+02 -0.39951230835E+02 -0.85126662907E+02  0.11573922630E+03  0.00000000000E+00 0. -1.
        -14    1    6    6    0    0  0.93961343228E+02  0.16657413232E+02 -0.20791360207E+03  0.22876684498E+03  0.00000000000E+00 0.  1.
</event>
<event>
12    1  0.8344842E-002  0.1754522E+03  0.7818608E-02  0.1173137E+00
         21   -1    0    0  503  502  0.00000000000E+00  0.00000000000E+00  0.49577616955E+02  0.49577616955E+02  0.00000000000E+00 0.  1.
         21   -1    0    0  501  503 -0.00000000000E+00 -0.00000000000E+00 -0.62397987203E+03  0.62397987203E+03  0.00000000000E+00 0.  1.
          6    2    1    2  501    0 -0.17088908065E+01  0.38632740824E+01 -0.23767346985E+03  0.29541860355E+03  0.17540133367E+03 0.  0.
         24    2    3    3    0    0 -0.34679212153E+00  0.71085833282E+02 -0.16076450306E+03  0.19315518413E+03  0.80064872150E+02 0.  0.
         -6    2    1    2    0  502  0.17088908065E+01 -0.38632740824E+01 -0.33672878522E+03  0.37813888544E+03  0.17200260664E+03 0.  0.
        -24    2    5    5    0    0 -0.24517060064E+02 -0.64517616469E+02 -0.19277648780E+03  0.21967405123E+03  0.79563216779E+02 0.  0.
          5    1    3    3  501    0 -0.13620986850E+01 -0.67222559200E+02 -0.76908966792E+02  0.10226341942E+03  0.47000000000E+01 0. -1.
        -13    1    4    4    0    0 -0.36102012160E+02  0.15287221856E+02 -0.44311602205E+02  0.59165636344E+02  0.00000000000E+00 0.  1.
         14    1    4    4    0    0  0.35755220038E+02  0.55798611427E+02 -0.11645290086E+03  0.13398954778E+03  0.00000000000E+00 0. -1.
         -5    1    5    5    0  502  0.26225950870E+02  0.60654342387E+02 -0.14395229742E+03  0.15846483421E+03  0.47000000000E+01 0.  1.
         11    1    6    6    0    0 -0.72813103734E+01  0.16523780055E+02 -0.64390062802E+02  0.66874008222E+02  0.00000000000E+00 0. -1.
        -12    1    6    6    0    0 -0.17235749690E+02 -0.81041396525E+02 -0.12838642500E+03  0.15280004301E+03  0.00000000000E+00 0.  1.
</event>
<event>
12    1  0.8344842E-002  0.1824358E+03  0.7818608E-02  0.1165719E+00
         21   -1    0    0  501  502  0.00000000000E+00  0.00000000000E+00  0.74180508774E+03  0.74180508774E+03  0.00000000000E+00 0. -1.
         21   -1    0    0  502  503 -0.00000000000E+00 -0.00000000000E+00 -0.52832052365E+02  0.52832052365E+02  0.00000000000E+00 0. -1.
         -6    2    1    2    0  503 -0.39324141585E+02 -0.50124736563E+02  0.18856912244E+03  0.26237592741E+03  0.17095009803E+03 0.  0.
        -24    2    3    3    0    0 -0.75399026529E+02 -0.77570497597E+02  0.12449575939E+03  0.18374925906E+03  0.81008646452E+02 0.  0.
          6    2    1    2  501    0  0.39324141585E+02  0.50124736563E+02  0.50040391293E+03  0.53226121269E+03  0.16982062636E+03 0.  0.
         24    2    5    5    0    0  0.49465672548E+02 -0.29211563863E+02  0.22163094504E+03  0.24220336184E+03  0.79006483685E+02 0.  0.
          5    1    5    5  501    0 -0.10141530964E+02  0.79336300426E+02  0.27877296789E+03  0.29005785085E+03  0.47000000000E+01 0. -1.
        -11    1    6    6    0    0 -0.17429236969E+02  0.99790643258E+01  0.41967451313E+02  0.46525552074E+02  0.00000000000E+00 0.  1.
         12    1    6    6    0    0  0.66894909517E+02 -0.39190628189E+02  0.17966349373E+03  0.19567780977E+03  0.00000000000E+00 0. -1.
         -5    1    3    3    0  503  0.36074884944E+02  0.27445761035E+02  0.64073363055E+02  0.78626668349E+02  0.47000000000E+01 0.  1.
         13    1    4    4    0    0 -0.63468613860E+02 -0.84537027837E+01  0.48429494970E+02  0.80281666768E+02  0.00000000000E+00 0. -1.
        -14    1    4    4    0    0 -0.11930412668E+02 -0.69116794814E+02  0.76066264416E+02  0.10346759229E+03  0.00000000000E+00 0.  1.
</event>
<event>
12    1  0.8344842E-002  0.2429904E+03  0.7818608E-02  0.1118014E+00
         21   -1    0    0  501  502  0.00000000000E+00  0.00000000000E+00  0.70817394568E+03  0.70817394568E+03  0.00000000000E+00 0.  1.
         21   -1    0    0  502  503 -0.00000000000E+00 -0.00000000000E+00 -0.10110922307E+03  0.10110922307E+03  0.00000000000E+00 0. -1.
         -6    2    1    2    0  503 -0.16231265171E+03  0.54760738169E+02  0.13272801665E+03  0.27687733739E+03  0.17233745445E+03 0.  0.
        -24    2    3    3    0    0 -0.86405801857E+02  0.91431795901E+02  0.47313834501E+02  0.15677617652E+03  0.80712048001E+02 0.  0.
          6    2    1    2  501    0  0.16231265171E+03 -0.54760738169E+02  0.47433670595E+03  0.53240583136E+03  0.17063564487E+03 0.  0.
         24    2    5    5    0    0  0.14981814030E+03 -0.44931245852E+02  0.23678824493E+03  0.29427961888E+03  0.77894345980E+02 0.  0.
          5    1    5    5  501    0  0.12494511412E+02 -0.98294923171E+01  0.23754846102E+03  0.23812621247E+03  0.47000000000E+01 0. -1.
        -11    1    6    6    0    0  0.67082318214E+02  0.15128919269E+02  0.12587690554E+03  0.14343610760E+03  0.00000000000E+00 0.  1.
         12    1    6    6    0    0  0.82735822089E+02 -0.60060165121E+02  0.11091133939E+03  0.15084351128E+03  0.00000000000E+00 0. -1.
         -5    1    3    3    0  503 -0.75906849857E+02 -0.36671057733E+02  0.85414182154E+02  0.12010116087E+03  0.47000000000E+01 0.  1.
         11    1    4    4    0    0 -0.77648755035E+02  0.37686138140E+02  0.26560824524E+01  0.86351774390E+02  0.00000000000E+00 0. -1.
        -12    1    4    4    0    0 -0.87570468227E+01  0.53745657761E+02  0.44657752048E+02  0.70424402129E+02  0.00000000000E+00 0.  1.
</event>
<event>
12    1  0.8344842E-002  0.2663078E+03  0.7818608E-02  0.1103536E+00
         21   -1    0    0  501  502  0.00000000000E+00  0.00000000000E+00  0.64411873695E+02  0.64411873695E+02  0.00000000000E+00 0. -1.
         21   -1    0    0  502  503 -0.00000000000E+00 -0.00000000000E+00 -0.12547723033E+04  0.12547723033E+04  0.00000000000E+00 0. -1.
         -6    2    1    2    0  503  0.46873530606E+02  0.19705263069E+03 -0.36084700021E+03  0.44797100977E+03  0.17158263575E+03 0.  0.
        -24    2    3    3    0    0 -0.15818707321E+02  0.15775782656E+03 -0.19153245731E+03  0.26313621118E+03  0.86129089683E+02 0.  0.
          6    2    1    2  501    0 -0.46873530606E+02 -0.19705263069E+03 -0.82951342937E+03  0.87121316721E+03  0.17289588219E+03 0.  0.
         24    2    5    5    0    0  0.24224311786E+02 -0.16440506818E+03 -0.50705467159E+03  0.53936605332E+03  0.78711217508E+02 0.  0.
          5    1    5    5  501    0 -0.71097842392E+02 -0.32647562511E+02 -0.32245875778E+03  0.33184711389E+03  0.47000000000E+01 0. -1.
        -13    1    6    6    0    0  0.81947693251E+01 -0.16400498270E+03 -0.42219672763E+03  0.45300647392E+03  0.00000000000E+00 0.  1.
         14    1    6    6    0    0  0.16029542461E+02 -0.40008548715E+00 -0.84857943960E+02  0.86359579393E+02  0.00000000000E+00 0. -1.
         -5    1    3    3    0  503  0.62692237927E+02  0.39294804131E+02 -0.16931454291E+03  0.18483479859E+03  0.47000000000E+01 0.  1.
         11    1    4    4    0    0  0.29534734134E+02  0.83436152516E+02 -0.12683034497E+03  0.15466036490E+03  0.00000000000E+00 0. -1.
        -12    1    4    4    0    0 -0.45353441455E+02  0.74321674046E+02 -0.64702112340E+02  0.10847584628E+03  0.00000000000E+00 0.  1.
</event>
<event>
12    1  0.8344842E-002  0.1933933E+03  0.7818608E-02  0.1158445E+00
         21   -1    0    0  503  502  0.00000000000E+00  0.00000000000E+00  0.82607250239E+03  0.82607250239E+03  0.00000000000E+00 0.  1.
         21   -1    0    0  501  503 -0.00000000000E+00 -0.00000000000E+00 -0.43780868679E+02  0.43780868679E+02  0.00000000000E+00 0.  1.
          6    2    1    2  501    0  0.11087636184E+01 -0.54297202787E+02  0.32311989086E+03  0.37657327550E+03  0.18561129375E+03 0.  0.
         24    2    3    3    0    0  0.25925636233E+02 -0.10601386785E+03  0.21445347203E+03  0.25360591726E+03  0.80091140660E+02 0.  0.
         -6    2    1    2    0  502 -0.11087636184E+01  0.54297202787E+02  0.45917174285E+03  0.49328009556E+03  0.17186374737E+03 0.  0.
        -24    2    5    5    0    0 -0.14488891137E+02 -0.78542614530E+01  0.10010875882E+03  0.12860195141E+03  0.79025824423E+02 0.  0.
          5    1    3    3  501    0 -0.24816872615E+02  0.51716665067E+02  0.10866641883E+03  0.12296735824E+03  0.47000000000E+01 0. -1.
        -13    1    4    4    0    0 -0.14604121954E+02 -0.52778754313E+02  0.43213390830E+02  0.69758687143E+02  0.00000000000E+00 0.  1.
         14    1    4    4    0    0  0.40529758187E+02 -0.53235113541E+02  0.17124008120E+03  0.18384723012E+03  0.00000000000E+00 0. -1.
         -5    1    5    5    0  502  0.13380127519E+02  0.62151464240E+02  0.35906298403E+03  0.36467814415E+03  0.47000000000E+01 0.  1.
         11    1    6    6    0    0  0.23067130303E+02  0.13313110214E+02  0.95293582515E+01  0.28286747297E+02  0.00000000000E+00 0. -1.
        -12    1    6    6    0    0 -0.37556021440E+02 -0.21167371667E+02  0.90579400567E+02  0.10031520412E+03  0.00000000000E+00 0.  1.
</event>
<event>
12    1  0.8344842E-002  0.2015660E+03  0.7818608E-02  0.1148570E+00
         21   -1    0    0  501  502  0.00000000000E+00  0.00000000000E+00  0.60200872849E+03  0.60200872849E+03  0.00000000000E+00 0.  1.
         21   -1    0    0  502  503 -0.00000000000E+00 -0.00000000000E+00 -0.23546885074E+03  0.23546885074E+03  0.00000000000E+00 0.  1.
         -6    2    1    2    0  503 -0.38422479404E+01 -0.10586565050E+03 -0.17074101638E+03  0.26363123550E+03  0.17066527131E+03 0.  0.
        -24    2    3    3    0    0 -0.62457678285E+02 -0.90396296850E+02 -0.94413532197E+02  0.16604514828E+03  0.81145697023E+02 0.  0.
          6    2    1    2  501    0  0.38422479404E+01  0.10586565050E+03  0.53728089413E+03  0.57384634373E+03  0.17148343415E+03 0.  0.
         24    2    5    5    0    0  0.48026760232E+02  0.78415798527E+02  0.20399239777E+03  0.23649033399E+03  0.76545232160E+02 0.  0.
          5    1    5    5  501    0 -0.44184512291E+02  0.27449851978E+02  0.33328849636E+03  0.33735600974E+03  0.47000000000E+01 0. -1.
        -11    1    6    6    0    0  0.13904531245E+02  0.10170533825E+02  0.12675651230E+03  0.12792180877E+03  0.00000000000E+00 0.  1.
         12    1    6    6    0    0  0.34122228987E+02  0.68245264702E+02  0.77235885467E+02  0.10856852522E+03  0.00000000000E+00 0. -1.
         -5    1    3    3    0  503  0.58615430344E+02 -0.15469353655E+02 -0.76327484179E+02  0.97586087215E+02  0.47000000000E+01 0.  1.
         11    1    4    4    0    0 -0.56626493144E+01  0.70223819183E+01 -0.39690707571E+02  0.40702969334E+02  0.00000000000E+00 0. -1.
        -12    1    4    4    0    0 -0.56795028970E+02 -0.97418678768E+02 -0.54722824626E+02  0.12534217895E+03  0.00000000000E+00 0.  1.
</event>
<event>
12    1  0.8344842E-002  0.1934977E+03  0.7818608E-02  0.1155383E+00
         21   -1    0    0  501  502  0.00000000000E+00  0.00000000000E+00  0.13693143188E+03  0.13693143188E+03  0.00000000000E+00 0.  1.
         21   -1    0    0  502  503 -0.00000000000E+00 -0.00000000000E+00 -0.55064506602E+03  0.55064506602E+03  0.00000000000E+00 0.  1.
         -6    2    1    2    0  503 -0.72207050846E+02 -0.50517487016E+02 -0.45084809344E+03  0.49054777812E+03  0.17206755815E+03 0.  0.
        -24    2    3    3    0    0 -0.53369840437E+02 -0.67701096307E+02 -0.16429965086E+03  0.20282878870E+03  0.81935120328E+02 0.  0.
          6    2    1    2  501    0  0.72207050846E+02  0.50517487016E+02  0.37134459299E+02  0.19702871978E+03  0.17226570659E+03 0.  0.
         24    2    5    5    0    0 -0.22252305346E+02  0.53452996295E+02  0.13941584224E+02  0.99605998402E+02  0.79841087423E+02 0.  0.
          5    1    5    5  501    0  0.94459356192E+02 -0.29355092790E+01  0.23192875074E+02  0.97422721380E+02  0.47000000000E+01 0. -1.
        -13    1    6    6    0    0  0.13621132325E+02  0.42505846607E+02  0.34883207628E+02  0.56649098987E+02  0.00000000000E+00 0.  1.
         14    1    6    6    0    0 -0.35873437671E+02  0.10947149687E+02 -0.20941623403E+02  0.42956899415E+02  0.00000000000E+00 0. -1.
         -5    1    3    3    0  503 -0.18837210409E+02  0.17183609292E+02 -0.28654844259E+03  0.28771898942E+03  0.47000000000E+01 0.  1.
         13    1    4    4    0    0  0.96949348261E+01  0.41951640986E+01 -0.61585038410E+02  0.62484463021E+02  0.00000000000E+00 0. -1.
        -14    1    4    4    0    0 -0.63064775263E+02 -0.71896260406E+02 -0.10271461245E+03  0.14034432568E+03  0.00000000000E+00 0.  1.
</event>
<event>
12    1  0.8344842E-002  0.1985718E+03  0.7818608E-02  0.1151336E+00
         21   -1    0    0  501  502  0.00000000000E+00  0.00000000000E+00  0.62403302992E+03  0.62403302992E+03  0.00000000000E+00 0. -1.
         21   -1    0    0  502  503 -0.00000000000E+00 -0.00000000000E+00 -0.70792032369E+02  0.70792032369E+02  0.00000000000E+00 0. -1.
         -6    2    1    2    0  503  0.16402197146E+00 -0.96328500326E+02  0.39358269053E+03  0.44002803204E+03  0.17157542894E+03 0.  0.
        -24    2    3    3    0    0  0.24390152690E+02 -0.11571873025E+03  0.21019626267E+03  0.25397546326E+03  0.79594993670E+02 0.  0.
          6    2    1    2  501    0 -0.16402197146E+00  0.96328500326E+02  0.15965830701E+03  0.25479703025E+03  0.17364200167E+03 0.  0.
         24    2    5    5    0    0 -0.49924863102E+02  0.87993534737E+02  0.15945698524E+03  0.20412412337E+03  0.77490473513E+02 0.  0.
          5    1    5    5  501    0  0.49760841130E+02  0.83349655890E+01  0.20132177034E+00  0.50672906881E+02  0.47000000000E+01 0. -1.
        -13    1    6    6    0    0 -0.30870972212E+02  0.15909682812E+02  0.10822152837E+03  0.11365753004E+03  0.00000000000E+00 0.  1.
         14    1    6    6    0    0 -0.19053890890E+02  0.72083851924E+02  0.51235456872E+02  0.90466593322E+02  0.00000000000E+00 0. -1.
         -5    1    3    3    0  503 -0.24226130719E+02  0.19390229926E+02  0.18338642786E+03  0.18605256878E+03  0.47000000000E+01 0.  1.
         11    1    4    4    0    0  0.25758821268E+02 -0.10764106432E+03  0.21682271572E+03  0.24343829948E+03  0.00000000000E+00 0. -1.
        -12    1    4    4    0    0 -0.13686685775E+01 -0.80776659329E+01 -0.66264530466E+01  0.10537163782E+02  0.00000000000E+00 0.  1.
</event>
<event>
12    1  0.8344842E-002  0.3442613E+03  0.7818608E-02  0.1065105E+00
         21   -1    0    0  503  502  0.00000000000E+00  0.00000000000E+00  0.25453217519E+03  0.25453217519E+03  0.00000000000E+00 0. -1.
         21   -1    0    0  501  503 -0.00000000000E+00 -0.00000000000E+00 -0.47996101466E+03  0.47996101466E+03  0.00000000000E+00 0.  1.
          6    2    1    2  501    0 -0.86686438883E+02 -0.28410546488E+03 -0.17939981008E+03  0.38820118483E+03  0.17402705018E+03 0.  0.
         24    2    3    3    0    0 -0.82797767595E+02 -0.10162298757E+03 -0.12477797587E+03  0.19762151367E+03  0.79385247261E+02 0.  0.
         -6    2    1    2    0  502  0.86686438883E+02  0.28410546488E+03 -0.46029029400E+02  0.34629200502E+03  0.17195646930E+03 0.  0.
        -24    2    5    5    0    0  0.52416552803E+02  0.15510967960E+03  0.41535891597E+02  0.18659215186E+03  0.79277317881E+02 0.  0.
          5    1    3    3  501    0 -0.38886712873E+01 -0.18248247730E+03 -0.54621834205E+02  0.19057967116E+03  0.47000000000E+01 0. -1.
        -13    1    4    4    0    0  0.13127126733E+02 -0.28808695822E+02 -0.16638069408E+02  0.35764336494E+02  0.00000000000E+00 0.  1.
         14    1    4    4    0    0 -0.95924894329E+02 -0.72814291750E+02 -0.10813990646E+03  0.16185717718E+03  0.00000000000E+00 0. -1.
         -5    1    5    5    0  502  0.34269886080E+02  0.12899578528E+03 -0.87564920997E+02  0.15969985316E+03  0.47000000000E+01 0.  1.
         11    1    6    6    0    0  0.32874443492E+02  0.43063317042E+02 -0.19416529924E+02  0.57551541629E+02  0.00000000000E+00 0. -1.
        -12    1    6    6    0    0  0.19542109311E+02  0.11204636256E+03  0.60952421520E+02  0.12904061023E+03  0.00000000000E+00 0.  1.
</event>
<event>
12    1  0.8344842E-002  0.2456650E+03  0.7818608E-02  0.1117346E+00
         21   -1    0    0  501  502  0.00000000000E+00  0.00000000000E+00  0.15843026095E+03  0.15843026095E+03  0.00000000000E+00 0.  1.
         21   -1    0    0  502  503 -0.00000000000E+00 -0.00000000000E+00 -0.39961577236E+03  0.39961577236E+03  0.00000000000E+00 0.  1.
         -6    2    1    2    0  503  0.15027080686E+03 -0.66222587113E+02 -0.41638607601E+02  0.24154914826E+03  0.17217860188E+03 0.  0.
        -24    2    3    3    0    0  0.15166995226E+03 -0.35855006542E+02 -0.80172302441E+02  0.19224313245E+03  0.78996632727E+02 0.  0.
          6    2    1    2  501    0 -0.15027080686E+03  0.66222587113E+02 -0.19954690380E+03  0.31649688505E+03  0.18271443564E+03 0.  0.
         24    2    5    5    0    0 -0.22519070776E+02  0.42155046267E+02 -0.15160693982E+03  0.17786037203E+03  0.79784028873E+02 0.  0.
          5    1    5    5  501    0 -0.12775173608E+03  0.24067540846E+02 -0.47939963983E+02  0.13863651302E+03  0.47000000000E+01 0. -1.
        -13    1    6    6    0    0 -0.18032893555E+02 -0.18560773714E+02 -0.78868861971E+02  0.83005933278E+02  0.00000000000E+00 0.  1.
         14    1    6    6    0    0 -0.44861772209E+01  0.60715819981E+02 -0.72738077850E+02  0.94854438754E+02  0.00000000000E+00 0. -1.
         -5    1    3    3    0  503 -0.13991453964E+01 -0.30367580571E+02  0.38533694840E+02  0.49306015816E+02  0.47000000000E+01 0.  1.
         11    1    4    4    0    0  0.12156383953E+03 -0.59074816243E+02 -0.72792357590E+02  0.15351328385E+03  0.00000000000E+00 0. -1.
        -12    1    4    4    0    0  0.30106112725E+02  0.23219809701E+02 -0.73799448504E+01  0.38729848592E+02  0.00000000000E+00 0.  1.
</event>
<event>
12    1  0.8344842E-002  0.2513174E+03  0.7818608E-02  0.1112524E+00
         21   -1    0    0  501  502  0.00000000000E+00  0.00000000000E+00  0.17820168016E+03  0.17820168016E+03  0.00000000000E+00 0.  1.
         21   -1    0    0  502  503 -0.00000000000E+00 -0.00000000000E+00 -0.36689426655E+03  0.36689426655E+03  0.00000000000E+00 0. -1.
         -6    2    1    2    0  503 -0.16820584729E+03 -0.70461949038E+02 -0.43296939336E+02  0.25501975681E+03  0.17292298310E+03 0.  0.
        -24    2    3    3    0    0 -0.83959860936E+01 -0.26145792172E+02 -0.87466316885E+01  0.85553160537E+02  0.80552744715E+02 0.  0.
          6    2    1    2  501    0  0.16820584729E+03  0.70461949038E+02 -0.14539564706E+03  0.29007618990E+03  0.17247089156E+03 0.  0.
         24    2    5    5    0    0  0.45475370043E+02  0.56935702741E+02 -0.16054883983E+02  0.11119954979E+03  0.82449360492E+02 0.  0.
          5    1    5    5  501    0  0.12273047725E+03  0.13526246297E+02 -0.12934076308E+03  0.17887664011E+03  0.47000000000E+01 0. -1.
        -11    1    6    6    0    0  0.53723455103E+02  0.64230643339E+02  0.86203241396E+01  0.84178947250E+02  0.00000000000E+00 0.  1.
         12    1    6    6    0    0 -0.82480850601E+01 -0.72949405971E+01 -0.24675208123E+02  0.27020602535E+02  0.00000000000E+00 0. -1.
         -5    1    3    3    0  503 -0.15980986120E+03 -0.44316156866E+02 -0.34550307648E+02  0.16946659628E+03  0.47000000000E+01 0.  1.
         11    1    4    4    0    0 -0.27637491688E+01  0.26599837970E+02  0.11047252935E+02  0.28934952685E+02  0.00000000000E+00 0. -1.
        -12    1    4    4    0    0 -0.56322369248E+01 -0.52745630142E+02 -0.19793884624E+02  0.56618207852E+02  0.00000000000E+00 0.  1.
</event>
<event>
12    1  0.8344842E-002  0.2242031E+03  0.7818608E-02  0.1131510E+00
         21   -1    0    0  501  502  0.00000000000E+00  0.00000000000E+00  0.10351686754E+03  0.10351686754E+03  0.00000000000E+00 0.  1.
         21   -1    0    0  502  503 -0.00000000000E+00 -0.00000000000E+00 -0.53406894126E+03  0.53406894126E+03  0.00000000000E+00 0.  1.
         -6    2    1    2    0  503  0.12485621554E+03  0.60538540838E+02 -0.11287339973E+03  0.25101281960E+03  0.17610520081E+03 0.  0.
        -24    2    3    3    0    0  0.10114378609E+03  0.97573126390E+02 -0.40483276261E+02  0.16618204799E+03  0.78911323383E+02 0.  0.
          6    2    1    2  501    0 -0.12485621554E+03 -0.60538540838E+02 -0.31767867399E+03  0.38657298919E+03  0.17107000491E+03 0.  0.
         24    2    5    5    0    0 -0.14505930423E+03 -0.35324312452E+02 -0.19616885080E+03  0.26075308124E+03  0.84970245126E+02 0.  0.
          5    1    5    5  501    0  0.20203088695E+02 -0.25214228386E+02 -0.12150982319E+03  0.12581990795E+03  0.47000000000E+01 0. -1.
        -11    1    6    6    0    0 -0.13070446388E+03 -0.58393813108E+02 -0.15124232164E+03  0.20824921162E+03  0.00000000000E+00 0.  1.
         12    1    6    6    0    0 -0.14354840354E+02  0.23069500657E+02 -0.44926529162E+02  0.52503869617E+02  0.00000000000E+00 0. -1.
         -5    1    3    3    0  503  0.23712429443E+02 -0.37034585552E+02 -0.72390123466E+02  0.84830771613E+02  0.47000000000E+01 0.  1.
         13    1    4    4    0    0  0.10012609055E+02  0.14529319054E+02 -0.39082398556E+02  0.42881083582E+02  0.00000000000E+00 0. -1.
        -14    1    4    4    0    0  0.91131177040E+02  0.83043807336E+02 -0.14008777054E+01  0.12330096441E+03  0.00000000000E+00 0.  1.
</event>
<event>
12    1  0.8344842E-002  0.2746334E+03  0.7818608E-02  0.1098665E+00
         21   -1    0    0  503  502  0.00000000000E+00  0.00000000000E+00  0.27730046978E+03  0.27730046978E+03  0.00000000000E+00 0.  1.
         21   -1    0    0  501  503 -0.00000000000E+00 -0.00000000000E+00 -0.30594384607E+03  0.30594384607E+03  0.00000000000E+00 0. -1.
          6    2    1    2  501    0  0.20762053705E+03 -0.53743670629E+02  0.82906141631E+02  0.28687439585E+03  0.17154830555E+03 0.  0.
         24    2    3    3    0    0  0.18120905569E+03 -0.14606769941E+02  0.86012160556E+01  0.19871218565E+03  0.79765106498E+02 0.  0.
         -6    2    1    2    0  502 -0.20762053705E+03  0.53743670629E+02 -0.11154951792E+03  0.29636992000E+03  0.17145601475E+03 0.  0.
        -24    2    5    5    0    0 -0.15191601669E+03 -0.13723918505E+02 -0.11759595709E+03  0.20854328054E+03  0.79966672247E+02 0.  0.
          5    1    3    3  501    0  0.26411481354E+02 -0.39136900688E+02  0.74304925575E+02  0.88162210201E+02  0.47000000000E+01 0. -1.
        -11    1    4    4    0    0  0.82319634210E+02 -0.45375403472E+02  0.13858865554E+02  0.95013249450E+02  0.00000000000E+00 0.  1.
         12    1    4    4    0    0  0.98889421484E+02  0.30768633530E+02 -0.52576494983E+01  0.10369893620E+03  0.00000000000E+00 0. -1.
         -5    1    5    5    0  502 -0.55704520355E+02  0.67467589134E+02  0.60464391629E+01  0.87826639456E+02  0.47000000000E+01 0.  1.
         11    1    6    6    0    0 -0.10696857488E+03  0.17988888596E+02 -0.10730780979E+03  0.15258060875E+03  0.00000000000E+00 0. -1.
        -12    1    6    6    0    0 -0.44947441814E+02 -0.31712807100E+02 -0.10288147300E+02  0.55962671797E+02  0.00000000000E+00 0.  1.
</event>
<event>
12    1  0.8344842E-002  0.2115720E+03  0.7818608E-02  0.1142670E+00
         21   -1    0    0  501  502  0.00000000000E+00  0.00000000000E+00  0.31191444956E+02  0.31191444956E+02  0.00000000000E+00 0. -1.
         21   -1    0    0  502  503 -0.00000000000E+00 -0.00000000000E+00 -0.16901611669E+04  0.16901611669E+04  0.00000000000E+00 0. -1.
         -6    2    1    2    0  503 -0.11484671814E+02  0.12102838552E+03 -0.12299522718E+04  0.12480165459E+04  0.17315582616E+03 0.  0.
        -24    2    3    3    0    0 -0.65987180321E+02  0.57344629881E+02 -0.88221581900E+03  0.89028917096E+03  0.81653794195E+02 0.  0.
          6    2    1    2  501    0  0.11484671814E+02 -0.12102838552E+03 -0.42901745017E+03  0.47333606598E+03  0.15878063806E+03 0.  0.
         24    2    5    5    0    0 -0.46269588278E+02 -0.55761456119E+02 -0.29541988004E+03  0.31375621958E+03  0.76940529096E+02 0.  0.
          5    1    5    5  501    0  0.57754260092E+02 -0.65266929404E+02 -0.13359757013E+03  0.15957984640E+03  0.47000000000E+01 0. -1.
        -13    1    6    6    0    0  0.11571885557E+02 -0.34889961291E+01 -0.50441474740E+01  0.13096757349E+02  0.00000000000E+00 0.  1.
         14    1    6    6    0    0 -0.57841473834E+02 -0.52272459990E+02 -0.29037573256E+03  0.30065946223E+03  0.00000000000E+00 0. -1.
         -5    1    3    3    0  503  0.54502508507E+02  0.63683755642E+02 -0.34773645279E+03  0.35772737491E+03  0.47000000000E+01 0.  1.
         13    1    4    4    0    0 -0.39182020844E+02 -0.40559431813E+01 -0.15253901817E+03  0.15754311631E+03  0.00000000000E+00 0. -1.
        -14    1    4    4    0    0 -0.26805159477E+02  0.61400573062E+02 -0.72967680083E+03  0.73274605466E+03  0.00000000000E+00 0.  1.
</event>
<event>
12    1  0.8344842E-002  0.2332812E+03  0.7818608E-02  0.1124624E+00
         21   -1    0    0  503  502  0.00000000000E+00  0.00000000000E+00  0.13725104644E+03  0.13725104644E+03  0.00000000000E+00 0.  1.
         21   -1    0    0  501  503 -0.00000000000E+00 -0.00000000000E+00 -0.51324290811E+03  0.51324290811E+03  0.00000000000E+00 0.  1.
          6    2    1    2  501    0 -0.12200885538E+03 -0.95196167557E+02 -0.34438967112E+03  0.41508189167E+03  0.17245364626E+03 0.  0.
         24    2    3    3    0    0 -0.38321325700E+02 -0.11552292948E+03 -0.24356710252E+03  0.28240159843E+03  0.74911001373E+02 0.  0.
         -6    2    1    2    0  502  0.12200885538E+03  0.95196167557E+02 -0.31602190553E+02  0.23541206289E+03  0.17456136399E+03 0.  0.
        -24    2    5    5    0    0 -0.56038472708E+01  0.49121631233E+02 -0.13052888637E+02  0.98393701432E+02  0.84063100232E+02 0.  0.
          5    1    3    3  501    0 -0.83687529680E+02  0.20326761925E+02 -0.10082256859E+03  0.13268029323E+03  0.47000000000E+01 0. -1.
        -11    1    4    4    0    0 -0.25624631339E+02 -0.79820658931E+02 -0.85061459652E+02  0.11942952416E+03  0.00000000000E+00 0.  1.
         12    1    4    4    0    0 -0.12696694361E+02 -0.35702270550E+02 -0.15850564287E+03  0.16297207427E+03  0.00000000000E+00 0. -1.
         -5    1    5    5    0  502  0.12761270265E+03  0.46074536323E+02 -0.18549301916E+02  0.13701836146E+03  0.47000000000E+01 0.  1.
         11    1    6    6    0    0  0.26515942977E+02  0.93163779516E+01  0.22584326140E+02  0.36054707284E+02  0.00000000000E+00 0. -1.
        -12    1    6    6    0    0 -0.32119790248E+02  0.39805253282E+02 -0.35637214777E+02  0.62338994149E+02  0.00000000000E+00 0.  1.
</event>
<event>
12    1  0.8344842E-002  0.1853084E+03  0.7818608E-02  0.1162889E+00
         21   -1    0    0  501  502  0.00000000000E+00  0.00000000000E+00  0.28807734089E+02  0.28807734089E+02  0.00000000000E+00 0. -1.
         21   -1    0    0  502  503 -0.00000000000E+00 -0.00000000000E+00 -0.14146222766E+04  0.14146222766E+04  0.00000000000E+00 0. -1.
         -6    2    1    2    0  503  0.39394445308E+02  0.58197596402E+02 -0.98229371324E+03  0.99961999167E+03  0.17146517465E+03 0.  0.
        -24    2    3    3    0    0 -0.41932071309E+02  0.12603840400E+02 -0.48118270896E+03  0.48988758981E+03  0.80844887590E+02 0.  0.
          6    2    1    2  501    0 -0.39394445308E+02 -0.58197596402E+02 -0.40352082929E+03  0.44381001905E+03  0.17087829232E+03 0.  0.
         24    2    5    5    0    0 -0.53714594029E+02  0.70403797509E+01 -0.33203983478E+03  0.34586777705E+03  0.80244892404E+02 0.  0.
          5    1    5    5  501    0  0.14320148721E+02 -0.65237976153E+02 -0.71480994508E+02  0.97942241999E+02  0.47000000000E+01 0. -1.
        -11    1    6    6    0    0  0.84785103502E+00  0.26348552581E+02 -0.38399405105E+02  0.46577670475E+02  0.00000000000E+00 0.  1.
         12    1    6    6    0    0 -0.54562445064E+02 -0.19308172830E+02 -0.29364042968E+03  0.29929010657E+03  0.00000000000E+00 0. -1.
         -5    1    3    3    0  503  0.81326516616E+02  0.45593756002E+02 -0.50111100428E+03  0.50973240186E+03  0.47000000000E+01 0.  1.
         11    1    4    4    0    0 -0.16562724448E+02 -0.17122054920E+02 -0.38944360705E+03  0.39017151572E+03  0.00000000000E+00 0. -1.
        -12    1    4    4    0    0 -0.25369346861E+02  0.29725895320E+02 -0.91739101912E+02  0.99716074092E+02  0.00000000000E+00 0.  1.
</event>
<event>
12    1  0.8344842E-002  0.1732181E+03  0.7818608E-02  0.1174794E+00
         21   -1    0    0  503  502  0.00000000000E+00  0.00000000000E+00  0.67350860133E+03  0.67350860133E+03  0.00000000000E+00 0. -1.
         21   -1    0    0  501  503 -0.00000000000E+00 -0.00000000000E+00 -0.55399129431E+02  0.55399129431E+02  0.00000000000E+00 0. -1.
          6    2    1    2  501    0 -0.20479423289E+01 -0.92818017243E+01  0.14656152193E+03  0.22690261050E+03  0.17295713061E+03 0.  0.
         24    2    3    3    0    0 -0.25713834781E+02  0.48405880836E+02  0.12914277454E+03  0.16199154869E+03  0.80988116604E+02 0.  0.
         -6    2    1    2    0  502  0.20479423289E+01  0.92818017243E+01  0.47154794997E+03  0.50200512026E+03  0.17193407382E+03 0.  0.
        -24    2    5    5    0    0 -0.54508318356E+02 -0.35877930632E+01  0.17844859530E+03  0.20318484183E+03  0.80350169619E+02 0.  0.
          5    1    3    3  501    0  0.23665892452E+02 -0.57687682560E+02  0.17418747388E+02  0.64911061809E+02  0.47000000000E+01 0. -1.
        -11    1    4    4    0    0 -0.39049019438E+02 -0.68837022047E+01  0.40555608372E+02  0.56718327246E+02  0.00000000000E+00 0.  1.
         12    1    4    4    0    0  0.13335184657E+02  0.55289583040E+02  0.88587166173E+02  0.10527322144E+03  0.00000000000E+00 0. -1.
         -5    1    5    5    0  502  0.56556260685E+02  0.12869594787E+02  0.29309935467E+03  0.29882027843E+03  0.47000000000E+01 0.  1.
         13    1    6    6    0    0 -0.39877314614E+01 -0.16780182219E+02  0.13254179895E+03  0.13365928694E+03  0.00000000000E+00 0. -1.
        -14    1    6    6    0    0 -0.50520586895E+02  0.13192389156E+02  0.45906796352E+02  0.69525554893E+02  0.00000000000E+00 0.  1.
</event>
<event>
12    1  0.8344842E-002  0.2521346E+03  0.7818608E-02  0.1112170E+00
         21   -1    0    0  503  502  0.00000000000E+00  0.00000000000E+00  0.41610319089E+03  0.41610319089E+03  0.00000000000E+00 0.  1.
         21   -1    0    0  501  503 -0.00000000000E+00 -0.00000000000E+00 -0.22660054778E+03  0.22660054778E+03  0.00000000000E+00 0. -1.
          6    2    1    2  501    0  0.14319793981E+03 -0.11798264892E+03  0.27899246756E+03  0.37515880119E+03  0.16876544002E+03 0.  0.
         24    2    3    3    0    0  0.13984668637E+03 -0.38977325650E+02  0.22650239880E+03  0.28013054580E+03  0.78060607386E+02 0.  0.
         -6    2    1    2    0  502 -0.14319793981E+03  0.11798264892E+03 -0.89489824449E+02  0.26754493748E+03  0.17072290262E+03 0.  0.
        -24    2    5    5    0    0 -0.10016439516E+03  0.42076858283E+01 -0.33135565111E+02  0.13340128039E+03  0.81531130607E+02 0.  0.
          5    1    3    3  501    0  0.33512534416E+01 -0.79005323268E+02  0.52490068762E+02  0.95028255393E+02  0.47000000000E+01 0. -1.
        -11    1    4    4    0    0  0.30510590749E+02  0.23674401640E+02  0.59124310798E+02  0.70619102007E+02  0.00000000000E+00 0.  1.
         12    1    4    4    0    0  0.10933609562E+03 -0.62651727290E+02  0.16737808800E+03  0.20951144379E+03  0.00000000000E+00 0. -1.
         -5    1    5    5    0  502 -0.43033544655E+02  0.11377496309E+03 -0.56354259338E+02  0.13414365709E+03  0.47000000000E+01 0.  1.
         13    1    6    6    0    0 -0.31240602287E+02  0.29583786627E+01 -0.53059683913E+02  0.61644604731E+02  0.00000000000E+00 0. -1.
        -14    1    6    6    0    0 -0.68923792870E+02  0.12493071656E+01  0.19924118802E+02  0.71756675661E+02  0.00000000000E+00 0.  1.
</event>
<event>
12    1  0.8344842E-002  0.2147804E+03  0.7818608E-02  0.1138180E+00
         21   -1    0    0  503  502  0.00000000000E+00  0.00000000000E+00  0.83591356325E+02  0.83591356325E+02  0.00000000000E+00 0. -1.
         21   -1    0    0  501  503 -0.00000000000E+00 -0.00000000000E+00 -0.13064777884E+04  0.13064777884E+04  0.00000000000E+00 0.  1.
          6    2    1    2  501    0 -0.12727520811E+03  0.96110327125E+00 -0.11401974096E+04  0.11599211851E+04  0.17078384123E+03 0.  0.
         24    2    3    3    0    0 -0.15654174688E+03 -0.61578357389E+01 -0.89065917656E+03  0.90852780941E+03  0.87211089996E+02 0.  0.
         -6    2    1    2    0  502  0.12727520811E+03 -0.96110327125E+00 -0.82689022474E+02  0.23014795964E+03  0.17300493221E+03 0.  0.
        -24    2    5    5    0    0  0.30416848901E+02  0.48518356754E+02 -0.75840695930E+02  0.12106657585E+03  0.75007259579E+02 0.  0.
          5    1    3    3  501    0  0.29266538772E+02  0.71189390101E+01 -0.24953823307E+03  0.25139337570E+03  0.47000000000E+01 0. -1.
        -11    1    4    4    0    0 -0.14965450861E+03  0.55631791712E+01 -0.87528930249E+03  0.88800832427E+03  0.00000000000E+00 0.  1.
         12    1    4    4    0    0 -0.68872382764E+01 -0.11721014910E+02 -0.15369874066E+02  0.20519485140E+02  0.00000000000E+00 0. -1.
         -5    1    5    5    0  502  0.96858359211E+02 -0.49479460026E+02 -0.68483265442E+01  0.10908138379E+03  0.47000000000E+01 0.  1.
         13    1    6    6    0    0  0.47126926256E+02  0.53749698553E+02 -0.41856749695E+02  0.82836977056E+02  0.00000000000E+00 0. -1.
        -14    1    6    6    0    0 -0.16710077354E+02 -0.52313417984E+01 -0.33983946235E+02  0.38229598794E+02  0.00000000000E+00 0.  1.
</event>
<event>
12    1  0.8344842E-002  0.2009050E+03  0.7818608E-02  0.1150355E+00
         21   -1    0    0  501  502  0.00000000000E+00  0.00000000000E+00  0.38063726985E+03  0.38063726985E+03  0.00000000000E+00 0.  1.
         21   -1    0    0  502  503 -0.00000000000E+00 -0.00000000000E+00 -0.21851503231E+03  0.21851503231E+03  0.00000000000E+00 0.  1.
         -6    2    1    2    0  503 -0.61731107355E+02  0.67142111919E+02 -0.13643792656E+03  0.24285409414E+03  0.17900840882E+03 0.  0.
        -24    2    3    3    0    0 -0.17552868378E+02 -0.76549541989E+01 -0.13254610800E+03  0.15577048977E+03  0.79556729595E+02 0.  0.
          6    2    1    2  501    0  0.61731107355E+02 -0.67142111919E+02  0.29856016410E+03  0.35629820802E+03  0.17173074461E+03 0.  0.
         24    2    5    5    0    0  0.10495708451E+03 -0.41405091447E+02  0.25659967430E+03  0.29061980953E+03  0.76720985736E+02 0.  0.
          5    1    5    5  501    0 -0.43225977158E+02 -0.25737020472E+02  0.41960489793E+02  0.65678398486E+02  0.47000000000E+01 0. -1.
        -11    1    6    6    0    0  0.46533074609E+02  0.19800775522E+02  0.11564380672E+03  0.12621762070E+03  0.00000000000E+00 0.  1.
         12    1    6    6    0    0  0.58424009904E+02 -0.61205866969E+02  0.14095586759E+03  0.16440218883E+03  0.00000000000E+00 0. -1.
         -5    1    3    3    0  503 -0.44178238977E+02  0.74797066118E+02 -0.38918185538E+01  0.87083604373E+02  0.47000000000E+01 0.  1.
         11    1    4    4    0    0  0.19457781315E+01  0.14554108122E+02  0.46695339536E+01  0.15408201164E+02  0.00000000000E+00 0. -1.
        -12    1    4    4    0    0 -0.19498646510E+02 -0.22209062321E+02 -0.13721564195E+03  0.14036228860E+03  0.00000000000E+00 0.  1.
</event>
<event>
12    1  0.8344842E-002  0.2667130E+03  0.7818608E-02  0.1103403E+00
         21   -1    0    0  501  502  0.00000000000E+00  0.00000000000E+00  0.52476249226E+03  0.52476249226E+03  0.00000000000E+00 0.  1.
         21   -1    0    0  502  503 -0.00000000000E+00 -0.00000000000E+00 -0.13708729799E+03  0.13708729799E+03  0.00000000000E+00 0. -1.
         -6    2    1    2    0  503  0.15262694220E+03 -0.13559586262E+03  0.23633798545E+03  0.35519234083E+03  0.16918845757E+03 0.  0.
        -24    2    3    3    0    0  0.74094305878E+01 -0.24709244736E+02  0.76694112356E+02  0.11251513976E+03  0.78180709690E+02 0.  0.
          6    2    1    2  501    0 -0.15262694220E+03  0.13559586262E+03  0.15133720882E+03  0.30665744943E+03  0.17162348053E+03 0.  0.
         24    2    5    5    0    0 -0.74783414858E+02  0.75793568017E+02  0.15659467455E+03  0.20824169797E+03  0.86634222949E+02 0.  0.
          5    1    5    5  501    0 -0.77843527343E+02  0.59802294602E+02 -0.52574657248E+01  0.98415751456E+02  0.47000000000E+01 0. -1.
        -13    1    6    6    0    0 -0.20633200574E+02  0.79883578722E+02  0.86002372070E+02  0.11917853463E+03  0.00000000000E+00 0.  1.
         14    1    6    6    0    0 -0.54150214284E+02 -0.40900107055E+01  0.70592302477E+02  0.89063163337E+02  0.00000000000E+00 0. -1.
         -5    1    3    3    0  503  0.14521751161E+03 -0.11088661788E+03  0.15964387309E+03  0.24267720107E+03  0.47000000000E+01 0.  1.
         13    1    4    4    0    0  0.14573154115E+01 -0.39579085872E+02  0.60345531857E+01  0.40062995879E+02  0.00000000000E+00 0. -1.
        -14    1    4    4    0    0  0.59521151763E+01  0.14869841136E+02  0.70659559171E+02  0.72452143879E+02  0.00000000000E+00 0.  1.
</event>
<event>
12    1  0.8344842E-002  0.1944059E+03  0.7818608E-02  0.1154803E+00
         21   -1    0    0  503  502  0.00000000000E+00  0.00000000000E+00  0.15847302441E+03  0.15847302441E+03  0.00000000000E+00 0.  1.
         21   -1    0    0  501  503 -0.00000000000E+00 -0.00000000000E+00 -0.34507018097E+03  0.34507018097E+03  0.00000000000E+00 0.  1.
          6    2    1    2  501    0 -0.49916649229E+02  0.73642711010E+02 -0.23396624619E+03  0.30344951302E+03  0.17154148724E+03 0.  0.
         24    2    3    3    0    0  0.78495251916E+00  0.91936031937E+02 -0.94236389291E+02  0.15361019603E+03  0.79137507779E+02 0.  0.
         -6    2    1    2    0  502  0.49916649229E+02 -0.73642711010E+02  0.47369089626E+02  0.20009369235E+03  0.17285466239E+03 0.  0.
        -24    2    5    5    0    0  0.91442477295E+02 -0.46645507134E+02  0.65571452852E+02  0.14711577770E+03  0.82497918941E+02 0.  0.
          5    1    3    3  501    0 -0.50701601748E+02 -0.18293320927E+02 -0.13972985689E+03  0.14983931700E+03  0.47000000000E+01 0. -1.
        -11    1    4    4    0    0 -0.31839722208E+02  0.58408793735E+02 -0.81350862806E+02  0.10508719225E+03  0.00000000000E+00 0.  1.
         12    1    4    4    0    0  0.32624674727E+02  0.33527238202E+02 -0.12885526485E+02  0.48523003775E+02  0.00000000000E+00 0. -1.
         -5    1    5    5    0  502 -0.41525828067E+02 -0.26997203876E+02 -0.18202363226E+02  0.52977914651E+02  0.47000000000E+01 0.  1.
         11    1    6    6    0    0 -0.40270683733E+01  0.16038681761E+02  0.14556961435E+02  0.22030926411E+02  0.00000000000E+00 0. -1.
        -12    1    6    6    0    0  0.95469545669E+02 -0.62684188895E+02  0.51014491417E+02  0.12508485129E+03  0.00000000000E+00 0.  1.
</event>
<event>
12    1  0.8344842E-002  0.1723437E+03  0.7818608E-02  0.1175673E+00
         21   -1    0    0  501  502  0.00000000000E+00  0.00000000000E+00  0.96208359428E+02  0.96208359428E+02  0.00000000000E+00 0. -1.
         21   -1    0    0  502  503 -0.00000000000E+00 -0.00000000000E+00 -0.39465802975E+03  0.39465802975E+03  0.00000000000E+00 0. -1.
         -6    2    1    2    0  503 -0.14276532330E+01  0.22417635507E+01 -0.26456405535E+03  0.31522308203E+03  0.17136040487E+03 0.  0.
        -24    2    3    3    0    0  0.27115164583E+02 -0.59726575617E+02 -0.16207296217E+03  0.19201073812E+03  0.79359829275E+02 0.  0.
          6    2    1    2  501    0  0.14276532330E+01 -0.22417635507E+01 -0.33885614964E+02  0.17564330715E+03  0.17232316370E+03 0.  0.
         24    2    5    5    0    0 -0.24790854027E+02  0.64284262422E+01 -0.80141636779E+02  0.12156658510E+03  0.87748741068E+02 0.  0.
          5    1    5    5  501    0  0.26218507260E+02 -0.86701897930E+01  0.46256021814E+02  0.54076722053E+02  0.47000000000E+01 0. -1.
        -13    1    6    6    0    0 -0.18138347745E+02 -0.11610841132E+02 -0.94909837957E+02  0.97322600827E+02  0.00000000000E+00 0.  1.
         14    1    6    6    0    0 -0.66525062812E+01  0.18039267374E+02  0.14768201178E+02  0.24243984269E+02  0.00000000000E+00 0. -1.
         -5    1    3    3    0  503 -0.28542817816E+02  0.61968339167E+02 -0.10249109319E+03  0.12321234390E+03  0.47000000000E+01 0.  1.
         13    1    4    4    0    0  0.29950183767E+02 -0.40899692157E+02 -0.16512260669E+03  0.17272890195E+03  0.00000000000E+00 0. -1.
        -14    1    4    4    0    0 -0.28350191832E+01 -0.18826883460E+02  0.30496445245E+01  0.19281836176E+02  0.00000000000E+00 0.  1.
</event>
<event>
12    1  0.8344842E-002  0.1748110E+03  0.7818608E-02  0.1172964E+00
         21   -1    0    0  501  502  0.00000000000E+00  0.00000000000E+00  0.18946435970E+03  0.18946435970E+03  0.00000000000E+00 0.  1.
         21   -1    0    0  502  503 -0.00000000000E+00 -0.00000000000E+00 -0.22430216143E+03  0.22430216143E+03  0.00000000000E+00 0.  1.
         -6    2    1    2    0  503 -0.10526964667E+02 -0.16849049648E+02 -0.12721350501E+03  0.21619936907E+03  0.17367839206E+03 0.  0.
        -24    2    3    3    0    0  0.51400560897E+02 -0.36094111578E+02 -0.45037990281E+02  0.11141246124E+03  0.80246578743E+02 0.  0.
          6    2    1    2  501    0  0.10526964667E+02  0.16849049648E+02  0.92375703278E+02  0.19756715206E+03  0.17350735303E+03 0.  0.
         24    2    5    5    0    0 -0.50686545054E+02  0.15913393802E+02  0.21234530775E+02  0.10359308303E+03  0.86361215847E+02 0.  0.
          5    1    5    5  501    0  0.61213509720E+02  0.93565584564E+00  0.71141172503E+02  0.93974069026E+02  0.47000000000E+01 0. -1.
        -11    1    6    6    0    0 -0.11586590361E+02  0.44952317922E+02 -0.75314679342E+01  0.47028533594E+02  0.00000000000E+00 0.  1.
         12    1    6    6    0    0 -0.39099954693E+02 -0.29038924120E+02  0.28765998709E+02  0.56564549435E+02  0.00000000000E+00 0. -1.
         -5    1    3    3    0  503 -0.61927525564E+02  0.19245061930E+02 -0.82175514733E+02  0.10478690783E+03  0.47000000000E+01 0.  1.
         13    1    4    4    0    0  0.44649889127E+02 -0.10620517639E+02  0.12975032860E+02  0.47694438582E+02  0.00000000000E+00 0. -1.
        -14    1    4    4    0    0  0.67506717699E+01 -0.25473593939E+02 -0.58013023141E+02  0.63718022658E+02  0.00000000000E+00 0.  1.
</event>
<event>
12    1  0.8344842E-002  0.1909283E+03  0.7818608E-02  0.1158049E+00
         21   -1    0    0  503  502  0.00000000000E+00  0.00000000000E+00  0.19608691558E+03  0.19608691558E+03  0.00000000000E+00 0.  1.
         21   -1    0    0  501  503 -0.00000000000E+00 -0.00000000000E+00 -0.58720988731E+03  0.58720988731E+03  0.00000000000E+00 0.  1.
          6    2    1    2  501    0  0.33303935785E+02  0.72991921467E+02 -0.51976172565E+03  0.55307614669E+03  0.17118411094E+03 0.  0.
         24    2    3    3    0    0  0.13447205902E+01 -0.27070217948E+02 -0.20746561615E+03  0.22355410920E+03  0.78739144525E+02 0.  0.
         -6    2    1    2    0  502 -0.33303935785E+02 -0.72991921467E+02  0.12863875393E+03  0.23022065621E+03  0.17325313501E+03 0.  0.
        -24    2    5    5    0    0 -0.46020169417E+02 -0.87573554895E+02  0.28301611289E+02  0.12792716264E+03  0.76009172015E+02 0.  0.
          5    1    3    3  501    0  0.31959215194E+02  0.10006213942E+03 -0.31229610950E+03  0.32952203749E+03  0.47000000000E+01 0. -1.
        -11    1    4    4    0    0  0.74928192906E+01 -0.15290217028E+01 -0.19378284264E+03  0.19393367513E+03  0.00000000000E+00 0.  1.
         12    1    4    4    0    0 -0.61480987004E+01 -0.25541196245E+02 -0.13682773511E+02  0.29620434065E+02  0.00000000000E+00 0. -1.
         -5    1    5    5    0  502  0.12716233633E+02  0.14581633428E+02  0.10033714264E+03  0.10229349356E+03  0.47000000000E+01 0.  1.
         11    1    6    6    0    0 -0.23404746142E+01 -0.80075609946E+02  0.22646243865E+02  0.83249225166E+02  0.00000000000E+00 0. -1.
        -12    1    6    6    0    0 -0.43679694803E+02 -0.74979449490E+01  0.56553674243E+01  0.44677937478E+02  0.00000000000E+00 0.  1.
</event>
<event>
12    1  0.8344842E-002  0.1808523E+03  0.7818608E-02  0.1167363E+00
         21   -1    0    0  501  502  0.00000000000E+00  0.00000000000E+00  0.15420585394E+02  0.15420585394E+02  0.00000000000E+00 0.  1.
         21   -1    0    0  502  503 -0.00000000000E+00 -0.00000000000E+00 -0.21039503280E+04  0.21039503280E+04  0.00000000000E+00 0.  1.
         -6    2    1    2    0  503 -0.47217347555E+02  0.14663774021E+02 -0.10119841603E+04  0.10277400495E+04  0.17231704645E+03 0.  0.
        -24    2    3    3    0    0  0.45110470198E+02  0.70411248690E+01 -0.45198858908E+03  0.46011371072E+03  0.72982259279E+02 0.  0.
          6    2    1    2  501    0  0.47217347555E+02 -0.14663774021E+02 -0.10765455824E+04  0.10916308640E+04  0.17396277768E+03 0.  0.
         24    2    5    5    0    0  0.97423782921E+02 -0.20647138063E+02 -0.83806566308E+03  0.84780459649E+03  0.80628037326E+02 0.  0.
          5    1    5    5  501    0 -0.50206435366E+02  0.59833640421E+01 -0.23847991930E+03  0.24382626747E+03  0.47000000000E+01 0. -1.
        -13    1    6    6    0    0  0.58207509897E+02  0.27594487658E+02 -0.49196003795E+03  0.49615949945E+03  0.00000000000E+00 0.  1.
         14    1    6    6    0    0  0.39216273024E+02 -0.48241625721E+02 -0.34610562513E+03  0.35164509704E+03  0.00000000000E+00 0. -1.
         -5    1    3    3    0  503 -0.92327817753E+02  0.76226491520E+01 -0.55999557117E+03  0.56762633875E+03  0.47000000000E+01 0.  1.
         11    1    4    4    0    0  0.48772564787E+02 -0.13155594978E+02 -0.16916855736E+03  0.17654980474E+03  0.00000000000E+00 0. -1.
        -12    1    4    4    0    0 -0.36620945885E+01  0.20196719847E+02 -0.28282003172E+03  0.28356390597E+03  0.00000000000E+00 0.  1.
</event>
<event>
12    1  0.8344842E-002  0.1795932E+03  0.7818608E-02  0.1168517E+00
         21   -1    0    0  503  502  0.00000000000E+00  0.00000000000E+00  0.32867291986E+03  0.32867291986E+03  0.00000000000E+00 0. -1.
         21   -1    0    0  501  503 -0.00000000000E+00 -0.00000000000E+00 -0.97463333730E+02  0.97463333730E+02  0.00000000000E+00 0. -1.
          6    2    1    2  501    0  0.38264339789E+02 -0.27216058118E+02  0.11977058346E+03  0.21477788536E+03  0.17198742355E+03 0.  0.
         24    2    3    3    0    0  0.45200925166E+02  0.33490430925E+02  0.11955141337E+03  0.15349548933E+03  0.78125490118E+02 0.  0.
         -6    2    1    2    0  502 -0.38264339789E+02  0.27216058118E+02  0.11143900267E+03  0.21135836823E+03  0.17334599789E+03 0.  0.
        -24    2    5    5    0    0 -0.77898917601E+02  0.54978030833E+02  0.10333410898E+03  0.16206936145E+03  0.80608402815E+02 0.  0.
          5    1    3    3  501    0 -0.69365853770E+01 -0.60706489043E+02  0.21917009350E+00  0.61282396038E+02  0.47000000000E+01 0. -1.
        -11    1    4    4    0    0  0.17039436125E+02  0.35392673069E+02  0.11894500474E+03  0.12526331404E+03  0.00000000000E+00 0.  1.
         12    1    4    4    0    0  0.28161489041E+02 -0.19022421447E+01  0.60640862536E+00  0.28232175290E+02  0.00000000000E+00 0. -1.
         -5    1    5    5    0  502  0.39634577812E+02 -0.27761972715E+02  0.81048936916E+01  0.49289006778E+02  0.47000000000E+01 0.  1.
         13    1    6    6    0    0 -0.75624569906E+01  0.25172904749E+02  0.76845485764E+02  0.81216344239E+02  0.00000000000E+00 0. -1.
        -14    1    6    6    0    0 -0.70336460610E+02  0.29805126084E+02  0.26488623213E+02  0.80853017209E+02  0.00000000000E+00 0.  1.
</event>
<event>
12    1  0.8344842E-002  0.1845613E+03  0.7818608E-02  0.1163550E+00
         21   -1    0    0  501  502  0.00000000000E+00  0.00000000000E+00  0.37360190479E+03  0.37360190479E+03  0.00000000000E+00 0. -1.
         21   -1    0    0  502  503 -0.00000000000E+00 -0.00000000000E+00 -0.13679109198E+03  0.13679109198E+03  0.00000000000E+00 0. -1.
         -6    2    1    2    0  503  0.62043824042E+02 -0.22114616638E+02 -0.29188175968E+02  0.18685508409E+03  0.17240759978E+03 0.  0.
        -24    2    3    3    0    0 -0.99856278776E+01 -0.49748806486E+02 -0.50702257629E+02  0.10662518877E+03  0.78889514139E+02 0.  0.
          6    2    1    2  501    0 -0.62043824042E+02  0.22114616638E+02  0.26599898878E+03  0.32353791269E+03  0.17199658877E+03 0.  0.
         24    2    5    5    0    0  0.16587940557E+02  0.38230192512E+02  0.19952775456E+03  0.21921542629E+03  0.80668276878E+02 0.  0.
          5    1    5    5  501    0 -0.78631764599E+02 -0.16115575874E+02  0.66471234221E+02  0.10432248640E+03  0.47000000000E+01 0. -1.
        -11    1    6    6    0    0  0.48632870866E+02  0.14961566999E+02  0.12113545638E+03  0.13138798807E+03  0.00000000000E+00 0.  1.
         12    1    6    6    0    0 -0.32044930309E+02  0.23268625513E+02  0.78392298172E+02  0.87827438221E+02  0.00000000000E+00 0. -1.
         -5    1    3    3    0  503  0.72029451920E+02  0.27634189848E+02  0.21514081661E+02  0.80229895314E+02  0.47000000000E+01 0.  1.
         13    1    4    4    0    0 -0.78522023001E+01  0.21290335168E+02 -0.11025436458E+02  0.25228866435E+02  0.00000000000E+00 0. -1.
        -14    1    4    4    0    0 -0.21334255775E+01 -0.71039141654E+02 -0.39676821171E+02  0.81396322336E+02  0.00000000000E+00 0.  1.
</event>
<event>
12    1  0.8344842E-002  0.2446237E+03  0.7818608E-02  0.1117217E+00
         21   -1    0    0  501  502  0.00000000000E+00  0.00000000000E+00  0.12102578709E+04  0.12102578709E+04  0.00000000000E+00 0. -1.
         21   -1    0    0  502  503 -0.00000000000E+00 -0.00000000000E+00 -0.49008123206E+02  0.49008123206E+02  0.00000000000E+00 0.  1.
         -6    2    1    2    0  503  0.16399370590E+03  0.44801471774E+02  0.54381034290E+03  0.59513334359E+03  0.17190956972E+03 0.  0.
        -24    2    3    3    0    0  0.10140155972E+03  0.68002402890E+02  0.48346244530E+03  0.50502219715E+03  0.80030497209E+02 0.  0.
          6    2    1    2  501    0 -0.16399370590E+03 -0.44801471774E+02  0.61743940478E+03  0.66413265050E+03  0.17589670673E+03 0.  0.
         24    2    5    5    0    0 -0.53631115431E+01 -0.43926941143E+01  0.20221905305E+03  0.21778461895E+03  0.80557657043E+02 0.  0.
          5    1    5    5  501    0 -0.15863059436E+03 -0.40408777659E+02  0.41522035173E+03  0.44634803155E+03  0.47000000000E+01 0. -1.
        -11    1    6    6    0    0  0.26145882181E+02  0.16094377377E+02  0.35743707600E+02  0.47119515821E+02  0.00000000000E+00 0.  1.
         12    1    6    6    0    0 -0.31508993724E+02 -0.20487071492E+02  0.16647534545E+03  0.17066510313E+03  0.00000000000E+00 0. -1.
         -5    1    3    3    0  503  0.62592146185E+02 -0.23200931116E+02  0.60347897600E+02  0.90111146444E+02  0.47000000000E+01 0.  1.
         13    1    4    4    0    0  0.94615781341E+02  0.19167013734E+02  0.33041313955E+03  0.34422719719E+03  0.00000000000E+00 0. -1.
        -14    1    4    4    0    0  0.67857783742E+01  0.48835389156E+02  0.15304930575E+03  0.16079499996E+03  0.00000000000E+00 0.  1.
</event>
<event>
12    1  0.8344842E-002  0.2419800E+03  0.7818608E-02  0.1118628E+00
         21   -1    0    0  503  502  0.00000000000E+00  0.00000000000E+00  0.68041459637E+03  0.68041459637E+03  0.00000000000E+00 0. -1.
         21   -1    0    0  501  503 -0.00000000000E+00 -0.00000000000E+00 -0.96052131001E+02  0.96052131001E+02  0.00000000000E+00 0.  1.
          6    2    1    2  501    0 -0.16932076506E+03 -0.10080711887E+02  0.16546011694E+03  0.29314057120E+03  0.17257810392E+03 0.  0.
         24    2    3    3    0    0 -0.35718656377E+02 -0.17244162862E+01  0.98369791251E+01  0.87811561694E+02  0.79594649216E+02 0.  0.
         -6    2    1    2    0  502  0.16932076506E+03  0.10080711887E+02  0.41890234843E+03  0.48332615618E+03  0.17132966320E+03 0.  0.
        -24    2    5    5    0    0  0.47001758322E+02 -0.47138792954E+02  0.15598323087E+03  0.18771735468E+03  0.80472391846E+02 0.  0.
          5    1    3    3  501    0 -0.13360210868E+03 -0.83562956003E+01  0.15562313782E+03  0.20532900950E+03  0.47000000000E+01 0. -1.
        -11    1    4    4    0    0 -0.49383089307E+02 -0.61638460905E+01 -0.20826982121E+02  0.53948546713E+02  0.00000000000E+00 0.  1.
         12    1    4    4    0    0  0.13664432930E+02  0.44394298043E+01  0.30663961246E+02  0.33863014981E+02  0.00000000000E+00 0. -1.
         -5    1    5    5    0  502  0.12231900674E+03  0.57219504841E+02  0.26291911756E+03  0.29560880150E+03  0.47000000000E+01 0.  1.
         13    1    6    6    0    0  0.21160566701E+02 -0.15080886875E+02  0.14180873561E+03  0.14416976184E+03  0.00000000000E+00 0. -1.
        -14    1    6    6    0    0  0.25841191620E+02 -0.32057906079E+02  0.14174495253E+02  0.43547592841E+02  0.00000000000E+00 0.  1.
</event>
<event>
12    1  0.8344842E-002  0.1941439E+03  0.7818608E-02  0.1156348E+00
         21   -1    0    0  503  502  0.00000000000E+00  0.00000000000E+00  0.53579522397E+03  0.53579522397E+03  0.00000000000E+00 0.  1.
         21   -1    0    0  501  503 -0.00000000000E+00 -0.00000000000E+00 -0.10989933581E+03  0.10989933581E+03  0.00000000000E+00 0.  1.
          6    2    1    2  501    0  0.67690766475E+02 -0.51385222224E+02  0.15628445795E+02  0.19477195241E+03  0.17455481718E+03 0.  0.
         24    2    3    3    0    0  0.10299494319E+03 -0.74557642060E+02  0.22234965728E+02  0.15177099847E+03  0.79832587101E+02 0.  0.
         -6    2    1    2    0  502 -0.67690766475E+02  0.51385222224E+02  0.41026744237E+03  0.45092260736E+03  0.16670135763E+03 0.  0.
        -24    2    5    5    0    0  0.25315920088E+02  0.41772557301E+02  0.20798474382E+03  0.22802570921E+03  0.79700866044E+02 0.  0.
          5    1    3    3  501    0 -0.35304176714E+02  0.23172419836E+02 -0.66065199336E+01  0.43000953945E+02  0.47000000000E+01 0. -1.
        -11    1    4    4    0    0  0.32215597916E+02  0.77989217500E+01 -0.15788073934E+02  0.36714182656E+02  0.00000000000E+00 0.  1.
         12    1    4    4    0    0  0.70779345274E+02 -0.82356563810E+02  0.38023039662E+02  0.11505681581E+03  0.00000000000E+00 0. -1.
         -5    1    5    5    0  502 -0.93006686563E+02  0.96126649224E+01  0.20228269855E+03  0.22289689815E+03  0.47000000000E+01 0.  1.
         11    1    6    6    0    0 -0.23176195032E+01  0.56869696566E+02  0.16639445640E+03  0.17585974203E+03  0.00000000000E+00 0. -1.
        -12    1    6    6    0    0  0.27633539591E+02 -0.15097139265E+02  0.41590287418E+02  0.52165967180E+02  0.00000000000E+00 0.  1.
</event>
<event>
12    1  0.8344842E-002  0.1908844E+03  0.7818608E-02  0.1158875E+00
         21   -1    0    0  503  502  0.00000000000E+00  0.00000000000E+00  0.70071679407E+03  0.70071679407E+03  0.00000000000E+00 0.  1.
         21   -1    0    0  501  503 -0.00000000000E+00 -0.00000000000E+00 -0.93764495492E+02  0.93764495492E+02  0.00000000000E+00 0. -1.
          6    2    1    2  501    0  0.72643837121E+02 -0.40288926172E+02  0.36158295218E+02  0.19427890999E+03  0.17186200252E+03 0.  0.
         24    2    3    3    0    0  0.14064343803E+02  0.35933492449E+02 -0.30767031435E+01  0.90341961628E+02  0.81628317896E+02 0.  0.
         -6    2    1    2    0  502 -0.72643837121E+02  0.40288926172E+02  0.57079400336E+03  0.60020237957E+03  0.16594209090E+03 0.  0.
        -24    2    5    5    0    0 -0.27788913689E+02  0.78569190756E+02  0.26165983910E+03  0.28545904871E+03  0.77946492102E+02 0.  0.
          5    1    3    3  501    0  0.58579493318E+02 -0.76222418621E+02  0.39234998362E+02  0.10393694836E+03  0.47000000000E+01 0. -1.
        -13    1    4    4    0    0  0.38057514323E+02  0.19076585983E+02  0.25312631896E+02  0.49527970508E+02  0.00000000000E+00 0.  1.
         14    1    4    4    0    0 -0.23993170520E+02  0.16856906466E+02 -0.28389335039E+02  0.40813991120E+02  0.00000000000E+00 0. -1.
         -5    1    5    5    0  502 -0.44854923432E+02 -0.38280264584E+02  0.30913416425E+03  0.31474333086E+03  0.47000000000E+01 0.  1.
         11    1    6    6    0    0 -0.28856608816E+02  0.22248701303E+01  0.30635848568E+02  0.42145096238E+02  0.00000000000E+00 0. -1.
        -12    1    6    6    0    0  0.10676951270E+01  0.76344320626E+02  0.23102399053E+03  0.24331395247E+03  0.00000000000E+00 0.  1.
</event>
<event>
12    1  0.8344842E-002  0.2328138E+03  0.7818608E-02  0.1124830E+00
         21   -1    0    0  503  502  0.00000000000E+00  0.00000000000E+00  0.91956188528E+02  0.91956188528E+02  0.00000000000E+00 0.  1.
         21   -1    0    0  501  503 -0.00000000000E+00 -0.00000000000E+00 -0.61843960203E+03  0.61843960203E+03  0.00000000000E+00 0.  1.
          6    2    1    2  501    0 -0.88190278893E+02 -0.12940111481E+03 -0.34359227174E+03  0.41503965681E+03  0.17227911574E+03 0.  0.
         24    2    3    3    0    0 -0.20491546788E+02 -0.64035505981E+02 -0.71431890669E+02  0.12703072610E+03  0.80708369157E+02 0.  0.
         -6    2    1    2    0  502  0.88190278893E+02  0.12940111481E+03 -0.18289114175E+03  0.29535613374E+03  0.17106695239E+03 0.  0.
        -24    2    5    5    0    0  0.42314597589E+02  0.15239884311E+03 -0.16094318654E+03  0.23934473864E+03  0.79795125627E+02 0.  0.
          5    1    3    3  501    0 -0.67698732105E+02 -0.65365608826E+02 -0.27216038108E+03  0.28800893072E+03  0.47000000000E+01 0. -1.
        -11    1    4    4    0    0 -0.14392468804E+02 -0.95531322188E+01 -0.70094501759E+02  0.72191721618E+02  0.00000000000E+00 0.  1.
         12    1    4    4    0    0 -0.60990779845E+01 -0.54482373762E+02 -0.13373889100E+01  0.54839004478E+02  0.00000000000E+00 0. -1.
         -5    1    5    5    0  502  0.45875681304E+02 -0.22997728304E+02 -0.21947955218E+02  0.56011395095E+02  0.47000000000E+01 0.  1.
         11    1    6    6    0    0  0.42286181165E+01  0.49413615904E+01 -0.51239105372E+02  0.51650209921E+02  0.00000000000E+00 0. -1.
        -12    1    6    6    0    0  0.38085979472E+02  0.14745748152E+03 -0.10970408116E+03  0.18769452872E+03  0.00000000000E+00 0.  1.
</event>
<event>
12    1  0.8344842E-002  0.2105601E+03  0.7818608E-02  0.1141501E+00
         21   -1    0    0  501  502  0.00000000000E+00  0.00000000000E+00  0.59515067782E+03  0.59515067782E+03  0.00000000000E+00 0. -1.
         21   -1    0    0  502  503 -0.00000000000E+00 -0.00000000000E+00 -0.75897063243E+02  0.75897063243E+02  0.00000000000E+00 0. -1.
         -6    2    1    2    0  503  0.78603049335E+02  0.90972213146E+02  0.31624563853E+03  0.37993007643E+03  0.17286172554E+03 0.  0.
        -24    2    3    3    0    0  0.21013777200E+02  0.10172229553E+03  0.12764104645E+03  0.18238041005E+03  0.78621708122E+02 0.  0.
          6    2    1    2  501    0 -0.78603049335E+02 -0.90972213146E+02  0.20300797605E+03  0.29111766463E+03  0.17053701473E+03 0.  0.
         24    2    5    5    0    0 -0.53469338780E+02 -0.12053875451E+02  0.33474801539E+02  0.10237605637E+03  0.79724704307E+02 0.  0.
          5    1    5    5  501    0 -0.25133710555E+02 -0.78918337695E+02  0.16953317451E+03  0.18874160826E+03  0.47000000000E+01 0. -1.
        -13    1    6    6    0    0 -0.49089583420E+02  0.16034064078E+02 -0.78322518388E+01  0.52232390143E+02  0.00000000000E+00 0.  1.
         14    1    6    6    0    0 -0.43797553601E+01 -0.28087939529E+02  0.41307053377E+02  0.50143666227E+02  0.00000000000E+00 0. -1.
         -5    1    3    3    0  503  0.57589272135E+02 -0.10750082386E+02  0.18860459208E+03  0.19754966638E+03  0.47000000000E+01 0.  1.
         13    1    4    4    0    0 -0.26315314361E+02  0.65353237633E+02  0.73135072996E+02  0.10154939853E+03  0.00000000000E+00 0. -1.
        -14    1    4    4    0    0  0.47329091562E+02  0.36369057900E+02  0.54505973457E+02  0.80831011518E+02  0.00000000000E+00 0.  1.
</event>
<event>
12    1  0.8344842E-002  0.3373962E+03  0.7818608E-02  0.1067927E+00
         21   -1    0    0  501  502  0.00000000000E+00  0.00000000000E+00  0.43999236802E+03  0.43999236802E+03  0.00000000000E+00 0. -1.
         21   -1    0    0  502  503 -0.00000000000E+00 -0.00000000000E+00 -0.31007593630E+03  0.31007593630E+03  0.00000000000E+00 0.  1.
         -6    2    1    2    0  503  0.21195420019E+03  0.19786174260E+03 -0.87856711260E+02  0.34849470094E+03  0.17220889264E+03 0.  0.
        -24    2    3    3    0    0  0.12758633988E+03  0.48897999110E+02 -0.44544629828E+01  0.15800544207E+03  0.79224926893E+02 0.  0.
          6    2    1    2  501    0 -0.21195420019E+03 -0.19786174260E+03  0.21777314298E+03  0.40157360338E+03  0.17251772362E+03 0.  0.
         24    2    5    5    0    0 -0.14300767568E+03 -0.19821142068E+03  0.20958921929E+03  0.33198328706E+03  0.80909205007E+02 0.  0.
          5    1    5    5  501    0 -0.68946524519E+02  0.34967808505E+00  0.81839236913E+01  0.69590316317E+02  0.47000000000E+01 0. -1.
        -11    1    6    6    0    0 -0.70512916973E+02 -0.36847358435E+02  0.51806318021E+02  0.94940475408E+02  0.00000000000E+00 0.  1.
         12    1    6    6    0    0 -0.72494758702E+02 -0.16136406225E+03  0.15778290127E+03  0.23704281165E+03  0.00000000000E+00 0. -1.
         -5    1    3    3    0  503  0.84367860313E+02  0.14896374349E+03 -0.83402248277E+02  0.19048925887E+03  0.47000000000E+01 0.  1.
         11    1    4    4    0    0  0.21285073404E+02  0.11131753240E+02  0.31491187599E+02  0.39606377977E+02  0.00000000000E+00 0. -1.
        -12    1    4    4    0    0  0.10630126648E+03  0.37766245870E+02 -0.35945650582E+02  0.11839906409E+03  0.00000000000E+00 0.  1.
</event>
<event>
12    1  0.8344842E-002  0.1810911E+03  0.7818608E-02  0.1166820E+00
         21   -1    0    0  503  502  0.00000000000E+00  0.00000000000E+00  0.16587400941E+04  0.16587400941E+04  0.00000000000E+00 0.  1.
         21   -1    0    0  501  503 -0.00000000000E+00 -0.00000000000E+00 -0.32214454432E+02  0.32214454432E+02  0.00000000000E+00 0.  1.
          6    2    1    2  501    0 -0.40425827791E+02  0.36736717642E+02  0.28672226291E+03  0.33896820780E+03  0.17235415829E+03 0.  0.
         24    2    3    3    0    0 -0.92215958822E+02  0.33583185462E+02  0.17742982048E+03  0.21789347712E+03  0.79778523241E+02 0.  0.
         -6    2    1    2    0  502  0.40425827791E+02 -0.36736717642E+02  0.13398033767E+04  0.13519863407E+04  0.17265614138E+03 0.  0.
        -24    2    5    5    0    0  0.56002782897E+02 -0.44052851109E+02  0.13233256104E+04  0.13277010751E+04  0.80762048338E+02 0.  0.
          5    1    3    3  501    0  0.51790131031E+02  0.31535321802E+01  0.10929244243E+03  0.12107473068E+03  0.47000000000E+01 0. -1.
        -11    1    4    4    0    0 -0.25129368992E+01  0.30387479633E+02  0.19365413866E+02  0.36121088363E+02  0.00000000000E+00 0.  1.
         12    1    4    4    0    0 -0.89703021923E+02  0.31957058284E+01  0.15806440661E+03  0.18177238876E+03  0.00000000000E+00 0. -1.
         -5    1    5    5    0  502 -0.15576955106E+02  0.73161334677E+01  0.16477766345E+02  0.24285265554E+02  0.47000000000E+01 0.  1.
         11    1    6    6    0    0  0.37505560693E+02  0.12016723611E+02  0.28630512194E+03  0.28900119650E+03  0.00000000000E+00 0. -1.
        -12    1    6    6    0    0  0.18497222204E+02 -0.56069574720E+02  0.10370204884E+04  0.10386998786E+04  0.00000000000E+00 0.  1.
</event>
<event>
12    1  0.8344842E-002  0.1762555E+03  0.7818608E-02  0.1171870E+00
         21   -1    0    0  503  502  0.00000000000E+00  0.00000000000E+00  0.29028459707E+03  0.29028459707E+03  0.00000000000E+00 0.  1.
         21   -1    0    0  501  503 -0.00000000000E+00 -0.00000000000E+00 -0.11078157703E+03  0.11078157703E+03  0.00000000000E+00 0.  1.
          6    2    1    2  501    0 -0.21882833032E+02 -0.30562445277E+02  0.48761285746E+02  0.18287613364E+03  0.17220074281E+03 0.  0.
         24    2    3    3    0    0 -0.32753056238E+02  0.17591782001E+02 -0.29931619026E+02  0.89861862589E+02  0.76138157606E+02 0.  0.
         -6    2    1    2    0  502  0.21882833032E+02  0.30562445277E+02  0.13074173430E+03  0.21819004047E+03  0.17058889539E+03 0.  0.
        -24    2    5    5    0    0 -0.15186908650E+02  0.45687495602E+02  0.11202613190E+02  0.92036862265E+02  0.77635662067E+02 0.  0.
          5    1    3    3  501    0  0.10870223206E+02 -0.48154227278E+02  0.78692904771E+02  0.93014271048E+02  0.47000000000E+01 0. -1.
        -13    1    4    4    0    0 -0.54900422986E+02 -0.77114616090E+00 -0.26247645183E+02  0.60857127669E+02  0.00000000000E+00 0.  1.
         14    1    4    4    0    0  0.22147366748E+02  0.18362928161E+02 -0.36839738425E+01  0.29004734921E+02  0.00000000000E+00 0. -1.
         -5    1    5    5    0  502  0.37069741683E+02 -0.15125050325E+02  0.11953912111E+03  0.12615317820E+03  0.47000000000E+01 0.  1.
         11    1    6    6    0    0 -0.30324062592E+02  0.10282827109E+02  0.34470430843E+02  0.47047804497E+02  0.00000000000E+00 0. -1.
        -12    1    6    6    0    0  0.15137153942E+02  0.35404668493E+02 -0.23267817653E+02  0.44989057769E+02  0.00000000000E+00 0.  1.
</event>
<event>
12    1  0.8344842E-002  0.1896300E+03  0.7818608E-02  0.1159904E+00
         21   -1    0    0  501  502  0.00000000000E+00  0.00000000000E+00  0.10478295921E+03  0.10478295921E+03  0.00000000000E+00 0. -1.
         21   -1    0    0  502  503 -0.00000000000E+00 -0.00000000000E+00 -0.58363889869E+03  0.58363889869E+03  0.00000000000E+00 0.  1.
         -6    2    1    2    0  503  0.56320491499E+02  0.58287774797E+02 -0.46254395594E+03  0.49809161828E+03  0.16606892115E+03 0.  0.
        -24    2    3    3    0    0  0.69572690319E+02 -0.16573078105E+02 -0.29304585125E+03  0.31226517892E+03  0.80738125298E+02 0.  0.
          6    2    1    2  501    0 -0.56320491499E+02 -0.58287774797E+02 -0.16311983534E+02  0.19033023962E+03  0.17143528474E+03 0.  0.
         24    2    5    5    0    0 -0.32354948109E+02  0.34686278004E+02 -0.96401395188E+01  0.93970884773E+02  0.80545728293E+02 0.  0.
          5    1    5    5  501    0 -0.23965543391E+02 -0.92974052801E+02 -0.66718440154E+01  0.96359354848E+02  0.47000000000E+01 0. -1.
        -13    1    6    6    0    0  0.13551318389E-01 -0.18581393165E+02  0.17923674025E+02  0.25817173473E+02  0.00000000000E+00 0.  1.
         14    1    6    6    0    0 -0.32368499427E+02  0.53267671168E+02 -0.27563813544E+02  0.68153711300E+02  0.00000000000E+00 0. -1.
         -5    1    3    3    0  503 -0.13252198820E+02  0.74860852902E+02 -0.16949810469E+03  0.18582643936E+03  0.47000000000E+01 0.  1.
         11    1    4    4    0    0  0.16210970305E+02 -0.25228656793E+01 -0.25840231197E+01  0.16608358888E+02  0.00000000000E+00 0. -1.
        -12    1    4    4    0    0  0.53361720013E+02 -0.14050212425E+02 -0.29046182813E+03  0.29565682003E+03  0.00000000000E+00 0.  1.
</event>
<event>
12    1  0.8344842E-002  0.2901287E+03  0.7818608E-02  0.1090449E+00
         21   -1    0    0  503  502  0.00000000000E+00  0.00000000000E+00  0.35146206712E+02  0.35146206712E+02  0.00000000000E+00 0. -1.
         21   -1    0    0  501  503 -0.00000000000E+00 -0.00000000000E+00 -0.28662387382E+04  0.28662387382E+04  0.00000000000E+00 0. -1.
          6    2    1    2  501    0  0.14301361372E+03  0.18299498780E+03 -0.20077020535E+04  0.20283749037E+04  0.17174735818E+03 0.  0.
         24    2    3    3    0    0  0.32716889526E-01  0.69227505073E+02 -0.64821600673E+03  0.65665664606E+03  0.78876554796E+02 0.  0.
         -6    2    1    2    0  502 -0.14301361372E+03 -0.18299498780E+03 -0.82339047798E+03  0.87301004121E+03  0.17388097527E+03 0.  0.
        -24    2    5    5    0    0 -0.15855696109E+03 -0.93700747013E+02 -0.56181769381E+03  0.59613918954E+03  0.76306437005E+02 0.  0.
          5    1    3    3  501    0  0.14298089683E+03  0.11376748272E+03 -0.13594860468E+04  0.13717182576E+04  0.47000000000E+01 0. -1.
        -13    1    4    4    0    0  0.33013915304E+02  0.39364689338E+02 -0.21023011484E+03  0.21641672430E+03  0.00000000000E+00 0.  1.
         14    1    4    4    0    0 -0.32981198415E+02  0.29862815735E+02 -0.43798589189E+03  0.44023992176E+03  0.00000000000E+00 0. -1.
         -5    1    5    5    0  502  0.15543347378E+02 -0.89294240783E+02 -0.26157278417E+03  0.27687085167E+03  0.47000000000E+01 0.  1.
         11    1    6    6    0    0 -0.62816831201E+02 -0.80020223570E+02 -0.31642371191E+03  0.33237502301E+03  0.00000000000E+00 0. -1.
        -12    1    6    6    0    0 -0.95740129894E+02 -0.13680523443E+02 -0.24539398190E+03  0.26376416654E+03  0.00000000000E+00 0.  1.
</event>
<event>
12    1  0.8344842E-002  0.1838513E+03  0.7818608E-02  0.1164488E+00
         21   -1    0    0  501  502  0.00000000000E+00  0.00000000000E+00  0.85841495580E+02  0.85841495580E+02  0.00000000000E+00 0.  1.
         21   -1    0    0  502  503 -0.00000000000E+00 -0.00000000000E+00 -0.12838355568E+04  0.12838355568E+04  0.00000000000E+00 0.  1.
         -6    2    1    2    0  503 -0.48387584704E+02 -0.34005043676E+02 -0.11710223379E+04  0.11853668745E+04  0.17407932080E+03 0.  0.
        -24    2    3    3    0    0 -0.32923695941E+02  0.35740216305E+02 -0.33770288128E+03  0.34897764696E+03  0.73354135794E+02 0.  0.
          6    2    1    2  501    0  0.48387584704E+02  0.34005043676E+02 -0.26971723241E+02  0.18431017781E+03  0.17246758084E+03 0.  0.
         24    2    5    5    0    0 -0.32994465910E+02  0.49720630616E+02 -0.14060996406E+02  0.10029354432E+03  0.79374476523E+02 0.  0.
          5    1    5    5  501    0  0.81382050615E+02 -0.15715586940E+02 -0.12910726835E+02  0.84016633487E+02  0.47000000000E+01 0. -1.
        -11    1    6    6    0    0  0.31558421592E+01 -0.57807217804E+01  0.23323380179E+02  0.24235431645E+02  0.00000000000E+00 0.  1.
         12    1    6    6    0    0 -0.36150308070E+02  0.55501352396E+02 -0.37384376585E+02  0.76058112677E+02  0.00000000000E+00 0. -1.
         -5    1    3    3    0  503 -0.15463888764E+02 -0.69745259981E+02 -0.83331945667E+03  0.83638922757E+03  0.47000000000E+01 0.  1.
         13    1    4    4    0    0 -0.46993417680E+02  0.18800724020E+02 -0.12101122479E+03  0.13116998534E+03  0.00000000000E+00 0. -1.
        -14    1    4    4    0    0  0.14069721739E+02  0.16939492286E+02 -0.21669165649E+03  0.21780766162E+03  0.00000000000E+00 0.  1.
</event>
<event>
12    1  0.8344842E-002  0.2996060E+03  0.7818608E-02  0.1085677E+00
         21   -1    0    0  503  502  0.00000000000E+00  0.00000000000E+00  0.33063384996E+03  0.33063384996E+03  0.00000000000E+00 0. -1.
         21   -1    0    0  501  503 -0.00000000000E+00 -0.00000000000E+00 -0.29609031445E+03  0.29609031445E+03  0.00000000000E+00 0. -1.
          6    2    1    2  501    0  0.83250642527E+02 -0.22879965698E+03 -0.76113724802E+02  0.30912305339E+03  0.17459613547E+03 0.  0.
         24    2    3    3    0    0 -0.86124525841E+01 -0.15803622709E+03 -0.74732970503E+02  0.19306148466E+03  0.81474514840E+02 0.  0.
         -6    2    1    2    0  502 -0.83250642527E+02  0.22879965698E+03  0.11065726032E+03  0.31760111102E+03  0.17130523619E+03 0.  0.
        -24    2    5    5    0    0 -0.27183644609E+02  0.20767284704E+03  0.12318185106E+03  0.25621051136E+03  0.81259434920E+02 0.  0.
          5    1    3    3  501    0  0.91863095111E+02 -0.70763429889E+02 -0.13807542985E+01  0.11606156873E+03  0.47000000000E+01 0. -1.
        -11    1    4    4    0    0  0.31447581447E+01  0.17379057131E+01 -0.25081689348E+02  0.25337737875E+02  0.00000000000E+00 0.  1.
         12    1    4    4    0    0 -0.11757210729E+02 -0.15977413280E+03 -0.49651281155E+02  0.16772374679E+03  0.00000000000E+00 0. -1.
         -5    1    5    5    0  502 -0.56066997918E+02  0.21126809931E+02 -0.12524590748E+02  0.61390599662E+02  0.47000000000E+01 0.  1.
         13    1    6    6    0    0 -0.14377371372E+02  0.20856901408E+03  0.10499184887E+03  0.23394664086E+03  0.00000000000E+00 0. -1.
        -14    1    6    6    0    0 -0.12806273236E+02 -0.89616703271E+00  0.18190002196E+02  0.22263870495E+02  0.00000000000E+00 0.  1.
</event>
<event>
12    1  0.8344842E-002  0.2539375E+03  0.7818608E-02  0.1110877E+00
         21   -1    0    0  503  502  0.00000000000E+00  0.00000000000E+00  0.27006749048E+03  0.27006749048E+03  0.00000000000E+00 0. -1.
         21   -1    0    0  501  503 -0.00000000000E+00 -0.00000000000E+00 -0.30995297721E+03  0.30995297721E+03  0.00000000000E+00 0. -1.
          6    2    1    2  501    0 -0.74296018166E+02 -0.17095415450E+03 -0.15912549946E+03  0.29948089829E+03  0.17211235460E+03 0.  0.
         24    2    3    3    0    0  0.13796239219E+02 -0.11575587080E+03 -0.53782923880E+02  0.15140576681E+03  0.80257993248E+02 0.  0.
         -6    2    1    2    0  502  0.74296018166E+02  0.17095415450E+03  0.11924001274E+03  0.28053956939E+03  0.17245013221E+03 0.  0.
        -24    2    5    5    0    0  0.35137915539E+02  0.16518683839E+03  0.14219865092E+03  0.23454165636E+03  0.79170496759E+02 0.  0.
          5    1    3    3  501    0 -0.88092257385E+02 -0.55198283703E+02 -0.10534257558E+03  0.14807513149E+03  0.47000000000E+01 0. -1.
        -13    1    4    4    0    0  0.71601709210E+01  0.44453273422E+01  0.11657200994E+02  0.14384690397E+02  0.00000000000E+00 0.  1.
         14    1    4    4    0    0  0.66360682976E+01 -0.12020119814E+03 -0.65440124874E+02  0.13702107641E+03  0.00000000000E+00 0. -1.
         -5    1    5    5    0  502  0.39158102628E+02  0.57673161096E+01 -0.22958638180E+02  0.45997913035E+02  0.47000000000E+01 0.  1.
         11    1    6    6    0    0 -0.16877947797E+02  0.10168976033E+03  0.93068984897E+02  0.13887947447E+03  0.00000000000E+00 0. -1.
        -12    1    6    6    0    0  0.52015863336E+02  0.63497078061E+02  0.49129666025E+02  0.95662181893E+02  0.00000000000E+00 0.  1.
</event>
<event>
12    1  0.8344842E-002  0.1843074E+03  0.7818608E-02  0.1165321E+00
         21   -1    0    0  503  502  0.00000000000E+00  0.00000000000E+00  0.73317707252E+03  0.73317707252E+03  0.00000000000E+00 0. -1.
         21   -1    0    0  501  503 -0.00000000000E+00 -0.00000000000E+00 -0.48704661082E+02  0.48704661082E+02  0.00000000000E+00 0. -1.
          6    2    1    2  501    0 -0.31099419168E+02  0.26757097020E+02  0.22348347542E+03  0.28541419636E+03  0.17272314142E+03 0.  0.
         24    2    3    3    0    0 -0.31174724903E+02 -0.28353091847E+02  0.21076919879E+03  0.22866138658E+03  0.78016749896E+02 0.  0.
         -6    2    1    2    0  502  0.31099419168E+02 -0.26757097020E+02  0.46098893602E+03  0.49646753725E+03  0.17968333338E+03 0.  0.
        -24    2    5    5    0    0  0.20090130128E+02 -0.86671149146E+02  0.34043715912E+03  0.36131681027E+03  0.82078478638E+02 0.  0.
          5    1    3    3  501    0  0.75305735051E-01  0.55110188866E+02  0.12714276638E+02  0.56752809783E+02  0.47000000000E+01 0. -1.
        -11    1    4    4    0    0  0.67188179007E+00 -0.42435493961E+02  0.57383873629E+02  0.71373184919E+02  0.00000000000E+00 0.  1.
         12    1    4    4    0    0 -0.31846606693E+02  0.14082402114E+02  0.15338532516E+03  0.15728820166E+03  0.00000000000E+00 0. -1.
         -5    1    5    5    0  502  0.11009289039E+02  0.59914052126E+02  0.12055177690E+03  0.13515072697E+03  0.47000000000E+01 0.  1.
         11    1    6    6    0    0  0.19636482442E+02 -0.64187301404E+02  0.10379348921E+03  0.12360699619E+03  0.00000000000E+00 0. -1.
        -12    1    6    6    0    0  0.45364768680E+00 -0.22483847742E+02  0.23664366991E+03  0.23770981409E+03  0.00000000000E+00 0.  1.
</event>
<event>
12    1  0.8344842E-002  0.2394556E+03  0.7818608E-02  0.1120324E+00
         21   -1    0    0  501  502  0.00000000000E+00  0.00000000000E+00  0.16366219246E+03  0.16366219246E+03  0.00000000000E+00 0.  1.
         21   -1    0    0  502  503 -0.00000000000E+00 -0.00000000000E+00 -0.47078554256E+03  0.47078554256E+03  0.00000000000E+00 0.  1.
         -6    2    1    2    0  503  0.16353990908E+03  0.30567645098E+02 -0.31522470425E+03  0.39586059997E+03  0.17221880747E+03 0.  0.
        -24    2    3    3    0    0  0.11480150346E+03  0.86626974609E+02 -0.19693732568E+03  0.25610340145E+03  0.78236973753E+02 0.  0.
          6    2    1    2  501    0 -0.16353990908E+03 -0.30567645098E+02  0.81013541537E+01  0.23858713506E+03  0.17081717210E+03 0.  0.
         24    2    5    5    0    0 -0.48645821683E+02 -0.46206299214E+02 -0.35152084078E+02  0.11473977440E+03  0.86186476671E+02 0.  0.
          5    1    5    5  501    0 -0.11489408740E+03  0.15638654116E+02  0.43253438232E+02  0.12384736065E+03  0.47000000000E+01 0. -1.
        -11    1    6    6    0    0 -0.37804310899E+02  0.19560424924E+02 -0.14125761997E+02  0.44847667695E+02  0.00000000000E+00 0.  1.
         12    1    6    6    0    0 -0.10841510784E+02 -0.65766724137E+02 -0.21026322080E+02  0.69892106708E+02  0.00000000000E+00 0. -1.
         -5    1    3    3    0  503  0.48738405626E+02 -0.56059329511E+02 -0.11828737857E+03  0.13975719852E+03  0.47000000000E+01 0.  1.
         13    1    4    4    0    0 -0.91267778635E+01  0.10195930513E+02 -0.38810153144E+02  0.41151950868E+02  0.00000000000E+00 0. -1.
        -14    1    4    4    0    0  0.12392828132E+03  0.76431044096E+02 -0.15812717254E+03  0.21495145058E+03  0.00000000000E+00 0.  1.
</event>
<event>
12    1  0.8344842E-002  0.1746443E+03  0.7818608E-02  0.1174153E+00
         21   -1    0    0  503  502  0.00000000000E+00  0.00000000000E+00  0.12439351960E+03  0.12439351960E+03  0.00000000000E+00 0. -1.
         21   -1    0    0  501  503 -0.00000000000E+00 -0.00000000000E+00 -0.37305490141E+03  0.37305490141E+03  0.00000000000E+00 0. -1.
          6    2    1    2  501    0  0.10408750836E+02  0.30616815206E+02 -0.27224957375E+03  0.32121832638E+03  0.16737876606E+03 0.  0.
         24    2    3    3    0    0  0.65360621152E+01  0.52982597467E+02 -0.28071634257E+03  0.29654035830E+03  0.79275742651E+02 0.  0.
         -6    2    1    2    0  502 -0.10408750836E+02 -0.30616815206E+02  0.23588191941E+02  0.17623009463E+03  0.17162433390E+03 0.  0.
        -24    2    5    5    0    0  0.54224788345E+02 -0.30258997060E+01 -0.11711437181E+02  0.97446169737E+02  0.80056945329E+02 0.  0.
          5    1    3    3  501    0  0.38726887207E+01 -0.22365782261E+02  0.84667688234E+01  0.24677968077E+02  0.47000000000E+01 0. -1.
        -13    1    4    4    0    0  0.16669020765E+02  0.45379214108E+02 -0.67925111615E+02  0.83372358215E+02  0.00000000000E+00 0.  1.
         14    1    4    4    0    0 -0.10132958650E+02  0.76033833595E+01 -0.21279123096E+03  0.21316800009E+03  0.00000000000E+00 0. -1.
         -5    1    5    5    0  502 -0.64633539181E+02 -0.27590915500E+02  0.35299629122E+02  0.78783924891E+02  0.47000000000E+01 0.  1.
         13    1    6    6    0    0  0.48295809311E+01  0.10694305483E+02  0.29449733625E+02  0.31701416882E+02  0.00000000000E+00 0. -1.
        -14    1    6    6    0    0  0.49395207414E+02 -0.13720205189E+02 -0.41161170806E+02  0.65744752855E+02  0.00000000000E+00 0.  1.
</event>
<event>
12    1  0.8344842E-002  0.1833419E+03  0.7818608E-02  0.1165939E+00
         21   -1    0    0  501  502  0.00000000000E+00  0.00000000000E+00  0.21380841717E+02  0.21380841717E+02  0.00000000000E+00 0. -1.
         21   -1    0    0  502  503 -0.00000000000E+00 -0.00000000000E+00 -0.16249727607E+04  0.16249727607E+04  0.00000000000E+00 0. -1.
         -6    2    1    2    0  503  0.10331335727E+02 -0.44022318072E+02 -0.10175359549E+04  0.10339215001E+04  0.17767821442E+03 0.  0.
        -24    2    3    3    0    0 -0.63990117169E+02 -0.15289005671E+02 -0.62131972316E+03  0.62974496207E+03  0.78816432791E+02 0.  0.
          6    2    1    2  501    0 -0.10331335727E+02  0.44022318072E+02 -0.58605596401E+03  0.61243210224E+03  0.17194995177E+03 0.  0.
         24    2    5    5    0    0  0.28457710202E+02  0.25382590108E+02 -0.54670500284E+03  0.55392895970E+03  0.80602823196E+02 0.  0.
          5    1    5    5  501    0 -0.38789045928E+02  0.18639727964E+02 -0.39350961169E+02  0.58503142544E+02  0.47000000000E+01 0. -1.
        -11    1    6    6    0    0  0.17061049817E+02 -0.28920116211E+02 -0.19326361958E+03  0.19615881116E+03  0.00000000000E+00 0.  1.
         12    1    6    6    0    0  0.11396660385E+02  0.54302706319E+02 -0.35344138327E+03  0.35777014854E+03  0.00000000000E+00 0. -1.
         -5    1    3    3    0  503  0.74321452896E+02 -0.28733312402E+02 -0.39621623179E+03  0.40417653808E+03  0.47000000000E+01 0.  1.
         13    1    4    4    0    0 -0.15956335877E+01 -0.25352819691E+02 -0.64062905950E+02  0.68915654474E+02  0.00000000000E+00 0. -1.
        -14    1    4    4    0    0 -0.62394483581E+02  0.10063814020E+02 -0.55725681721E+03  0.56082930759E+03  0.00000000000E+00 0.  1.
</event>
<event>
12    1  0.8344842E-002  0.2661098E+03  0.7818608E-02  0.1104053E+00
         21   -1    0    0  501  502  0.00000000000E+00  0.00000000000E+00  0.37440653277E+03  0.37440653277E+03  0.00000000000E+00 0.  1.
         21   -1    0    0  502  503 -0.00000000000E+00 -0.00000000000E+00 -0.18994391498E+03  0.18994391498E+03  0.00000000000E+00 0.  1.
         -6    2    1    2    0  503  0.55995102285E+02 -0.19502626558E+03  0.54172734529E+02  0.26805688171E+03  0.16658064389E+03 0.  0.
        -24    2    3    3    0    0  0.16338335365E+02 -0.17148621835E+02  0.16675188670E+02  0.81935224577E+02  0.76643999608E+02 0.  0.
          6    2    1    2  501    0 -0.55995102285E+02  0.19502626558E+03  0.13028988326E+03  0.29629356604E+03  0.17217353992E+03 0.  0.
         24    2    5    5    0    0  0.30925244571E+02  0.68104050868E+02  0.71083659218E+02  0.13139401404E+03  0.81344746730E+02 0.  0.
          5    1    5    5  501    0 -0.86920346856E+02  0.12692221471E+03  0.59206224039E+02  0.16489955200E+03  0.47000000000E+01 0. -1.
        -13    1    6    6    0    0 -0.23223926506E+02  0.43876314284E+02  0.21584636512E+02  0.54132968244E+02  0.00000000000E+00 0.  1.
         14    1    6    6    0    0  0.54149171077E+02  0.24227736584E+02  0.49499022706E+02  0.77261045794E+02  0.00000000000E+00 0. -1.
         -5    1    3    3    0  503  0.39656766920E+02 -0.17787764375E+03  0.37497545858E+02  0.18612165713E+03  0.47000000000E+01 0.  1.
         11    1    4    4    0    0  0.46455605411E+02 -0.50566599724E+01  0.16261373831E+02  0.49478534366E+02  0.00000000000E+00 0. -1.
        -12    1    4    4    0    0 -0.30117270046E+02 -0.12091961863E+02  0.41381483979E+00  0.32456690211E+02  0.00000000000E+00 0.  1.
</event>
<event>
12    1  0.8344842E-002  0.1810561E+03  0.7818608E-02  0.1167170E+00
         21   -1    0    0  501  502  0.00000000000E+00  0.00000000000E+00  0.12990540928E+04  0.12990540928E+04  0.00000000000E+00 0.  1.
         21   -1    0    0  502  503 -0.00000000000E+00 -0.00000000000E+00 -0.24492112568E+03  0.24492112568E+03  0.00000000000E+00 0.  1.
         -6    2    1    2    0  503  0.52680930335E+02  0.60715736397E+01 -0.20420075034E+03  0.27290887618E+03  0.17311604152E+03 0.  0.
        -24    2    3    3    0    0 -0.29510517896E+02 -0.24929198132E+02 -0.69387981019E+02  0.11193355266E+03  0.78880242863E+02 0.  0.
          6    2    1    2  501    0 -0.52680930335E+02 -0.60715736397E+01  0.12583337175E+04  0.12710663423E+04  0.17144607794E+03 0.  0.
         24    2    5    5    0    0  0.22542920970E+02  0.37430625871E+02  0.66659462464E+03  0.67296241059E+03  0.81368159837E+02 0.  0.
          5    1    5    5  501    0 -0.75223851305E+02 -0.43502199510E+02  0.59173909282E+03  0.59810393172E+03  0.47000000000E+01 0. -1.
        -11    1    6    6    0    0 -0.26410204982E+02  0.23803461717E+02  0.39935870029E+03  0.40093824364E+03  0.00000000000E+00 0.  1.
         12    1    6    6    0    0  0.48953125951E+02  0.13627164154E+02  0.26723592434E+03  0.27202416695E+03  0.00000000000E+00 0. -1.
         -5    1    3    3    0  503  0.82191448231E+02  0.31000771772E+02 -0.13481276932E+03  0.16097532352E+03  0.47000000000E+01 0.  1.
         11    1    4    4    0    0 -0.33806353142E+02 -0.28952492761E+02 -0.84615560797E+02  0.95608103625E+02  0.00000000000E+00 0. -1.
        -12    1    4    4    0    0  0.42958352455E+01  0.40232946294E+01  0.15227579778E+02  0.16325449030E+02  0.00000000000E+00 0.  1.
</event>
<event>
12    1  0.8344842E-002  0.3503945E+03  0.7818608E-02  0.1062519E+00
         21   -1    0    0  501  502  0.00000000000E+00  0.00000000000E+00  0.35257206243E+03  0.35257206243E+03  0.00000000000E+00 0. -1.
         21   -1    0    0  502  503 -0.00000000000E+00 -0.00000000000E+00 -0.51082289408E+03  0.51082289408E+03  0.00000000000E+00 0.  1.
         -6    2    1    2    0  503  0.22542736309E+03 -0.20506493192E+03 -0.32310496793E+03  0.47615705927E+03  0.17163799828E+03 0.  0.
        -24    2    3    3    0    0  0.19988052042E+03 -0.14244264570E+03 -0.17202879862E+03  0.31056632633E+03  0.81335144524E+02 0.  0.
          6    2    1    2  501    0 -0.22542736309E+03  0.20506493192E+03  0.16485413628E+03  0.38723789725E+03  0.17293692631E+03 0.  0.
         24    2    5    5    0    0 -0.74852392041E+02  0.15049729472E+03  0.57611003037E+02  0.19443325891E+03  0.78949022703E+02 0.  0.
          5    1    5    5  501    0 -0.15057497105E+03  0.54567637198E+02  0.10724313325E+03  0.19280463834E+03  0.47000000000E+01 0. -1.
        -13    1    6    6    0    0 -0.29132817072E+02  0.16176013835E+02  0.39050562901E+02  0.51335474255E+02  0.00000000000E+00 0.  1.
         14    1    6    6    0    0 -0.45719574970E+02  0.13432128089E+03  0.18560440136E+02  0.14309778465E+03  0.00000000000E+00 0. -1.
         -5    1    3    3    0  503  0.25546842669E+02 -0.62622286214E+02 -0.15107616931E+03  0.16559073294E+03  0.47000000000E+01 0.  1.
         13    1    4    4    0    0  0.30524830592E+02 -0.24745911776E+02  0.38960960530E+01  0.39488036121E+02  0.00000000000E+00 0. -1.
        -14    1    4    4    0    0  0.16935568983E+03 -0.11769673393E+03 -0.17592489468E+03  0.27107829021E+03  0.00000000000E+00 0.  1.
</event>
<event>
12    1  0.8344842E-002  0.1942059E+03  0.7818608E-02  0.1155645E+00
         21   -1    0    0  503  502  0.00000000000E+00  0.00000000000E+00  0.37098304806E+02  0.37098304806E+02  0.00000000000E+00 0. -1.
         21   -1    0    0  501  503 -0.00000000000E+00 -0.00000000000E+00 -0.12061606468E+04  0.12061606468E+04  0.00000000000E+00 0. -1.
          6    2    1    2  501    0 -0.93645742662E+01  0.87322346127E+02 -0.83940945790E+03  0.86065349279E+03  0.16853281360E+03 0.  0.
         24    2    3    3    0    0 -0.21732886569E+01 -0.21334440109E+01 -0.18445894127E+03  0.19956626541E+03  0.76107282879E+02 0.  0.
         -6    2    1    2    0  502  0.93645742662E+01 -0.87322346127E+02 -0.32965288409E+03  0.38260545881E+03  0.17321381509E+03 0.  0.
        -24    2    5    5    0    0  0.23336198999E+02  0.21748040370E+02 -0.59505395495E+02  0.90897880741E+02  0.60860308794E+02 0.  0.
          5    1    3    3  501    0 -0.71912856093E+01  0.89455790138E+02 -0.65495051663E+03  0.66108722738E+03  0.47000000000E+01 0. -1.
        -11    1    4    4    0    0  0.21754134539E+02 -0.51224046903E+01 -0.11879096986E+02  0.25309965321E+02  0.00000000000E+00 0.  1.
         12    1    4    4    0    0 -0.23927423196E+02  0.29889606794E+01 -0.17257984428E+03  0.17425630009E+03  0.00000000000E+00 0. -1.
         -5    1    5    5    0  502 -0.13971624733E+02 -0.10907038650E+03 -0.27014748859E+03  0.29170757807E+03  0.47000000000E+01 0.  1.
         13    1    6    6    0    0  0.40837880664E+02  0.37450698222E+01 -0.24338887350E+02  0.47687938543E+02  0.00000000000E+00 0. -1.
        -14    1    6    6    0    0 -0.17501681665E+02  0.18002970547E+02 -0.35166508145E+02  0.43209942198E+02  0.00000000000E+00 0.  1.
</event>
<event>
12    1  0.8344842E-002  0.1907034E+03  0.7818608E-02  0.1158352E+00
         21   -1    0    0  503  502  0.00000000000E+00  0.00000000000E+00  0.17424744612E+03  0.17424744612E+03  0.00000000000E+00 0. -1.
         21   -1    0    0  501  503 -0.00000000000E+00 -0.00000000000E+00 -0.20749468376E+03  0.20749468376E+03  0.00000000000E+00 0. -1.
          6    2    1    2  501    0 -0.80476792029E+02 -0.52607310133E+01 -0.15707709029E+01  0.19070986906E+03  0.17281087202E+03 0.  0.
         24    2    3    3    0    0 -0.95472550473E+02  0.11464066435E+02 -0.51925180554E+02  0.13537228516E+03  0.79893669960E+02 0.  0.
         -6    2    1    2    0  502  0.80476792029E+02  0.52607310133E+01 -0.31676466740E+02  0.19103226082E+03  0.17025198026E+03 0.  0.
        -24    2    5    5    0    0  0.72238969189E+02  0.63021405437E+02 -0.46244468966E+02  0.13071249686E+03  0.75875158737E+02 0.  0.
          5    1    3    3  501    0  0.14995758445E+02 -0.16724797449E+02  0.50354409651E+02  0.55337583904E+02  0.47000000000E+01 0. -1.
        -13    1    4    4    0    0 -0.47277180502E+02  0.45573856704E+02 -0.22604942569E+02  0.69448481910E+02  0.00000000000E+00 0.  1.
         14    1    4    4    0    0 -0.48195369972E+02 -0.34109790269E+02 -0.29320237985E+02  0.65923803246E+02  0.00000000000E+00 0. -1.
         -5    1    5    5    0  502  0.82378228402E+01 -0.57760674423E+02  0.14568002226E+02  0.60319763957E+02  0.47000000000E+01 0.  1.
         11    1    6    6    0    0  0.16781735231E+02  0.25528191262E+02 -0.55283261132E+02  0.63162917506E+02  0.00000000000E+00 0. -1.
        -12    1    6    6    0    0  0.55457233958E+02  0.37493214175E+02  0.90387921659E+01  0.67549579356E+02  0.00000000000E+00 0.  1.
</event>
<event>
12    1  0.8344842E-002  0.2469898E+03  0.7818608E-02  0.1115288E+00
         21   -1    0    0  501  502  0.00000000000E+00  0.00000000000E+00  0.76316560187E+02  0.76316560187E+02  0.00000000000E+00 0. -1.
         21   -1    0    0  502  503 -0.00000000000E+00 -0.00000000000E+00 -0.10006043831E+04  0.10006043831E+04  0.00000000000E+00 0.  1.
         -6    2    1    2    0  503  0.17021784612E+03  0.49138690349E+02 -0.70411458245E+03  0.74604296003E+03  0.17150518055E+03 0.  0.
        -24    2    3    3    0    0  0.12908269235E+03 -0.14221824568E+02 -0.32896834333E+03  0.36333752964E+03  0.83242944251E+02 0.  0.
          6    2    1    2  501    0 -0.17021784612E+03 -0.49138690349E+02 -0.22017324051E+03  0.33087798331E+03  0.17209084222E+03 0.  0.
         24    2    5    5    0    0 -0.16703032023E+03 -0.66678958904E+02 -0.23538947905E+03  0.30697306211E+03  0.80492500117E+02 0.  0.
          5    1    5    5  501    0 -0.31875258914E+01  0.17540268554E+02  0.15216238544E+02  0.23904921202E+02  0.47000000000E+01 0. -1.
        -11    1    6    6    0    0 -0.36223698796E+02 -0.50085674187E+01 -0.10879348948E+03  0.11477484679E+03  0.00000000000E+00 0.  1.
         12    1    6    6    0    0 -0.13080662143E+03 -0.61670391485E+02 -0.12659598957E+03  0.19219821532E+03  0.00000000000E+00 0. -1.
         -5    1    3    3    0  503  0.41135153770E+02  0.63360514918E+02 -0.37514623912E+03  0.38270543039E+03  0.47000000000E+01 0.  1.
         11    1    4    4    0    0  0.18771098208E+02  0.22415264478E+02 -0.27105259321E+02  0.39868449837E+02  0.00000000000E+00 0. -1.
        -12    1    4    4    0    0  0.11031159414E+03 -0.36637089047E+02 -0.30186308401E+03  0.32346907980E+03  0.00000000000E+00 0.  1.
</event>
<event>
12    1  0.8344842E-002  0.1817483E+03  0.7818608E-02  0.1166239E+00
         21   -1    0    0  501  502  0.00000000000E+00  0.00000000000E+00  0.26362447416E+04  0.26362447416E+04  0.00000000000E+00 0. -1.
         21   -1    0    0  502  503 -0.00000000000E+00 -0.00000000000E+00 -0.29165012417E+02  0.29165012417E+02  0.00000000000E+00 0. -1.
         -6    2    1    2    0  503  0.19821478216E+01  0.59504552860E+02  0.29677400097E+03  0.34800467373E+03  0.17171990148E+03 0.  0.
        -24    2    3    3    0    0  0.19546563485E+02  0.10203963437E+03  0.24401860972E+03  0.27784084285E+03  0.82802759280E+02 0.  0.
          6    2    1    2  501    0 -0.19821478216E+01 -0.59504552860E+02  0.23103057282E+04  0.23174050802E+04  0.17119879558E+03 0.  0.
         24    2    5    5    0    0 -0.44544531776E+02 -0.55376006061E+02  0.87723182426E+03  0.88368561483E+03  0.79459895626E+02 0.  0.
          5    1    5    5  501    0  0.42562383955E+02 -0.41285467987E+01  0.14330739039E+04  0.14337194654E+04  0.47000000000E+01 0. -1.
        -11    1    6    6    0    0  0.11615597367E+02  0.69421195522E+01  0.39290738733E+02  0.41555712919E+02  0.00000000000E+00 0.  1.
         12    1    6    6    0    0 -0.56160129144E+02 -0.62318125613E+02  0.83794108552E+03  0.84212990191E+03  0.00000000000E+00 0. -1.
         -5    1    3    3    0  503 -0.17564415664E+02 -0.42535081510E+02  0.52755391252E+02  0.70163830873E+02  0.47000000000E+01 0.  1.
         13    1    4    4    0    0  0.20163059414E+02 -0.65410450318E+01  0.21232264064E+02  0.30002387777E+02  0.00000000000E+00 0. -1.
        -14    1    4    4    0    0 -0.61649592863E+00  0.10858067940E+03  0.22278634565E+03  0.24783845508E+03  0.00000000000E+00 0.  1.
</event>
<event>
12    1  0.8344842E-002  0.2355187E+03  0.7818608E-02  0.1122941E+00
         21   -1    0    0  503  502  0.00000000000E+00  0.00000000000E+00  0.31809301517E+03  0.31809301517E+03  0.00000000000E+00 0.  1.
         21   -1    0    0  501  503 -0.00000000000E+00 -0.00000000000E+00 -0.23758809991E+03  0.23758809991E+03  0.00000000000E+00 0. -1.
          6    2    1    2  501    0  0.74001818294E+02 -0.14188775579E+03  0.18422337982E+03  0.29901054748E+03  0.17280234221E+03 0.  0.
         24    2    3    3    0    0  0.25216912110E+02 -0.10485849125E+03  0.35987987337E+02  0.13855196999E+03  0.79185335210E+02 0.  0.
         -6    2    1    2    0  502 -0.74001818294E+02  0.14188775579E+03 -0.10371846456E+03  0.25667056761E+03  0.17179597210E+03 0.  0.
        -24    2    5    5    0    0 -0.70471901341E+02  0.88089294830E+02  0.10560461491E+01  0.13874464675E+03  0.80764775895E+02 0.  0.
          5    1    3    3  501    0  0.48784906184E+02 -0.37029264546E+02  0.14823539248E+03  0.16045857749E+03  0.47000000000E+01 0. -1.
        -13    1    4    4    0    0  0.79416675398E+01 -0.45934952740E+02  0.57016215529E+02  0.73647395065E+02  0.00000000000E+00 0.  1.
         14    1    4    4    0    0  0.17275244571E+02 -0.58923538508E+02 -0.21028228192E+02  0.64904574925E+02  0.00000000000E+00 0. -1.
         -5    1    5    5    0  502 -0.35299169532E+01  0.53798460964E+02 -0.10477451071E+03  0.11792592086E+03  0.47000000000E+01 0.  1.
         11    1    6    6    0    0  0.15315279042E+02  0.85574575737E+00 -0.53059792762E+01  0.16230942333E+02  0.00000000000E+00 0. -1.
        -12    1    6    6    0    0 -0.85787180383E+02  0.87233549072E+02  0.63620254253E+01  0.12251370441E+03  0.00000000000E+00 0.  1.
</event>
<event>
12    1  0.8344842E-002  0.2370738E+03  0.7818608E-02  0.1121960E+00
         21   -1    0    0  501  502  0.00000000000E+00  0.00000000000E+00  0.32642216822E+03  0.32642216822E+03  0.00000000000E+00 0. -1.
         21   -1    0    0  502  503 -0.00000000000E+00 -0.00000000000E+00 -0.17528044415E+03  0.17528044415E+03  0.00000000000E+00 0.  1.
         -6    2    1    2    0  503  0.15838702079E+03  0.35092719479E+02  0.11310555171E+03  0.26159695169E+03  0.17123712213E+03 0.  0.
        -24    2    3    3    0    0  0.17993011781E+03  0.53292970544E+02  0.84102674509E+02  0.22087090285E+03  0.80595954382E+02 0.  0.
          6    2    1    2  501    0 -0.15838702079E+03 -0.35092719479E+02  0.38036172359E+02  0.24010566067E+03  0.17287576627E+03 0.  0.
         24    2    5    5    0    0 -0.39631378676E+02 -0.69565286443E+02  0.39717694478E+02  0.11634711380E+03  0.74492821007E+02 0.  0.
          5    1    5    5  501    0 -0.11875564211E+03  0.34472566965E+02 -0.16815221192E+01  0.12375854687E+03  0.47000000000E+01 0. -1.
        -11    1    6    6    0    0 -0.30516362078E+02 -0.32556041733E+01 -0.10751929694E+02  0.32518476366E+02  0.00000000000E+00 0.  1.
         12    1    6    6    0    0 -0.91150165983E+01 -0.66309682270E+02  0.50469624172E+02  0.83828637436E+02  0.00000000000E+00 0. -1.
         -5    1    3    3    0  503 -0.21543097025E+02 -0.18200251065E+02  0.29002877202E+02  0.40726048842E+02  0.47000000000E+01 0.  1.
         13    1    4    4    0    0  0.39990536296E+02  0.34449150738E+02  0.55895564313E+02  0.76878482618E+02  0.00000000000E+00 0. -1.
        -14    1    4    4    0    0  0.13993958151E+03  0.18843819805E+02  0.28207110196E+02  0.14399242023E+03  0.00000000000E+00 0.  1.
</event>
<event>
12    1  0.8344842E-002  0.2516484E+03  0.7818608E-02  0.1112348E+00
         21   -1    0    0  501  502  0.00000000000E+00  0.00000000000E+00  0.11671144582E+03  0.11671144582E+03  0.00000000000E+00 0.  1.
         21   -1    0    0  502  503 -0.00000000000E+00 -0.00000000000E+00 -0.54188170090E+03  0.54188170090E+03  0.00000000000E+00 0.  1.
         -6    2    1    2    0  503  0.11744598710E+03  0.14108460341E+03 -0.22161585599E+03  0.33532147632E+03  0.17212925274E+03 0.  0.
        -24    2    3    3    0    0  0.15566266327E+02  0.86717426462E+02 -0.17339930981E+03  0.21009291424E+03  0.79432306232E+02 0.  0.
          6    2    1    2  501    0 -0.11744598710E+03 -0.14108460341E+03 -0.20355439910E+03  0.32327167040E+03  0.17138189603E+03 0.  0.
         24    2    5    5    0    0 -0.11510947482E+03 -0.10617542261E+03 -0.75829761998E+02  0.19075833856E+03  0.78199612303E+02 0.  0.
          5    1    5    5  501    0 -0.23365122758E+01 -0.34909180799E+02 -0.12772463710E+03  0.13251333184E+03  0.47000000000E+01 0. -1.
        -13    1    6    6    0    0 -0.88642247163E+02 -0.67539721423E+02 -0.88427003480E+02  0.14226171972E+03  0.00000000000E+00 0.  1.
         14    1    6    6    0    0 -0.26467227662E+02 -0.38635701185E+02  0.12597241482E+02  0.48496618842E+02  0.00000000000E+00 0. -1.
         -5    1    3    3    0  503  0.10187972077E+03  0.54367176945E+02 -0.48216546178E+02  0.12522856207E+03  0.47000000000E+01 0.  1.
         11    1    4    4    0    0 -0.24833124822E+02  0.27029826974E+01 -0.29763486059E+02  0.38856856619E+02  0.00000000000E+00 0. -1.
        -12    1    4    4    0    0  0.40399391149E+02  0.84014443765E+02 -0.14363582375E+03  0.17123605763E+03  0.00000000000E+00 0.  1.
</event>
<event>
12    1  0.8344842E-002  0.1857889E+03  0.7818608E-02  0.1162508E+00
         21   -1    0    0  501  502  0.00000000000E+00  0.00000000000E+00  0.11586211971E+04  0.11586211971E+04  0.00000000000E+00 0. -1.
         21   -1    0    0  502  503 -0.00000000000E+00 -0.00000000000E+00 -0.30159783379E+02  0.30159783379E+02  0.00000000000E+00 0. -1.
         -6    2    1    2    0  503 -0.12729246262E+02 -0.67889743557E+02  0.48891258682E+03  0.52302295848E+03  0.17247158186E+03 0.  0.
        -24    2    3    3    0    0  0.52966556387E+02 -0.69555639367E+02  0.28503992591E+03  0.30876875067E+03  0.80292832589E+02 0.  0.
          6    2    1    2  501    0  0.12729246262E+02  0.67889743557E+02  0.63954882690E+03  0.66575802200E+03  0.17158085815E+03 0.  0.
         24    2    5    5    0    0 -0.16573536646E+02  0.72916834339E+02  0.62073895029E+03  0.63026399172E+03  0.79525517913E+02 0.  0.
          5    1    5    5  501    0  0.29302782908E+02 -0.50270907822E+01  0.18809876605E+02  0.35494030284E+02  0.47000000000E+01 0. -1.
        -13    1    6    6    0    0 -0.30255279245E+02 -0.44514498120E+01  0.17009678138E+03  0.17282393458E+03  0.00000000000E+00 0.  1.
         14    1    6    6    0    0  0.13681742600E+02  0.77368284151E+02  0.45064216891E+03  0.45744005714E+03  0.00000000000E+00 0. -1.
         -5    1    3    3    0  503 -0.65695802649E+02  0.16658958100E+01  0.20387266091E+03  0.21425420780E+03  0.47000000000E+01 0.  1.
         13    1    4    4    0    0  0.16999645740E+02 -0.79361944577E+02  0.18558566264E+03  0.20255701513E+03  0.00000000000E+00 0. -1.
        -14    1    4    4    0    0  0.35966910647E+02  0.98063052098E+01  0.99454263274E+02  0.10621173554E+03  0.00000000000E+00 0.  1.
</event>
<event>
12    1  0.8344842E-002  0.1882597E+03  0.7818608E-02  0.1160602E+00
         21   -1    0    0  501  502  0.00000000000E+00  0.00000000000E+00  0.41442151817E+02  0.41442151817E+02  0.00000000000E+00 0. -1.
         21   -1    0    0  502  503 -0.00000000000E+00 -0.00000000000E+00 -0.11567515437E+04  0.11567515437E+04  0.00000000000E+00 0.  1.
         -6    2    1    2    0  503 -0.11758690986E+02 -0.67178743243E+02 -0.87175068936E+03  0.89184695836E+03  0.17547216981E+03 0.  0.
        -24    2    3    3    0    0 -0.64229027799E+02 -0.43280113186E+02 -0.35633101943E+03  0.37319118917E+03  0.79380930049E+02 0.  0.
          6    2    1    2  501    0  0.11758690986E+02  0.67178743243E+02 -0.24355870249E+03  0.30634673712E+03  0.17284742240E+03 0.  0.
         24    2    5    5    0    0 -0.26197356864E+02  0.99844581185E+02 -0.19911670482E+03  0.23922818757E+03  0.83231134158E+02 0.  0.
          5    1    5    5  501    0  0.37956047850E+02 -0.32665837942E+02 -0.44441997671E+02  0.67118549551E+02  0.47000000000E+01 0. -1.
        -13    1    6    6    0    0 -0.12480236636E+02 -0.10514656837E+02 -0.81516221762E+01  0.18241799774E+02  0.00000000000E+00 0.  1.
         14    1    6    6    0    0 -0.13717120228E+02  0.11035923802E+03 -0.19096508264E+03  0.22098638780E+03  0.00000000000E+00 0. -1.
         -5    1    3    3    0  503  0.52470336814E+02 -0.23898630057E+02 -0.51541966993E+03  0.51865576919E+03  0.47000000000E+01 0.  1.
         13    1    4    4    0    0 -0.92477449537E+01 -0.50146949463E+02 -0.22395307950E+03  0.22968504336E+03  0.00000000000E+00 0. -1.
        -14    1    4    4    0    0 -0.54981282846E+02  0.68668362773E+01 -0.13237793994E+03  0.14350614581E+03  0.00000000000E+00 0.  1.
</event>
<event>
12    1  0.8344842E-002  0.2078277E+03  0.7818608E-02  0.1143319E+00
         21   -1    0    0  501  502  0.00000000000E+00  0.00000000000E+00  0.36021386098E+03  0.36021386098E+03  0.00000000000E+00 0. -1.
         21   -1    0    0  502  503 -0.00000000000E+00 -0.00000000000E+00 -0.18651569749E+03  0.18651569749E+03  0.00000000000E+00 0. -1.
         -6    2    1    2    0  503  0.22687030240E+01 -0.11603623431E+03  0.25027021617E+03  0.32524452575E+03  0.17227671271E+03 0.  0.
        -24    2    3    3    0    0  0.20233711787E+02 -0.44869601627E+02  0.40812045242E+02  0.10324847507E+03  0.81067504744E+02 0.  0.
          6    2    1    2  501    0 -0.22687030240E+01  0.11603623431E+03 -0.76572052680E+02  0.22148503272E+03  0.17240297498E+03 0.  0.
         24    2    5    5    0    0  0.60383343491E+02  0.18868380791E+02 -0.28152225694E+02  0.96052021375E+02  0.66567852856E+02 0.  0.
          5    1    5    5  501    0 -0.62652046515E+02  0.97167853515E+02 -0.48419826987E+02  0.12543301134E+03  0.47000000000E+01 0. -1.
        -11    1    6    6    0    0  0.29212665725E+02 -0.24428974594E+02 -0.73172956905E+01  0.38777538017E+02  0.00000000000E+00 0.  1.
         12    1    6    6    0    0  0.31170677766E+02  0.43297355384E+02 -0.20834930003E+02  0.57274483358E+02  0.00000000000E+00 0. -1.
         -5    1    3    3    0  503 -0.17965008763E+02 -0.71166632679E+02  0.20945817093E+03  0.22199605068E+03  0.47000000000E+01 0.  1.
         13    1    4    4    0    0  0.44706849840E+02 -0.52733240420E+02  0.29915490509E+02  0.75328836711E+02  0.00000000000E+00 0. -1.
        -14    1    4    4    0    0 -0.24473138054E+02  0.78636387929E+01  0.10896554733E+02  0.27919638363E+02  0.00000000000E+00 0.  1.
</event>
<event>
12    1  0.8344842E-002  0.1792522E+03  0.7818608E-02  0.1169061E+00
         21   -1    0    0  501  502  0.00000000000E+00  0.00000000000E+00  0.94857498605E+03  0.94857498605E+03  0.00000000000E+00 0.  1.
         21   -1    0    0  502  503 -0.00000000000E+00 -0.00000000000E+00 -0.41313265081E+02  0.41313265081E+02  0.00000000000E+00 0.  1.
         -6    2    1    2    0  503 -0.38743402028E+02 -0.13799608240E+02  0.24013357376E+03  0.29965897284E+03  0.17447030226E+03 0.  0.
        -24    2    3    3    0    0 -0.25173051097E+02 -0.50306000902E+02  0.54676357446E+02  0.11009805859E+03  0.77250904289E+02 0.  0.
          6    2    1    2  501    0  0.38743402028E+02  0.13799608240E+02  0.66712814721E+03  0.69022927829E+03  0.17223533731E+03 0.  0.
         24    2    5    5    0    0  0.10344531873E+01 -0.55232092585E+02  0.41485202504E+03  0.42593271690E+03  0.79150631751E+02 0.  0.
          5    1    5    5  501    0  0.37708948841E+02  0.69031700825E+02  0.25227612217E+03  0.26429656138E+03  0.47000000000E+01 0. -1.
        -11    1    6    6    0    0  0.17106284356E+02 -0.67506509141E+02  0.37306767090E+03  0.37951184542E+03  0.00000000000E+00 0.  1.
         12    1    6    6    0    0 -0.16071831168E+02  0.12274416557E+02  0.41784354137E+02  0.46420871486E+02  0.00000000000E+00 0. -1.
         -5    1    3    3    0  503 -0.13570350931E+02  0.36506392663E+02  0.18545721631E+03  0.18956091425E+03  0.47000000000E+01 0.  1.
         11    1    4    4    0    0  0.65553284077E+01 -0.12646675240E+02 -0.17599054121E+02  0.22641497987E+02  0.00000000000E+00 0. -1.
        -12    1    4    4    0    0 -0.31728379505E+02 -0.37659325662E+02  0.72275411567E+02  0.87456560603E+02  0.00000000000E+00 0.  1.
</event>
<event>
12    1  0.8344842E-002  0.1878457E+03  0.7818608E-02  0.1160691E+00
         21   -1    0    0  501  502  0.00000000000E+00  0.00000000000E+00  0.77172037050E+02  0.77172037050E+02  0.00000000000E+00 0. -1.
         21   -1    0    0  502  503 -0.00000000000E+00 -0.00000000000E+00 -0.52749523875E+03  0.52749523875E+03  0.00000000000E+00 0. -1.
         -6    2    1    2    0  503 -0.48141737128E+02  0.58889155824E+02 -0.33835315857E+03  0.38699981227E+03  0.17175690744E+03 0.  0.
        -24    2    3    3    0    0 -0.59631484270E+02 -0.18992247521E+02 -0.20419499199E+03  0.23137837757E+03  0.89015388967E+02 0.  0.
          6    2    1    2  501    0  0.48141737128E+02 -0.58889155824E+02 -0.11197004313E+03  0.21766746353E+03  0.17045901148E+03 0.  0.
         24    2    5    5    0    0  0.70288735618E+02 -0.19019159813E+02 -0.12924257048E+03  0.16867219513E+03  0.80277223363E+02 0.  0.
          5    1    5    5  501    0 -0.22146998490E+02 -0.39869996011E+02  0.17272527355E+02  0.48995268397E+02  0.47000000000E+01 0. -1.
        -13    1    6    6    0    0 -0.95739912236E+01  0.16573707495E+02 -0.36487169653E+02  0.41202701821E+02  0.00000000000E+00 0.  1.
         14    1    6    6    0    0  0.79862726842E+02 -0.35592867308E+02 -0.92755400828E+02  0.12746949331E+03  0.00000000000E+00 0. -1.
         -5    1    3    3    0  503  0.11489747142E+02  0.77881403345E+02 -0.13415816658E+03  0.15562143470E+03  0.47000000000E+01 0.  1.
         11    1    4    4    0    0 -0.30395884126E+02  0.28662282934E+02 -0.39663331511E+02  0.57607430956E+02  0.00000000000E+00 0. -1.
        -12    1    4    4    0    0 -0.29235600143E+02 -0.47654530455E+02 -0.16453166048E+03  0.17377094662E+03  0.00000000000E+00 0.  1.
</event>
<event>
12    1  0.8344842E-002  0.1736005E+03  0.7818608E-02  0.1174312E+00
         21   -1    0    0  503  502  0.00000000000E+00  0.00000000000E+00  0.10284549261E+03  0.10284549261E+03  0.00000000000E+00 0.  1.
         21   -1    0    0  501  503 -0.00000000000E+00 -0.00000000000E+00 -0.52502668895E+03  0.52502668895E+03  0.00000000000E+00 0.  1.
          6    2    1    2  501    0  0.17009440350E+02  0.13128703460E+02 -0.42049879360E+03  0.45492456859E+03  0.17226561983E+03 0.  0.
         24    2    3    3    0    0  0.16567844600E+02 -0.56395231614E+02 -0.19602675621E+03  0.21988508654E+03  0.80424166197E+02 0.  0.
         -6    2    1    2    0  502 -0.17009440350E+02 -0.13128703460E+02 -0.16824027398E+01  0.17294761297E+03  0.17159942436E+03 0.  0.
        -24    2    5    5    0    0 -0.70802967858E+02  0.15605068140E+02 -0.10772175700E+02  0.11110840854E+03  0.83501259096E+02 0.  0.
          5    1    3    3  501    0  0.44159575009E+00  0.69523935074E+02 -0.22447203739E+03  0.23503948206E+03  0.47000000000E+01 0. -1.
        -13    1    4    4    0    0  0.30900724910E+02  0.61385903933E+01 -0.38188125447E+02  0.49506262403E+02  0.00000000000E+00 0.  1.
         14    1    4    4    0    0 -0.14332880310E+02 -0.62533822008E+02 -0.15783863076E+03  0.17037882413E+03  0.00000000000E+00 0. -1.
         -5    1    5    5    0  502  0.53793527508E+02 -0.28733771600E+02  0.90897729606E+01  0.61839204431E+02  0.47000000000E+01 0.  1.
         13    1    6    6    0    0  0.95118882206E+01  0.26616904635E+02 -0.10171632226E+02  0.30039935619E+02  0.00000000000E+00 0. -1.
        -14    1    6    6    0    0 -0.80314856079E+02 -0.11011836494E+02 -0.60054347485E+00  0.81068472925E+02  0.00000000000E+00 0.  1.
</event>
<event>
12    1  0.8344842E-002  0.2305810E+03  0.7818608E-02  0.1126902E+00
         21   -1    0    0  503  502  0.00000000000E+00  0.00000000000E+00  0.94240777082E+02  0.94240777082E+02  0.00000000000E+00 0. -1.
         21   -1    0    0  501  503 -0.00000000000E+00 -0.00000000000E+00 -0.55494716319E+03  0.55494716319E+03  0.00000000000E+00 0. -1.
          6    2    1    2  501    0 -0.48396203335E+01  0.15256976719E+03 -0.23404787076E+03  0.32855133787E+03  0.17281961702E+03 0.  0.
         24    2    3    3    0    0  0.33815363026E+01  0.18111651169E+03 -0.20639958033E+03  0.28769767216E+03  0.85758604302E+02 0.  0.
         -6    2    1    2    0  502  0.48396203335E+01 -0.15256976719E+03 -0.22665851535E+03  0.32063660240E+03  0.16772832925E+03 0.  0.
        -24    2    5    5    0    0  0.14419869996E+02 -0.13472213091E+03 -0.87059816925E+02  0.17949764284E+03  0.79259112120E+02 0.  0.
          5    1    3    3  501    0 -0.82211566361E+01 -0.28546744506E+02 -0.27648290427E+02  0.40853665709E+02  0.47000000000E+01 0. -1.
        -13    1    4    4    0    0  0.43084624998E+02  0.88823608256E+02 -0.86389290176E+02  0.13118318395E+03  0.00000000000E+00 0.  1.
         14    1    4    4    0    0 -0.39703088696E+02  0.92292903439E+02 -0.12001029015E+03  0.15651448821E+03  0.00000000000E+00 0. -1.
         -5    1    5    5    0  502 -0.95802496622E+01 -0.17847636282E+02 -0.13959869843E+03  0.14113895956E+03  0.47000000000E+01 0.  1.
         13    1    6    6    0    0  0.13450712652E+02 -0.13056205570E+03 -0.10055401762E+03  0.16534352880E+03  0.00000000000E+00 0. -1.
        -14    1    6    6    0    0  0.96915734340E+00 -0.41600752112E+01  0.13494200692E+02  0.14154114032E+02  0.00000000000E+00 0.  1.
</event>
<event>
12    1  0.8344842E-002  0.2269149E+03  0.7818608E-02  0.1128911E+00
         21   -1    0    0  501  502  0.00000000000E+00  0.00000000000E+00  0.80888648248E+03  0.80888648248E+03  0.00000000000E+00 0.  1.
         21   -1    0    0  502  503 -0.00000000000E+00 -0.00000000000E+00 -0.25210557233E+03  0.25210557233E+03  0.00000000000E+00 0. -1.
         -6    2    1    2    0  503  0.14069234743E+03 -0.47725435583E+02 -0.18048966077E+03  0.28959185313E+03  0.17092357919E+03 0.  0.
        -24    2    3    3    0    0  0.54414549018E+02 -0.25795540318E+01 -0.14150333644E+02  0.96789179727E+02  0.78742086118E+02 0.  0.
          6    2    1    2  501    0 -0.14069234743E+03  0.47725435583E+02  0.73727057092E+03  0.77140020169E+03  0.17151770342E+03 0.  0.
         24    2    5    5    0    0 -0.15584590447E+03  0.72008883974E+02  0.69385280314E+03  0.71918422027E+03  0.79504747918E+02 0.  0.
          5    1    5    5  501    0  0.15153557038E+02 -0.24283448391E+02  0.43417767781E+02  0.52215981421E+02  0.47000000000E+01 0. -1.
        -13    1    6    6    0    0 -0.57831080871E+02  0.55905908342E+02  0.42555385712E+03  0.43308889366E+03  0.00000000000E+00 0.  1.
         14    1    6    6    0    0 -0.98014823602E+02  0.16102975632E+02  0.26829894602E+03  0.28609532661E+03  0.00000000000E+00 0. -1.
         -5    1    3    3    0  503  0.86277798417E+02 -0.45145881551E+02 -0.16633932713E+03  0.19280267340E+03  0.47000000000E+01 0.  1.
         13    1    4    4    0    0  0.70195416663E+02  0.14069611883E+02 -0.17251534155E+02  0.73640789850E+02  0.00000000000E+00 0. -1.
        -14    1    4    4    0    0 -0.15780867646E+02 -0.16649165915E+02  0.31012005107E+01  0.23148389877E+02  0.00000000000E+00 0.  1.
</event>
<event>
12    1  0.8344842E-002  0.1869214E+03  0.7818608E-02  0.1161669E+00
         21   -1    0    0  501  502  0.00000000000E+00  0.00000000000E+00  0.47971005176E+02  0.47971005176E+02  0.00000000000E+00 0. -1.
         21   -1    0    0  502  503 -0.00000000000E+00 -0.00000000000E+00 -0.12515205681E+04  0.12515205681E+04  0.00000000000E+00 0. -1.
         -6    2    1    2    0  503 -0.31081982950E+02 -0.65907633508E+02 -0.10261780082E+04  0.10430632359E+04  0.17213280888E+03 0.  0.
        -24    2    3    3    0    0 -0.80128469669E+02 -0.31436484131E+02 -0.50881397789E+03  0.52221637953E+03  0.80059095488E+02 0.  0.
          6    2    1    2  501    0  0.31081982950E+02  0.65907633508E+02 -0.17737155472E+03  0.25642833731E+03  0.17024957542E+03 0.  0.
         24    2    5    5    0    0  0.45409160218E+02  0.10169595670E+03 -0.85975874263E+02  0.15712409524E+03  0.69943340707E+02 0.  0.
          5    1    5    5  501    0 -0.14327177268E+02 -0.35788323193E+02 -0.91395680461E+02  0.99304242066E+02  0.47000000000E+01 0. -1.
        -11    1    6    6    0    0 -0.16869555258E+02  0.11154628102E+02 -0.22347909357E+02  0.30140283266E+02  0.00000000000E+00 0.  1.
         12    1    6    6    0    0  0.62278715476E+02  0.90541328599E+02 -0.63627964906E+02  0.12698381198E+03  0.00000000000E+00 0. -1.
         -5    1    3    3    0  503  0.49046486719E+02 -0.34471149377E+02 -0.51736403028E+03  0.52084685641E+03  0.47000000000E+01 0.  1.
         13    1    4    4    0    0 -0.58113152195E+02  0.21570741799E+01 -0.42840776632E+03  0.43233668092E+03  0.00000000000E+00 0. -1.
        -14    1    4    4    0    0 -0.22015317474E+02 -0.33593558311E+02 -0.80406211570E+02  0.89879698612E+02  0.00000000000E+00 0.  1.
</event>
<event>
12    1  0.8344842E-002  0.2252929E+03  0.7818608E-02  0.1130181E+00
         21   -1    0    0  503  502  0.00000000000E+00  0.00000000000E+00  0.12732376955E+04  0.12732376955E+04  0.00000000000E+00 0.  1.
         21   -1    0    0  501  503 -0.00000000000E+00 -0.00000000000E+00 -0.40090400938E+02  0.40090400938E+02  0.00000000000E+00 0. -1.
          6    2    1    2  501    0 -0.13990947989E+03  0.35922898534E+02  0.55194800467E+03  0.59615728688E+03  0.17289243372E+03 0.  0.
         24    2    3    3    0    0 -0.72354438253E+02 -0.36551844094E+02  0.19950436747E+03  0.23002223069E+03  0.80851913576E+02 0.  0.
         -6    2    1    2    0  502  0.13990947989E+03 -0.35922898534E+02  0.68119928987E+03  0.71717080954E+03  0.17157033640E+03 0.  0.
        -24    2    5    5    0    0  0.10365890058E+02  0.22280651125E+02  0.25370086121E+03  0.26667531415E+03  0.78407379163E+02 0.  0.
          5    1    3    3  501    0 -0.67555041632E+02  0.72474742628E+02  0.35244363720E+03  0.36613505619E+03  0.47000000000E+01 0. -1.
        -13    1    4    4    0    0 -0.12457509340E+02  0.79256644108E+01  0.12034281318E+03  0.12124519941E+03  0.00000000000E+00 0.  1.
         14    1    4    4    0    0 -0.59896928913E+02 -0.44477508505E+02  0.79161554283E+02  0.10877703127E+03  0.00000000000E+00 0. -1.
         -5    1    5    5    0  502  0.12954358983E+03 -0.58203549659E+02  0.42749842866E+03  0.45049549539E+03  0.47000000000E+01 0.  1.
         11    1    6    6    0    0 -0.20084462679E+00  0.92957831445E+01 -0.27363408092E+01  0.96922383307E+01  0.00000000000E+00 0. -1.
        -12    1    6    6    0    0  0.10566734685E+02  0.12984867981E+02  0.25643720202E+03  0.25698307582E+03  0.00000000000E+00 0.  1.
</event>
<event>
12    1  0.8344842E-002  0.1843183E+03  0.7818608E-02  0.1164397E+00
         21   -1    0    0  501  502  0.00000000000E+00  0.00000000000E+00  0.20462471334E+03  0.20462471334E+03  0.00000000000E+00 0.  1.
         21   -1    0    0  502  503 -0.00000000000E+00 -0.00000000000E+00 -0.17471490053E+03  0.17471490053E+03  0.00000000000E+00 0.  1.
         -6    2    1    2    0  503 -0.51998620907E+01 -0.55352280689E+02  0.63232426930E+02  0.19203338763E+03  0.17259075469E+03 0.  0.
        -24    2    3    3    0    0  0.62289220523E+02 -0.40393346009E+02  0.52904973312E+02  0.12198131916E+03  0.81048976716E+02 0.  0.
          6    2    1    2  501    0  0.51998620907E+01  0.55352280689E+02 -0.33322614116E+02  0.18730622624E+03  0.17573364002E+03 0.  0.
         24    2    5    5    0    0 -0.52615643091E+02  0.68866264682E+02 -0.44724706771E+02  0.12666500165E+03  0.80825459715E+02 0.  0.
          5    1    5    5  501    0  0.57815505182E+02 -0.13513983993E+02  0.11402092654E+02  0.60641224589E+02  0.47000000000E+01 0. -1.
        -13    1    6    6    0    0  0.16279707188E+02  0.35240687616E+02 -0.28874292705E+02  0.48380364912E+02  0.00000000000E+00 0.  1.
         14    1    6    6    0    0 -0.68895350280E+02  0.33625577066E+02 -0.15850414065E+02  0.78284636738E+02  0.00000000000E+00 0. -1.
         -5    1    3    3    0  503 -0.67489082614E+02 -0.14958934680E+02  0.10327453618E+02  0.70052068471E+02  0.47000000000E+01 0.  1.
         13    1    4    4    0    0  0.32392916461E+02 -0.16650651169E+02 -0.18619919407E+02  0.40905337303E+02  0.00000000000E+00 0. -1.
        -14    1    4    4    0    0  0.29896304062E+02 -0.23742694840E+02  0.71524892719E+02  0.81075981853E+02  0.00000000000E+00 0.  1.
</event>
<event>
12    1  0.8344842E-002  0.1729322E+03  0.7818608E-02  0.1175133E+00
         21   -1    0    0  501  502  0.00000000000E+00  0.00000000000E+00  0.21595735409E+03  0.21595735409E+03  0.00000000000E+00 0.  1.
         21   -1    0    0  502  503 -0.00000000000E+00 -0.00000000000E+00 -0.41318846339E+03  0.41318846339E+03  0.00000000000E+00 0.  1.
         -6    2    1    2    0  503 -0.18627198593E+02  0.25114551084E+02 -0.35544838517E+03  0.39475672669E+03  0.16885379931E+03 0.  0.
        -24    2    3    3    0    0 -0.12207708597E+02 -0.51487023745E+02 -0.20364409400E+03  0.22453438992E+03  0.78388988202E+02 0.  0.
          6    2    1    2  501    0  0.18627198593E+02 -0.25114551084E+02  0.15821727586E+03  0.23438909079E+03  0.17008182236E+03 0.  0.
         24    2    5    5    0    0  0.53234988801E+01  0.48661123419E+02  0.11244589266E+03  0.14642916756E+03  0.80007360688E+02 0.  0.
          5    1    5    5  501    0  0.13303699713E+02 -0.73775674504E+02  0.45771383202E+02  0.87959923231E+02  0.47000000000E+01 0. -1.
        -13    1    6    6    0    0 -0.25587761698E+02  0.53503527608E+01  0.79869964726E+02  0.84039104521E+02  0.00000000000E+00 0.  1.
         14    1    6    6    0    0  0.30911260578E+02  0.43310770659E+02  0.32575927933E+02  0.62390063041E+02  0.00000000000E+00 0. -1.
         -5    1    3    3    0  503 -0.64194899954E+01  0.76601574829E+02 -0.15180429116E+03  0.17022233676E+03  0.47000000000E+01 0.  1.
         11    1    4    4    0    0  0.35480933079E+01 -0.48575248197E+02 -0.49089358906E+02  0.69151347502E+02  0.00000000000E+00 0. -1.
        -12    1    4    4    0    0 -0.15755801905E+02 -0.29117755487E+01 -0.15455473510E+03  0.15538304242E+03  0.00000000000E+00 0.  1.
</event>
<event>
12    1  0.8344842E-002  0.1805100E+03  0.7818608E-02  0.1167329E+00
         21   -1    0    0  501  502  0.00000000000E+00  0.00000000000E+00  0.19704973264E+04  0.19704973264E+04  0.00000000000E+00 0.  1.
         21   -1    0    0  502  503 -0.00000000000E+00 -0.00000000000E+00 -0.16957550488E+02  0.16957550488E+02  0.00000000000E+00 0.  1.
         -6    2    1    2    0  503  0.47293669352E+02 -0.26981304823E+02  0.81857313259E+03  0.83822333892E+03  0.17202241289E+03 0.  0.
        -24    2    3    3    0    0  0.39027053038E+02 -0.18489528506E+02  0.82028356324E+03  0.82536010513E+03  0.80555604939E+02 0.  0.
          6    2    1    2  501    0 -0.47293669352E+02  0.26981304823E+02  0.11349666434E+04  0.11492315380E+04  0.17210219186E+03 0.  0.
         24    2    5    5    0    0 -0.79744692612E+02 -0.26641233254E+02  0.78417966820E+03  0.79285808580E+03  0.81346302208E+02 0.  0.
          5    1    5    5  501    0  0.32451023260E+02  0.53622538077E+02  0.35078697515E+03  0.35637345221E+03  0.47000000000E+01 0. -1.
        -13    1    6    6    0    0 -0.86014367263E+02  0.36133541751E+01  0.57795803672E+03  0.58433468143E+03  0.00000000000E+00 0.  1.
         14    1    6    6    0    0  0.62696746508E+01 -0.30254587429E+02  0.20622163148E+03  0.20852340437E+03  0.00000000000E+00 0. -1.
         -5    1    3    3    0  503  0.82666163137E+01 -0.84917763172E+01 -0.17104306552E+01  0.12863233782E+02  0.47000000000E+01 0.  1.
         11    1    4    4    0    0  0.76845940710E+01  0.73300124133E+00  0.68850819312E+03  0.68855146668E+03  0.00000000000E+00 0. -1.
        -12    1    4    4    0    0  0.31342458967E+02 -0.19222529748E+02  0.13177537012E+03  0.13680863845E+03  0.00000000000E+00 0.  1.
</event>
<event>
12    1  0.8344842E-002  0.1847619E+03  0.7818608E-02  0.1164085E+00
         21   -1    0    0  503  502  0.00000000000E+00  0.00000000000E+00  0.88220521020E+02  0.88220521020E+02  0.00000000000E+00 0.  1.
         21   -1    0    0  501  503 -0.00000000000E+00 -0.00000000000E+00 -0.43067263000E+03  0.43067263000E+03  0.00000000000E+00 0. -1.
          6    2    1    2  501    0  0.55606766793E+02 -0.15966248094E+02 -0.25898904842E+03  0.31615428020E+03  0.17184635026E+03 0.  0.
         24    2    3    3    0    0  0.80348946191E+02 -0.58774530990E+02 -0.16844283801E+03  0.21288070786E+03  0.83873759022E+02 0.  0.
         -6    2    1    2    0  502 -0.55606766793E+02  0.15966248094E+02 -0.83463060560E+02  0.20273887082E+03  0.17547060629E+03 0.  0.
        -24    2    5    5    0    0 -0.73977998125E+02 -0.44568540026E+02 -0.74990778123E+02  0.13874018112E+03  0.78524659102E+02 0.  0.
          5    1    3    3  501    0 -0.24742179398E+02  0.42808282896E+02 -0.90546210411E+02  0.10327357235E+03  0.47000000000E+01 0. -1.
        -13    1    4    4    0    0  0.68570336377E+02 -0.27770844170E+01 -0.64251762902E+02  0.94010064699E+02  0.00000000000E+00 0.  1.
         14    1    4    4    0    0  0.11778609814E+02 -0.55997446573E+02 -0.10419107511E+03  0.11887064316E+03  0.00000000000E+00 0. -1.
         -5    1    5    5    0  502  0.18371231333E+02  0.60534788120E+02 -0.84722824373E+01  0.63998689698E+02  0.47000000000E+01 0.  1.
         13    1    6    6    0    0 -0.47474216212E+02 -0.26970416066E+02  0.28236429369E+01  0.54673371097E+02  0.00000000000E+00 0. -1.
        -14    1    6    6    0    0 -0.26503781913E+02 -0.17598123960E+02 -0.77814421059E+02  0.84066810023E+02  0.00000000000E+00 0.  1.
</event>
<event>
12    1  0.8344842E-002  0.1792631E+03  0.7818608E-02  0.1168591E+00
         21   -1    0    0  503  502  0.00000000000E+00  0.00000000000E+00  0.25397307314E+02  0.25397307314E+02  0.00000000000E+00 0. -1.
         21   -1    0    0  501  503 -0.00000000000E+00 -0.00000000000E+00 -0.13294107412E+04  0.13294107412E+04  0.00000000000E+00 0. -1.
          6    2    1    2  501    0  0.48056726619E+02 -0.16125818877E+02 -0.80371707101E+03  0.82346608172E+03  0.17194698745E+03 0.  0.
         24    2    3    3    0    0  0.96075869433E+02 -0.77986821833E+01 -0.65571892644E+03  0.66757919940E+03  0.80020527659E+02 0.  0.
         -6    2    1    2    0  502 -0.48056726619E+02  0.16125818877E+02 -0.50029636283E+03  0.53134196675E+03  0.17163433213E+03 0.  0.
        -24    2    5    5    0    0 -0.41877388357E+02 -0.45656247068E+02 -0.40582659746E+03  0.41819677480E+03  0.79718923048E+02 0.  0.
          5    1    3    3  501    0 -0.48019142815E+02 -0.83271366935E+01 -0.14799814457E+03  0.15588688232E+03  0.47000000000E+01 0. -1.
        -11    1    4    4    0    0  0.69865176151E+02 -0.41659431430E+02 -0.38548463305E+03  0.39397341711E+03  0.00000000000E+00 0.  1.
         12    1    4    4    0    0  0.26210693283E+02  0.33860749247E+02 -0.27023429339E+03  0.27360578229E+03  0.00000000000E+00 0. -1.
         -5    1    5    5    0  502 -0.61793382616E+01  0.61782065945E+02 -0.94469765364E+02  0.11314519195E+03  0.47000000000E+01 0.  1.
         13    1    6    6    0    0 -0.17274195716E+02 -0.32755030731E+02 -0.37450078677E+03  0.37632715710E+03  0.00000000000E+00 0. -1.
        -14    1    6    6    0    0 -0.24603192641E+02 -0.12901216337E+02 -0.31325810692E+02  0.41869617703E+02  0.00000000000E+00 0.  1.
</event>
<event>
12    1  0.8344842E-002  0.2064812E+03  0.7818608E-02  0.1145000E+00
         21   -1    0    0  501  502  0.00000000000E+00  0.00000000000E+00  0.89485616601E+03  0.89485616601E+03  0.00000000000E+00 0.  1.
         21   -1    0    0  502  503 -0.00000000000E+00 -0.00000000000E+00 -0.50716786955E+02  0.50716786955E+02  0.00000000000E+00 0.  1.
         -6    2    1    2    0  503  0.39814653483E+02 -0.10557760548E+03  0.29032039568E+03  0.35451460469E+03  0.16930102003E+03 0.  0.
        -24    2    3    3    0    0 -0.38740145032E+01 -0.12270093309E+03  0.25839522379E+03  0.29756537591E+03  0.81893432531E+02 0.  0.
          6    2    1    2  501    0 -0.39814653483E+02  0.10557760548E+03  0.55381898337E+03  0.59105834827E+03  0.17292387720E+03 0.  0.
         24    2    5    5    0    0 -0.17881414742E+02  0.13668598782E+03  0.51798748616E+03  0.53857230625E+03  0.52405047380E+02 0.  0.
          5    1    5    5  501    0 -0.21933238741E+02 -0.31108382341E+02  0.35831497217E+02  0.52486042015E+02  0.47000000000E+01 0. -1.
        -13    1    6    6    0    0  0.16296617012E+01  0.25341891766E+01  0.80646345314E+02  0.80702607917E+02  0.00000000000E+00 0.  1.
         14    1    6    6    0    0 -0.19511076443E+02  0.13415179864E+03  0.43734114084E+03  0.45786969834E+03  0.00000000000E+00 0. -1.
         -5    1    3    3    0  503  0.43688667987E+02  0.17123327613E+02  0.31925171888E+02  0.56949228784E+02  0.47000000000E+01 0.  1.
         13    1    4    4    0    0  0.17797186293E+02 -0.52236401696E+02  0.18687170342E+03  0.19484972425E+03  0.00000000000E+00 0. -1.
        -14    1    4    4    0    0 -0.21671200796E+02 -0.70464531397E+02  0.71523520369E+02  0.10271565165E+03  0.00000000000E+00 0.  1.
</event>
<event>
12    1  0.8344842E-002  0.3546533E+03  0.7818608E-02  0.1060737E+00
         21   -1    0    0  501  502  0.00000000000E+00  0.00000000000E+00  0.82763869441E+03  0.82763869441E+03  0.00000000000E+00 0.  1.
         21   -1    0    0  502  503 -0.00000000000E+00 -0.00000000000E+00 -0.15433768710E+03  0.15433768710E+03  0.00000000000E+00 0. -1.
         -6    2    1    2    0  503 -0.30509538798E+03 -0.54236281053E+02  0.39819722077E+03  0.53313223901E+03  0.17217487532E+03 0.  0.
        -24    2    3    3    0    0 -0.16817325229E+03  0.23663741290E+02  0.27603180320E+03  0.33372671257E+03  0.79609967150E+02 0.  0.
          6    2    1    2  501    0  0.30509538798E+03  0.54236281053E+02  0.27510378653E+03  0.44884414251E+03  0.17249406062E+03 0.  0.
         24    2    5    5    0    0  0.20148277970E+03  0.97841126136E+02  0.15150485144E+03  0.28170425539E+03  0.78964365484E+02 0.  0.
          5    1    5    5  501    0  0.10361260828E+03 -0.43604845082E+02  0.12359893509E+03  0.16713988712E+03  0.47000000000E+01 0. -1.
        -13    1    6    6    0    0 -0.49505499907E+01  0.11497048417E+02  0.22182924141E+01  0.12712627138E+02  0.00000000000E+00 0.  1.
         14    1    6    6    0    0  0.20643332969E+03  0.86344077718E+02  0.14928655903E+03  0.26899162825E+03  0.00000000000E+00 0. -1.
         -5    1    3    3    0  503 -0.13692213569E+03 -0.77900022344E+02  0.12216541758E+03  0.19940552644E+03  0.47000000000E+01 0.  1.
         13    1    4    4    0    0 -0.67580928961E+02  0.41577328239E+02  0.80060369687E+02  0.11271876054E+03  0.00000000000E+00 0. -1.
        -14    1    4    4    0    0 -0.10059232333E+03 -0.17913586948E+02  0.19597143351E+03  0.22100795203E+03  0.00000000000E+00 0.  1.
</event>
<event>
12    1  0.8344842E-002  0.2365257E+03  0.7818608E-02  0.1122161E+00
         21   -1    0    0  503  502  0.00000000000E+00  0.00000000000E+00  0.53342937772E+03  0.53342937772E+03  0.00000000000E+00 0.  1.
         21   -1    0    0  501  503 -0.00000000000E+00 -0.00000000000E+00 -0.16745311566E+03  0.16745311566E+03  0.00000000000E+00 0. -1.
          6    2    1    2  501    0 -0.71710066522E+02 -0.14489392575E+03 -0.31334699825E+02  0.23859228621E+03  0.17264944907E+03 0.  0.
         24    2    3    3    0    0 -0.57784569205E+02 -0.31421526316E+02 -0.60105725857E+02  0.12061022465E+03  0.81288124936E+02 0.  0.
         -6    2    1    2    0  502  0.71710066522E+02  0.14489392575E+03  0.39731096188E+03  0.46229020718E+03  0.17239388579E+03 0.  0.
        -24    2    5    5    0    0  0.91295713128E+02  0.44081080572E+02  0.17383908892E+03  0.21630525781E+03  0.79308806715E+02 0.  0.
          5    1    3    3  501    0 -0.13925497317E+02 -0.11347239944E+03  0.28771026032E+02  0.11798206156E+03  0.47000000000E+01 0. -1.
        -13    1    4    4    0    0 -0.58221692905E+02 -0.28579696717E+02 -0.78593914942E+02  0.10189979419E+03  0.00000000000E+00 0.  1.
         14    1    4    4    0    0  0.43712370023E+00 -0.28418295995E+01  0.18488189085E+02  0.18710430467E+02  0.00000000000E+00 0. -1.
         -5    1    5    5    0  502 -0.19585646605E+02  0.10081284518E+03  0.22347187297E+03  0.24598494937E+03  0.47000000000E+01 0.  1.
         13    1    6    6    0    0  0.25979718643E+02  0.56152468267E+02  0.75099276570E+02  0.97303375145E+02  0.00000000000E+00 0. -1.
        -14    1    6    6    0    0  0.65315994485E+02 -0.12071387695E+02  0.98739812346E+02  0.11900188267E+03  0.00000000000E+00 0.  1.
</event>
<event>
12    1  0.8344842E-002  0.1834025E+03  0.7818608E-02  0.1164616E+00
         21   -1    0    0  501  502  0.00000000000E+00  0.00000000000E+00  0.51684584492E+03  0.51684584492E+03  0.00000000000E+00 0.  1.
         21   -1    0    0  502  503 -0.00000000000E+00 -0.00000000000E+00 -0.65092783569E+02  0.65092783569E+02  0.00000000000E+00 0.  1.
         -6    2    1    2    0  503  0.63409423010E+02 -0.11920586284E+02  0.21399329209E+03  0.28183257236E+03  0.17167881196E+03 0.  0.
        -24    2    3    3    0    0  0.10179050371E+02  0.32097924095E+02  0.43751758837E+02  0.98051802217E+02  0.81031165110E+02 0.  0.
          6    2    1    2  501    0 -0.63409423010E+02  0.11920586284E+02  0.23775976926E+03  0.30010605614E+03  0.17137993391E+03 0.  0.
         24    2    5    5    0    0  0.11243028757E+02 -0.40496273383E+02  0.13535113366E+03  0.16288311936E+03  0.80278436306E+02 0.  0.
          5    1    5    5  501    0 -0.74652451767E+02  0.52416859667E+02  0.10240863560E+03  0.13722293678E+03  0.47000000000E+01 0. -1.
        -13    1    6    6    0    0 -0.11853962153E+02  0.21308644013E+02  0.31315383018E+02  0.39689141361E+02  0.00000000000E+00 0.  1.
         14    1    6    6    0    0  0.23096990910E+02 -0.61804917396E+02  0.10403575064E+03  0.12319397800E+03  0.00000000000E+00 0. -1.
         -5    1    3    3    0  503  0.53230372638E+02 -0.44018510379E+02  0.17024153326E+03  0.18378077014E+03  0.47000000000E+01 0.  1.
         13    1    4    4    0    0  0.26112818939E+02  0.48063359643E+02  0.50563909423E+02  0.74489427366E+02  0.00000000000E+00 0. -1.
        -14    1    4    4    0    0 -0.15933768568E+02 -0.15965435548E+02 -0.68121505866E+01  0.23562374851E+02  0.00000000000E+00 0.  1.
</event>
<event>
12    1  0.8344842E-002  0.2512858E+03  0.7818608E-02  0.1112873E+00
         21   -1    0    0  503  502  0.00000000000E+00  0.00000000000E+00  0.16228765126E+03  0.16228765126E+03  0.00000000000E+00 0.  1.
         21   -1    0    0  501  503 -0.00000000000E+00 -0.00000000000E+00 -0.39303206224E+03  0.39303206224E+03  0.00000000000E+00 0. -1.
          6    2    1    2  501    0  0.16076657894E+03  0.81785037844E+02 -0.15355775343E+03  0.29244648390E+03  0.17149424768E+03 0.  0.
         24    2    3    3    0    0  0.18237385230E+03  0.46704212752E+02 -0.14302193064E+03  0.24966059705E+03  0.80209946912E+02 0.  0.
         -6    2    1    2    0  502 -0.16076657894E+03 -0.81785037844E+02 -0.77186657545E+02  0.26287322960E+03  0.17495676443E+03 0.  0.
        -24    2    5    5    0    0 -0.30490113915E+01 -0.28079837431E+02 -0.24560857751E+02  0.88085803083E+02  0.79737690151E+02 0.  0.
          5    1    3    3  501    0 -0.21607273362E+02  0.35080825093E+02 -0.10535822784E+02  0.42785886844E+02  0.47000000000E+01 0. -1.
        -11    1    4    4    0    0  0.51696754341E+02  0.52137118218E+02 -0.59195028047E+02  0.94312697188E+02  0.00000000000E+00 0.  1.
         12    1    4    4    0    0  0.13067709796E+03 -0.54329054662E+01 -0.83826902595E+02  0.15534789986E+03  0.00000000000E+00 0. -1.
         -5    1    5    5    0  502 -0.15771756755E+03 -0.53705200413E+02 -0.52625799795E+02  0.17478742652E+03  0.47000000000E+01 0.  1.
         11    1    6    6    0    0 -0.20381544856E+02 -0.29963546674E+02 -0.47202896772E+02  0.59509116643E+02  0.00000000000E+00 0. -1.
        -12    1    6    6    0    0  0.17332533464E+02  0.18837092428E+01  0.22642039022E+02  0.28576686439E+02  0.00000000000E+00 0.  1.
</event>
<event>
12    1  0.8344842E-002  0.1850196E+03  0.7818608E-02  0.1163214E+00
         21   -1    0    0  501  502  0.00000000000E+00  0.00000000000E+00  0.36593368211E+02  0.36593368211E+02  0.00000000000E+00 0. -1.
         21   -1    0    0  502  503 -0.00000000000E+00 -0.00000000000E+00 -0.16588737771E+04  0.16588737771E+04  0.00000000000E+00 0. -1.
         -6    2    1    2    0  503 -0.32601816872E+02  0.58482665513E+02 -0.24884618425E+03  0.30962666580E+03  0.17164250094E+03 0.  0.
        -24    2    3    3    0    0 -0.72501291785E+02  0.83167972545E+02 -0.20237026666E+03  0.24341916323E+03  0.78267587342E+02 0.  0.
          6    2    1    2  501    0  0.32601816872E+02 -0.58482665513E+02 -0.13734342247E+04  0.13858404796E+04  0.17247946142E+03 0.  0.
         24    2    5    5    0    0  0.61413770160E+02  0.19292037017E+02 -0.77072849800E+03  0.77743657097E+03  0.79002344227E+02 0.  0.
          5    1    5    5  501    0 -0.28811953288E+02 -0.77774702530E+02 -0.60270572668E+03  0.60840390859E+03  0.47000000000E+01 0. -1.
        -13    1    6    6    0    0  0.57913343633E+02  0.22041377006E+02 -0.28373233335E+03  0.29042006587E+03  0.00000000000E+00 0.  1.
         14    1    6    6    0    0  0.35004265270E+01 -0.27493399896E+01 -0.48699616465E+03  0.48701650510E+03  0.00000000000E+00 0. -1.
         -5    1    3    3    0  503  0.39899474913E+02 -0.24685307032E+02 -0.46475917589E+02  0.66207502576E+02  0.47000000000E+01 0.  1.
         13    1    4    4    0    0 -0.13724671464E+01  0.20235342756E+02 -0.45908824692E+00  0.20287028480E+02  0.00000000000E+00 0. -1.
        -14    1    4    4    0    0 -0.71128824638E+02  0.62932629789E+02 -0.20191117842E+03  0.22313213475E+03  0.00000000000E+00 0.  1.
</event>
<event>
12    1  0.8344842E-002  0.1748733E+03  0.7818608E-02  0.1173191E+00
         21   -1    0    0  503  502  0.00000000000E+00  0.00000000000E+00  0.63739436951E+03  0.63739436951E+03  0.00000000000E+00 0. -1.
         21   -1    0    0  501  503 -0.00000000000E+00 -0.00000000000E+00 -0.80200147609E+02  0.80200147609E+02  0.00000000000E+00 0. -1.
          6    2    1    2  501    0  0.33677681577E+00 -0.21950546320E+02  0.49278506995E+02  0.18041760488E+03  0.17216329747E+03 0.  0.
         24    2    3    3    0    0  0.50230940121E+01  0.44822905584E+02  0.62342050131E+02  0.11205532282E+03  0.81458822851E+02 0.  0.
         -6    2    1    2    0  502 -0.33677681577E+00  0.21950546320E+02  0.50791571491E+03  0.53717691225E+03  0.17348983168E+03 0.  0.
        -24    2    5    5    0    0  0.47651635602E+02  0.62998951540E+02  0.30280256438E+03  0.32251123307E+03  0.78003565227E+02 0.  0.
          5    1    3    3  501    0 -0.46863171963E+01 -0.66773451904E+02 -0.13063543136E+02  0.68362282052E+02  0.47000000000E+01 0. -1.
        -11    1    4    4    0    0 -0.75151579337E+01  0.46066614323E+02  0.78643765439E+02  0.91451913028E+02  0.00000000000E+00 0.  1.
         12    1    4    4    0    0  0.12538251946E+02 -0.12437087392E+01 -0.16301715308E+02  0.20603409797E+02  0.00000000000E+00 0. -1.
         -5    1    5    5    0  502 -0.47988412418E+02 -0.41048405220E+02  0.20511315053E+03  0.21466567918E+03  0.47000000000E+01 0.  1.
         13    1    6    6    0    0  0.10444914464E+02  0.70534385823E+02  0.16896657934E+03  0.18339547638E+03  0.00000000000E+00 0. -1.
        -14    1    6    6    0    0  0.37206721139E+02 -0.75354342826E+01  0.13383598504E+03  0.13911575669E+03  0.00000000000E+00 0.  1.
</event>
<event>
12    1  0.8344842E-002  0.2073960E+03  0.7818608E-02  0.1144125E+00
         21   -1    0    0  501  502  0.00000000000E+00  0.00000000000E+00  0.67394949165E+02  0.67394949165E+02  0.00000000000E+00 0.  1.
         21   -1    0    0  502  503 -0.00000000000E+00 -0.00000000000E+00 -0.80319358771E+03  0.80319358771E+03  0.00000000000E+00 0.  1.
         -6    2    1    2    0  503  0.11157661045E+03  0.31960864477E+02 -0.56781671463E+03  0.60369713829E+03  0.16900762262E+03 0.  0.
        -24    2    3    3    0    0  0.70871228029E+02 -0.36155757645E+02 -0.22964203330E+03  0.25630541780E+03  0.81406596563E+02 0.  0.
          6    2    1    2  501    0 -0.11157661045E+03 -0.31960864477E+02 -0.16798192392E+03  0.26689139859E+03  0.17187860548E+03 0.  0.
         24    2    5    5    0    0 -0.13930372153E+03  0.12984701917E+01 -0.11159325797E+03  0.19564009910E+03  0.80092323562E+02 0.  0.
          5    1    5    5  501    0  0.27727111083E+02 -0.33259334669E+02 -0.56388665953E+02  0.71251299494E+02  0.47000000000E+01 0. -1.
        -13    1    6    6    0    0 -0.94354920751E+02  0.28740664109E+02 -0.39248736787E+02  0.10615714852E+03  0.00000000000E+00 0.  1.
         14    1    6    6    0    0 -0.44948800782E+02 -0.27442193917E+02 -0.72344521178E+02  0.89482950573E+02  0.00000000000E+00 0. -1.
         -5    1    3    3    0  503  0.40705382421E+02  0.68116622123E+02 -0.33817468134E+03  0.34739172049E+03  0.47000000000E+01 0.  1.
         11    1    4    4    0    0  0.70223633785E+02 -0.27229961225E+02 -0.23437635391E+03  0.24618104070E+03  0.00000000000E+00 0. -1.
        -12    1    4    4    0    0  0.64759424469E+00 -0.89257964197E+01  0.47343206092E+01  0.10124377100E+02  0.00000000000E+00 0.  1.
</event>
<event>
12    1  0.8344842E-002  0.3503176E+03  0.7818608E-02  0.1062740E+00
         21   -1    0    0  503  502  0.00000000000E+00  0.00000000000E+00  0.28019196722E+04  0.28019196722E+04  0.00000000000E+00 0.  1.
         21   -1    0    0  501  503 -0.00000000000E+00 -0.00000000000E+00 -0.54850999637E+02  0.54850999637E+02  0.00000000000E+00 0. -1.
          6    2    1    2  501    0 -0.29947080560E+03  0.41884003975E+02  0.72732543173E+03  0.80729466695E+03  0.17687668713E+03 0.  0.
         24    2    3    3    0    0 -0.97267097803E+02  0.64838464736E+02  0.23154872680E+03  0.27135635160E+03  0.79715380218E+02 0.  0.
         -6    2    1    2    0  502  0.29947080560E+03 -0.41884003975E+02  0.20197432408E+04  0.20494760049E+04  0.17190724974E+03 0.  0.
        -24    2    5    5    0    0  0.23098657219E+03  0.29759844664E+02  0.15444842696E+04  0.15639699689E+04  0.79561043128E+02 0.  0.
          5    1    3    3  501    0 -0.20220370780E+03 -0.22954460761E+02  0.49577670492E+03  0.53593831535E+03  0.47000000000E+01 0. -1.
        -13    1    4    4    0    0 -0.10055865031E+03  0.69604320041E+02  0.23478043295E+03  0.26472373376E+03  0.00000000000E+00 0.  1.
         14    1    4    4    0    0  0.32915525038E+01 -0.47658553050E+01 -0.32317061506E+01  0.66326178329E+01  0.00000000000E+00 0. -1.
         -5    1    5    5    0  502  0.68484233415E+02 -0.71643848639E+02  0.47525897119E+03  0.48550603598E+03  0.47000000000E+01 0.  1.
         11    1    6    6    0    0  0.64943646318E+02  0.26643402406E+02  0.28180245080E+03  0.29041378990E+03  0.00000000000E+00 0. -1.
        -12    1    6    6    0    0  0.16604292587E+03  0.31164422584E+01  0.12626818188E+04  0.12735561790E+04  0.00000000000E+00 0.  1.
</event>
<event>
12    1  0.8344842E-002  0.1810605E+03  0.7818608E-02  0.1166975E+00
         21   -1    0    0  503  502  0.00000000000E+00  0.00000000000E+00  0.14232714286E+03  0.14232714286E+03  0.00000000000E+00 0.  1.
         21   -1    0    0  501  503 -0.00000000000E+00 -0.00000000000E+00 -0.24387474934E+03  0.24387474934E+03  0.00000000000E+00 0.  1.
          6    2    1    2  501    0 -0.52774609326E+02 -0.84253130198E+01 -0.98075030100E+02  0.20591654311E+03  0.17299354297E+03 0.  0.
         24    2    3    3    0    0 -0.94436156727E+02  0.27514366407E+02 -0.79777087995E+02  0.14774223801E+03  0.76079938656E+02 0.  0.
         -6    2    1    2    0  502  0.52774609326E+02  0.84253130198E+01 -0.34725763838E+01  0.18028534909E+03  0.17214703895E+03 0.  0.
        -24    2    5    5    0    0  0.10852602630E+02 -0.57235209521E+02 -0.17648006113E+02  0.10096453421E+03  0.80552696137E+02 0.  0.
          5    1    3    3  501    0  0.41661547400E+02 -0.35939679426E+02 -0.18297942105E+02  0.58174305104E+02  0.47000000000E+01 0. -1.
        -13    1    4    4    0    0 -0.22513621272E+02 -0.26217925847E+02 -0.23255571877E+02  0.41654104262E+02  0.00000000000E+00 0.  1.
         14    1    4    4    0    0 -0.71922535454E+02  0.53732292254E+02 -0.56521516118E+02  0.10608813374E+03  0.00000000000E+00 0. -1.
         -5    1    5    5    0  502  0.41922006696E+02  0.65660522541E+02  0.14175429729E+02  0.79320814884E+02  0.47000000000E+01 0.  1.
         13    1    6    6    0    0  0.14057585795E+02 -0.37337994366E+02 -0.49312263647E+02  0.63430598985E+02  0.00000000000E+00 0. -1.
        -14    1    6    6    0    0 -0.32049831650E+01 -0.19897215155E+02  0.31664257534E+02  0.37533935221E+02  0.00000000000E+00 0.  1.
</event>
<event>
12    1  0.8344842E-002  0.1997438E+03  0.7818608E-02  0.1152211E+00
         21   -1    0    0  503  502  0.00000000000E+00  0.00000000000E+00  0.62521157318E+02  0.62521157318E+02  0.00000000000E+00 0. -1.
         21   -1    0    0  501  503 -0.00000000000E+00 -0.00000000000E+00 -0.66912228377E+03  0.66912228377E+03  0.00000000000E+00 0. -1.
          6    2    1    2  501    0 -0.75974955351E+02  0.32879781398E+02 -0.42344535272E+03  0.46819179430E+03  0.18178095510E+03 0.  0.
         24    2    3    3    0    0 -0.49420014732E+02  0.86854314165E+02 -0.20923461956E+03  0.24564574678E+03  0.81096838082E+02 0.  0.
         -6    2    1    2    0  502  0.75974955351E+02 -0.32879781398E+02 -0.18315577373E+03  0.26345164679E+03  0.17031576228E+03 0.  0.
        -24    2    5    5    0    0  0.10634879258E+03 -0.48259271503E+02 -0.10252662075E+03  0.17580320691E+03  0.82195113152E+02 0.  0.
          5    1    3    3  501    0 -0.26554940618E+02 -0.53974532768E+02 -0.21421073317E+03  0.22254604751E+03  0.47000000000E+01 0. -1.
        -13    1    4    4    0    0 -0.30049481007E+02  0.83534978125E+02 -0.20776662359E+03  0.22593811931E+03  0.00000000000E+00 0.  1.
         14    1    4    4    0    0 -0.19370533726E+02  0.33193360407E+01 -0.14679959677E+01  0.19707627476E+02  0.00000000000E+00 0. -1.
         -5    1    5    5    0  502 -0.30373837234E+02  0.15379490105E+02 -0.80629152979E+02  0.87648439885E+02  0.47000000000E+01 0.  1.
         11    1    6    6    0    0  0.24371086452E+02  0.15580436717E+02 -0.53709885757E+02  0.61003702274E+02  0.00000000000E+00 0. -1.
        -12    1    6    6    0    0  0.81977706133E+02 -0.63839708220E+02 -0.48816734991E+02  0.11479950463E+03  0.00000000000E+00 0.  1.
</event>
<event>
12    1  0.8344842E-002  0.1919705E+03  0.7818608E-02  0.1156733E+00
         21   -1    0    0  501  502  0.00000000000E+00  0.00000000000E+00  0.32234741128E+03  0.32234741128E+03  0.00000000000E+00 0. -1.
         21   -1    0    0  502  503 -0.00000000000E+00 -0.00000000000E+00 -0.12751190951E+03  0.12751190951E+03  0.00000000000E+00 0. -1.
         -6    2    1    2    0  503 -0.85093415410E+02 -0.10185647966E+02  0.24777134749E+02  0.19339778097E+03  0.17159300251E+03 0.  0.
        -24    2    3    3    0    0 -0.57412005761E+02 -0.39336318233E+01 -0.51261348227E+02  0.11210024695E+03  0.81407172155E+02 0.  0.
          6    2    1    2  501    0  0.85093415410E+02  0.10185647966E+02  0.17005836702E+03  0.25646153981E+03  0.17177903376E+03 0.  0.
         24    2    5    5    0    0 -0.13183077283E+02  0.19745196383E+02  0.12211184390E+03  0.14659519801E+03  0.77557613114E+02 0.  0.
          5    1    5    5  501    0  0.98276492693E+02 -0.95595484177E+01  0.47946523116E+02  0.10986634180E+03  0.47000000000E+01 0. -1.
        -13    1    6    6    0    0  0.10191224210E+02  0.29831818587E+02  0.12247869866E+02  0.33820241977E+02  0.00000000000E+00 0.  1.
         14    1    6    6    0    0 -0.23374301493E+02 -0.10086622203E+02  0.10986397403E+03  0.11277495603E+03  0.00000000000E+00 0. -1.
         -5    1    3    3    0  503 -0.27681409649E+02 -0.62520161424E+01  0.76038482976E+02  0.81297534029E+02  0.47000000000E+01 0.  1.
         13    1    4    4    0    0 -0.14642275435E+02  0.25510877512E+02  0.10662241307E+02  0.31287129799E+02  0.00000000000E+00 0. -1.
        -14    1    4    4    0    0 -0.42769730326E+02 -0.29444509336E+02 -0.61923589534E+02  0.80813117146E+02  0.00000000000E+00 0.  1.
</event>
<event>
12    1  0.8344842E-002  0.2669364E+03  0.7818608E-02  0.1103108E+00
         21   -1    0    0  503  502  0.00000000000E+00  0.00000000000E+00  0.12507827121E+04  0.12507827121E+04  0.00000000000E+00 0.  1.
         21   -1    0    0  501  503 -0.00000000000E+00 -0.00000000000E+00 -0.73242561359E+02  0.73242561359E+02  0.00000000000E+00 0. -1.
          6    2    1    2  501    0 -0.64452030497E+02  0.19311149035E+03  0.27620368853E+03  0.38411394757E+03  0.17265264325E+03 0.  0.
         24    2    3    3    0    0  0.26433662997E+02  0.10287411862E+03  0.10052124408E+03  0.16665267785E+03  0.79917280378E+02 0.  0.
         -6    2    1    2    0  502  0.64452030497E+02 -0.19311149035E+03  0.90133646222E+03  0.93991132590E+03  0.17198770446E+03 0.  0.
        -24    2    5    5    0    0  0.72099162757E+02 -0.17628324026E+03  0.89625751016E+03  0.92017419372E+03  0.84669665122E+02 0.  0.
          5    1    3    3  501    0 -0.90885693494E+02  0.90237371725E+02  0.17568244445E+03  0.21746126971E+03  0.47000000000E+01 0. -1.
        -11    1    4    4    0    0  0.49077246521E+01  0.54786773187E+02  0.99808563894E+02  0.11396238723E+03  0.00000000000E+00 0.  1.
         12    1    4    4    0    0  0.21525938345E+02  0.48087345434E+02  0.71268018590E+00  0.52690290620E+02  0.00000000000E+00 0. -1.
         -5    1    5    5    0  502 -0.76471322604E+01 -0.16828250083E+02  0.50789520545E+01  0.19737132179E+02  0.47000000000E+01 0.  1.
         11    1    6    6    0    0  0.22054435830E+02 -0.24357345105E+02  0.56855860876E+02  0.65667856035E+02  0.00000000000E+00 0. -1.
        -12    1    6    6    0    0  0.50044726928E+02 -0.15192589516E+03  0.83940164929E+03  0.85450633768E+03  0.00000000000E+00 0.  1.
</event>
<event>
12    1  0.8344842E-002  0.1885908E+03  0.7818608E-02  0.1159878E+00
         21   -1    0    0  503  502  0.00000000000E+00  0.00000000000E+00  0.11040378977E+04  0.11040378977E+04  0.00000000000E+00 0. -1.
         21   -1    0    0  501  503 -0.00000000000E+00 -0.00000000000E+00 -0.32490511009E+02  0.32490511009E+02  0.00000000000E+00 0. -1.
          6    2    1    2  501    0  0.42477776186E+02 -0.63696346531E+02  0.47342651235E+03  0.50938004009E+03  0.17167928418E+03 0.  0.
         24    2    3    3    0    0 -0.24156227759E+02  0.12416940430E+02  0.19975134976E+03  0.21756930082E+03  0.81841891356E+02 0.  0.
         -6    2    1    2    0  502 -0.42477776186E+02  0.63696346531E+02  0.59812087438E+03  0.62714836866E+03  0.17235112389E+03 0.  0.
        -24    2    5    5    0    0 -0.61753253050E+02  0.70042273749E+02  0.25062438573E+03  0.27902811009E+03  0.79528102723E+02 0.  0.
          5    1    3    3  501    0  0.66634003945E+02 -0.76113286960E+02  0.27367516259E+03  0.29181073927E+03  0.47000000000E+01 0. -1.
        -11    1    4    4    0    0 -0.27393293075E+02  0.73358360453E+01  0.20654867428E+03  0.20848635889E+03  0.00000000000E+00 0.  1.
         12    1    4    4    0    0  0.32370653160E+01  0.50811043843E+01 -0.67973245179E+01  0.90829419367E+01  0.00000000000E+00 0. -1.
         -5    1    5    5    0  502  0.19275476864E+02 -0.63459272180E+01  0.34749648865E+03  0.34812025857E+03  0.47000000000E+01 0.  1.
         13    1    6    6    0    0 -0.25447278456E+02  0.74260040483E+02  0.21095851591E+03  0.22509023308E+03  0.00000000000E+00 0. -1.
        -14    1    6    6    0    0 -0.36305974594E+02 -0.42177667347E+01  0.39665869818E+02  0.53937877006E+02  0.00000000000E+00 0.  1.
</event>
<event>
12    1  0.8344842E-002  0.1801823E+03  0.7818608E-02  0.1169770E+00
         21   -1    0    0  501  502  0.00000000000E+00  0.00000000000E+00  0.31792227093E+03  0.31792227093E+03  0.00000000000E+00 0. -1.
         21   -1    0    0  502  503 -0.00000000000E+00 -0.00000000000E+00 -0.33381290690E+03  0.33381290690E+03  0.00000000000E+00 0. -1.
         -6    2    1    2    0  503 -0.11154139520E+02 -0.64865347178E+01 -0.28216950273E+03  0.33022298423E+03  0.17105876499E+03 0.  0.
        -24    2    3    3    0    0  0.46730677487E+02 -0.45725561293E+02 -0.16492242063E+03  0.19362385719E+03  0.77564231921E+02 0.  0.
          6    2    1    2  501    0  0.11154139520E+02  0.64865347178E+01  0.26627886676E+03  0.32151219360E+03  0.17971968671E+03 0.  0.
         24    2    5    5    0    0  0.58617212030E+02 -0.14714050866E+02  0.24573429711E+03  0.26541961456E+03  0.80060890441E+02 0.  0.
          5    1    5    5  501    0 -0.47463072511E+02  0.21200585584E+02  0.20544569650E+02  0.56092579040E+02  0.47000000000E+01 0. -1.
        -13    1    6    6    0    0  0.39491900173E+02 -0.69444013829E+01  0.33688286409E+02  0.52371132612E+02  0.00000000000E+00 0.  1.
         14    1    6    6    0    0  0.19125311858E+02 -0.77696494834E+01  0.21204601070E+03  0.21304848195E+03  0.00000000000E+00 0. -1.
         -5    1    3    3    0  503 -0.57884817006E+02  0.39239026575E+02 -0.11724708210E+03  0.13659912704E+03  0.47000000000E+01 0.  1.
         11    1    4    4    0    0  0.39361463966E+02 -0.35817779505E+02 -0.17154616667E+03  0.17961159615E+03  0.00000000000E+00 0. -1.
        -12    1    4    4    0    0  0.73692135202E+01 -0.99077817879E+01  0.66237460373E+01  0.14012261039E+02  0.00000000000E+00 0.  1.
</event>
<event>
12    1  0.8344842E-002  0.3489348E+03  0.7818608E-02  0.1063058E+00
         21   -1    0    0  503  502  0.00000000000E+00  0.00000000000E+00  0.45599671668E+03  0.45599671668E+03  0.00000000000E+00 0.  1.
         21   -1    0    0  501  503 -0.00000000000E+00 -0.00000000000E+00 -0.14875634021E+04  0.14875634021E+04  0.00000000000E+00 0. -1.
          6    2    1    2  501    0  0.21598771730E+03  0.21380705060E+03 -0.13960567043E+04  0.14390030560E+04  0.17143898282E+03 0.  0.
         24    2    3    3    0    0  0.36183662139E+02  0.10536035914E+03 -0.61685150896E+03  0.63198818037E+03  0.80580477425E+02 0.  0.
         -6    2    1    2    0  502 -0.21598771730E+03 -0.21380705060E+03  0.36449001890E+03  0.50455706271E+03  0.17134966221E+03 0.  0.
        -24    2    5    5    0    0 -0.37003571824E+02 -0.51023195688E+02  0.14648500471E+03  0.17885446222E+03  0.80984141818E+02 0.  0.
          5    1    3    3  501    0  0.17980405516E+03  0.10844669146E+03 -0.77920519532E+03  0.80701487567E+03  0.47000000000E+01 0. -1.
        -11    1    4    4    0    0  0.31944228752E+02  0.10184579538E+03 -0.37033537461E+03  0.38541054665E+03  0.00000000000E+00 0.  1.
         12    1    4    4    0    0  0.42394333865E+01  0.35145637563E+01 -0.24651613435E+03  0.24657763372E+03  0.00000000000E+00 0. -1.
         -5    1    5    5    0  502 -0.17898414548E+03 -0.16278385492E+03  0.21800501419E+03  0.32570260049E+03  0.47000000000E+01 0.  1.
         11    1    6    6    0    0 -0.34031766609E+02  0.13600161014E+02  0.67025226773E+02  0.76390487249E+02  0.00000000000E+00 0. -1.
        -12    1    6    6    0    0 -0.29718052158E+01 -0.64623356701E+02  0.79459777933E+02  0.10246397497E+03  0.00000000000E+00 0.  1.
</event>
<event>
12    1  0.8344842E-002  0.2598897E+03  0.7818608E-02  0.1107282E+00
         21   -1    0    0  503  502  0.00000000000E+00  0.00000000000E+00  0.94360865059E+02  0.94360865059E+02  0.00000000000E+00 0. -1.
         21   -1    0    0  501  503 -0.00000000000E+00 -0.00000000000E+00 -0.73533312485E+03  0.73533312485E+03  0.00000000000E+00 0. -1.
          6    2    1    2  501    0 -0.97748677861E+02 -0.16825691915E+03 -0.25030678188E+03  0.36047954820E+03  0.17154248673E+03 0.  0.
         24    2    3    3    0    0  0.88488625618E+01 -0.55323002392E+02 -0.13701877242E+03  0.16819494594E+03  0.79852732471E+02 0.  0.
         -6    2    1    2    0  502  0.97748677861E+02  0.16825691915E+03 -0.39066547792E+03  0.46921444171E+03  0.17227153510E+03 0.  0.
        -24    2    5    5    0    0 -0.86254540860E+00  0.11512917217E+03 -0.27454227557E+03  0.30780372652E+03  0.78193367467E+02 0.  0.
          5    1    3    3  501    0 -0.10659754042E+03 -0.11293391676E+03 -0.11328800946E+03  0.19228460226E+03  0.47000000000E+01 0. -1.
        -13    1    4    4    0    0  0.17014765865E+02  0.81023567921E+01 -0.21935939000E+01  0.18972672380E+02  0.00000000000E+00 0.  1.
         14    1    4    4    0    0 -0.81659033035E+01 -0.63425359184E+02 -0.13482517852E+03  0.14922227356E+03  0.00000000000E+00 0. -1.
         -5    1    5    5    0  502  0.98611223269E+02  0.53127746981E+02 -0.11612320235E+03  0.16141071519E+03  0.47000000000E+01 0.  1.
         11    1    6    6    0    0  0.55114214573E+01  0.69783428983E+02 -0.73055933333E+02  0.10117940562E+03  0.00000000000E+00 0. -1.
        -12    1    6    6    0    0 -0.63739668659E+01  0.45345743191E+02 -0.20148634223E+03  0.20662432090E+03  0.00000000000E+00 0.  1.
</event>
<event>
12    1  0.8344842E-002  0.2204564E+03  0.7818608E-02  0.1133881E+00
         21   -1    0    0  501  502  0.00000000000E+00  0.00000000000E+00  0.15007658079E+03  0.15007658079E+03  0.00000000000E+00 0.  1.
         21   -1    0    0  502  503 -0.00000000000E+00 -0.00000000000E+00 -0.47788200105E+03  0.47788200105E+03  0.00000000000E+00 0.  1.
         -6    2    1    2    0  503  0.17495981053E+02 -0.13292049325E+03 -0.34414225149E+03  0.40869902869E+03  0.17500582823E+03 0.  0.
        -24    2    3    3    0    0  0.17190121116E+01 -0.14955692734E+03 -0.19793165698E+03  0.26062704742E+03  0.79870441953E+02 0.  0.
          6    2    1    2  501    0 -0.17495981053E+02  0.13292049325E+03  0.16336831229E+02  0.21925955314E+03  0.17272490473E+03 0.  0.
         24    2    5    5    0    0 -0.73686730275E+01  0.73011287874E+02 -0.58315467604E+02  0.12289186677E+03  0.79478120618E+02 0.  0.
          5    1    5    5  501    0 -0.10127308025E+02  0.59909205372E+02  0.74652298834E+02  0.96367686375E+02  0.47000000000E+01 0. -1.
        -13    1    6    6    0    0 -0.84344270393E+01  0.24503858773E+02  0.18637023827E+02  0.31920484197E+02  0.00000000000E+00 0.  1.
         14    1    6    6    0    0  0.10657540118E+01  0.48507429102E+02 -0.76952491431E+02  0.90971382573E+02  0.00000000000E+00 0. -1.
         -5    1    3    3    0  503  0.15776968941E+02  0.16636434094E+02 -0.14621059451E+03  0.14807198127E+03  0.47000000000E+01 0.  1.
         11    1    4    4    0    0 -0.34703727413E+02 -0.97990829653E+02 -0.10093545475E+03  0.14489484952E+03  0.00000000000E+00 0. -1.
        -12    1    4    4    0    0  0.36422739525E+02 -0.51566097687E+02 -0.96996202221E+02  0.11573219790E+03  0.00000000000E+00 0.  1.
</event>
<event>
12    1  0.8344842E-002  0.3320709E+03  0.7818608E-02  0.1070246E+00
         21   -1    0    0  503  502  0.00000000000E+00  0.00000000000E+00  0.57923547858E+03  0.57923547858E+03  0.00000000000E+00 0.  1.
         21   -1    0    0  501  503 -0.00000000000E+00 -0.00000000000E+00 -0.19035695631E+03  0.19035695631E+03  0.00000000000E+00 0.  1.
          6    2    1    2  501    0 -0.17069028933E+03  0.22711503283E+03  0.20300107880E+03  0.38903821047E+03  0.17153681298E+03 0.  0.
         24    2    3    3    0    0 -0.72992730453E+02  0.31497969436E+02  0.59942194328E+02  0.12769785208E+03  0.79960077453E+02 0.  0.
         -6    2    1    2    0  502  0.17069028933E+03 -0.22711503283E+03  0.18587744347E+03  0.38055422441E+03  0.17191474841E+03 0.  0.
        -24    2    5    5    0    0  0.60508148747E+02 -0.14801335379E+03  0.16355916055E+03  0.24301377406E+03  0.82066475619E+02 0.  0.
          5    1    3    3  501    0 -0.97697558876E+02  0.19561706340E+03  0.14305888447E+03  0.26134035840E+03  0.47000000000E+01 0. -1.
        -13    1    4    4    0    0 -0.65605683422E+02  0.40860545457E+02  0.11903447112E+02  0.78200907446E+02  0.00000000000E+00 0.  1.
         14    1    4    4    0    0 -0.73870470312E+01 -0.93625760211E+01  0.48038747215E+02  0.49496944629E+02  0.00000000000E+00 0. -1.
         -5    1    5    5    0  502  0.11018214058E+03 -0.79101679043E+02  0.22318282919E+02  0.13754045035E+03  0.47000000000E+01 0.  1.
         11    1    6    6    0    0  0.15557369155E+02  0.46925028752E+01  0.22831533719E+01  0.16409268953E+02  0.00000000000E+00 0. -1.
        -12    1    6    6    0    0  0.44950779592E+02 -0.15270585667E+03  0.16127600717E+03  0.22660450511E+03  0.00000000000E+00 0.  1.
</event>
<event>
12    1  0.8344842E-002  0.2316771E+03  0.7818608E-02  0.1126677E+00
         21   -1    0    0  503  502  0.00000000000E+00  0.00000000000E+00  0.41716900159E+02  0.41716900159E+02  0.00000000000E+00 0. -1.
         21   -1    0    0  501  503 -0.00000000000E+00 -0.00000000000E+00 -0.12499738523E+04  0.12499738523E+04  0.00000000000E+00 0. -1.
          6    2    1    2  501    0 -0.13570376126E+03  0.47981114178E+02 -0.61387479709E+03  0.65375311359E+03  0.17272280940E+03 0.  0.
         24    2    3    3    0    0 -0.28070494672E+02  0.16608864084E+02 -0.42759916251E+03  0.43629084056E+03  0.80279802822E+02 0.  0.
         -6    2    1    2    0  502  0.13570376126E+03 -0.47981114178E+02 -0.59438215508E+03  0.63793763890E+03  0.18153949077E+03 0.  0.
        -24    2    5    5    0    0  0.29998844001E+02  0.38912416133E+02 -0.27072330003E+03  0.28651032125E+03  0.79893380386E+02 0.  0.
          5    1    3    3  501    0 -0.10763326658E+03  0.31372250094E+02 -0.18627563457E+03  0.21746227302E+03  0.47000000000E+01 0. -1.
        -13    1    4    4    0    0 -0.32111503152E+02  0.45073619141E+02 -0.32756560660E+03  0.33220777596E+03  0.00000000000E+00 0.  1.
         14    1    4    4    0    0  0.40410084802E+01 -0.28464755057E+02 -0.10003355591E+03  0.10408306461E+03  0.00000000000E+00 0. -1.
         -5    1    5    5    0  502  0.10570491726E+03 -0.86893530311E+02 -0.32365885505E+03  0.35142731766E+03  0.47000000000E+01 0.  1.
         11    1    6    6    0    0  0.55130870657E+02  0.22289639626E+02 -0.13556812028E+03  0.14803700946E+03  0.00000000000E+00 0. -1.
        -12    1    6    6    0    0 -0.25132026656E+02  0.16622776507E+02 -0.13515517976E+03  0.13847331179E+03  0.00000000000E+00 0.  1.
</event>
<event>
12    1  0.8344842E-002  0.1753851E+03  0.7818608E-02  0.1172926E+00
         21   -1    0    0  501  502  0.00000000000E+00  0.00000000000E+00  0.40412694783E+02  0.40412694783E+02  0.00000000000E+00 0. -1.
         21   -1    0    0  502  503 -0.00000000000E+00 -0.00000000000E+00 -0.76403701255E+03  0.76403701255E+03  0.00000000000E+00 0. -1.
         -6    2    1    2    0  503  0.15195947664E+02  0.34023158864E+02 -0.41633251808E+03  0.45176618075E+03  0.17138093327E+03 0.  0.
        -24    2    3    3    0    0  0.61047412154E+02 -0.17691508991E+02 -0.20904076994E+03  0.23320561130E+03  0.81529366643E+02 0.  0.
          6    2    1    2  501    0 -0.15195947664E+02 -0.34023158864E+02 -0.30729179969E+03  0.35268352659E+03  0.16902345283E+03 0.  0.
         24    2    5    5    0    0  0.12857031957E+02 -0.69286722523E+02 -0.12175425201E+03  0.16169462590E+03  0.79718887186E+02 0.  0.
          5    1    5    5  501    0 -0.28052979621E+02  0.35263563659E+02 -0.18553754768E+03  0.19098890069E+03  0.47000000000E+01 0. -1.
        -13    1    6    6    0    0 -0.32417068507E+02 -0.25875276029E+02 -0.32950449139E+02  0.52972901928E+02  0.00000000000E+00 0.  1.
         14    1    6    6    0    0  0.45274100464E+02 -0.43411446494E+02 -0.88803802869E+02  0.10872172397E+03  0.00000000000E+00 0. -1.
         -5    1    3    3    0  503 -0.45851464490E+02  0.51714667855E+02 -0.20729174815E+03  0.21856056945E+03  0.47000000000E+01 0.  1.
         13    1    4    4    0    0  0.59020086140E+02  0.22370808270E+02 -0.12170784380E+03  0.13710077634E+03  0.00000000000E+00 0. -1.
        -14    1    4    4    0    0  0.20273260141E+01 -0.40062317261E+02 -0.87332926141E+02  0.96104834964E+02  0.00000000000E+00 0.  1.
</event>
<event>
12    1  0.8344842E-002  0.3047766E+03  0.7818608E-02  0.1082909E+00
         21   -1    0    0  503  502  0.00000000000E+00  0.00000000000E+00  0.16068581577E+03  0.16068581577E+03  0.00000000000E+00 0.  1.
         21   -1    0    0  501  503 -0.00000000000E+00 -0.00000000000E+00 -0.57871418837E+03  0.57871418837E+03  0.00000000000E+00 0. -1.
          6    2    1    2  501    0 -0.20201897263E+03  0.14901307179E+03 -0.22527165340E+03  0.37878400265E+03  0.17237587411E+03 0.  0.
         24    2    3    3    0    0 -0.20140520708E+03  0.89322163775E+02 -0.13507164547E+03  0.27051806786E+03  0.79957296388E+02 0.  0.
         -6    2    1    2    0  502  0.20201897263E+03 -0.14901307179E+03 -0.19275671920E+03  0.36061600149E+03  0.17283572220E+03 0.  0.
        -24    2    5    5    0    0  0.13811158123E+03 -0.53336112126E+02 -0.17698506303E+03  0.24438747477E+03  0.80510717072E+02 0.  0.
          5    1    3    3  501    0 -0.61376554595E+00  0.59690908014E+02 -0.90200007925E+02  0.10826593480E+03  0.47000000000E+01 0. -1.
        -13    1    4    4    0    0 -0.15833262288E+03  0.97384041949E+02 -0.12904210110E+03  0.22628463260E+03  0.00000000000E+00 0.  1.
         14    1    4    4    0    0 -0.43072584201E+02 -0.80618781734E+01 -0.60295443743E+01  0.44233435259E+02  0.00000000000E+00 0. -1.
         -5    1    5    5    0  502  0.63907391395E+02 -0.95676959663E+02 -0.15771656174E+02  0.11622852672E+03  0.47000000000E+01 0.  1.
         11    1    6    6    0    0  0.43984832522E+02 -0.55134270773E+00 -0.10719646779E+03  0.11587084266E+03  0.00000000000E+00 0. -1.
        -12    1    6    6    0    0  0.94126748711E+02 -0.52784769418E+02 -0.69788595233E+02  0.12851663211E+03  0.00000000000E+00 0.  1.
</event>
<event>
12    1  0.8344842E-002  0.2640482E+03  0.7818608E-02  0.1104782E+00
         21   -1    0    0  501  502  0.00000000000E+00  0.00000000000E+00  0.59131992746E+03  0.59131992746E+03  0.00000000000E+00 0. -1.
         21   -1    0    0  502  503 -0.00000000000E+00 -0.00000000000E+00 -0.12153679193E+03  0.12153679193E+03  0.00000000000E+00 0. -1.
         -6    2    1    2    0  503  0.15225983716E+03 -0.12835262969E+03  0.17224268351E+03  0.31526017985E+03  0.17338968660E+03 0.  0.
        -24    2    3    3    0    0  0.14052348650E+03 -0.14055841651E+03  0.92596126238E+02  0.23369801188E+03  0.80852949568E+02 0.  0.
          6    2    1    2  501    0 -0.15225983716E+03  0.12835262969E+03  0.29754045202E+03  0.39759653954E+03  0.17290237738E+03 0.  0.
         24    2    5    5    0    0 -0.91574000104E+02  0.17027180801E+02  0.83352790983E+02  0.14864961642E+03  0.80456810257E+02 0.  0.
          5    1    5    5  501    0 -0.60685837059E+02  0.11132544888E+03  0.21418766104E+03  0.24894692312E+03  0.47000000000E+01 0. -1.
        -11    1    6    6    0    0 -0.17524395981E+02 -0.17942852295E+02  0.57568298310E+02  0.62794580763E+02  0.00000000000E+00 0.  1.
         12    1    6    6    0    0 -0.74049604123E+02  0.34970033096E+02  0.25784492673E+02  0.85855035659E+02  0.00000000000E+00 0. -1.
         -5    1    3    3    0  503  0.11736350666E+02  0.12205786829E+02  0.79646557269E+02  0.81562167970E+02  0.47000000000E+01 0.  1.
         11    1    4    4    0    0  0.54441671817E+02 -0.91649261146E+02  0.81270852485E+02  0.13404638810E+03  0.00000000000E+00 0. -1.
        -12    1    4    4    0    0  0.86081814679E+02 -0.48909155368E+02  0.11325273754E+02  0.99651623784E+02  0.00000000000E+00 0.  1.
</event>
<event>
12    1  0.8344842E-002  0.2046298E+03  0.7818608E-02  0.1145949E+00
         21   -1    0    0  501  502  0.00000000000E+00  0.00000000000E+00  0.97512697987E+03  0.97512697987E+03  0.00000000000E+00 0. -1.
         21   -1    0    0  502  503 -0.00000000000E+00 -0.00000000000E+00 -0.73932284033E+02  0.73932284033E+02  0.00000000000E+00 0. -1.
         -6    2    1    2    0  503 -0.10919592802E+03 -0.24184156047E+02  0.11085137581E+03  0.23272599104E+03  0.17136141715E+03 0.  0.
        -24    2    3    3    0    0 -0.67933498647E+02 -0.54312986899E+02  0.10482689589E+02  0.12000377629E+03  0.82013162102E+02 0.  0.
          6    2    1    2  501    0  0.10919592802E+03  0.24184156047E+02  0.79034332003E+03  0.81633327286E+03  0.17102287790E+03 0.  0.
         24    2    5    5    0    0  0.94489683535E+02  0.61868760369E+02  0.40983776977E+03  0.43365459981E+03  0.85634517585E+02 0.  0.
          5    1    5    5  501    0  0.14706244482E+02 -0.37684604322E+02  0.38050555026E+03  0.38267867305E+03  0.47000000000E+01 0. -1.
        -11    1    6    6    0    0  0.41774729226E+02  0.13421917388E+02  0.48965685289E+02  0.65748872265E+02  0.00000000000E+00 0.  1.
         12    1    6    6    0    0  0.52714954308E+02  0.48446842981E+02  0.36087208448E+03  0.36790572754E+03  0.00000000000E+00 0. -1.
         -5    1    3    3    0  503 -0.41262429370E+02  0.30128830852E+02  0.10036868622E+03  0.11272221475E+03  0.47000000000E+01 0.  1.
         13    1    4    4    0    0 -0.55686549924E+02 -0.27442475618E+02  0.43426431752E+02  0.75762367209E+02  0.00000000000E+00 0. -1.
        -14    1    4    4    0    0 -0.12246948723E+02 -0.26870511281E+02 -0.32943742163E+02  0.44241409078E+02  0.00000000000E+00 0.  1.
</event>
<event>
12    1  0.8344842E-002  0.1778966E+03  0.7818608E-02  0.1170131E+00
         21   -1    0    0  503  502  0.00000000000E+00  0.00000000000E+00  0.16721739562E+02  0.16721739562E+02  0.00000000000E+00 0.  1.
         21   -1    0    0  501  503 -0.00000000000E+00 -0.00000000000E+00 -0.18807780678E+04  0.18807780678E+04  0.00000000000E+00 0.  1.
          6    2    1    2  501    0 -0.15795339339E+02 -0.42137470490E+02 -0.93590650054E+03  0.95245521128E+03  0.17095289581E+03 0.  0.
         24    2    3    3    0    0 -0.68152573158E+02 -0.45891392681E+02 -0.48886431416E+03  0.50231725657E+03  0.81138865198E+02 0.  0.
         -6    2    1    2    0  502  0.15795339339E+02  0.42137470490E+02 -0.92814982775E+03  0.94504459613E+03  0.17211079791E+03 0.  0.
        -24    2    5    5    0    0 -0.55610453821E+00  0.53853775978E+02 -0.27397563576E+03  0.29054432494E+03  0.80329429983E+02 0.  0.
          5    1    3    3  501    0  0.52357233819E+02  0.37539221910E+01 -0.44704218638E+03  0.45013795471E+03  0.47000000000E+01 0. -1.
        -13    1    4    4    0    0 -0.37168071751E+02  0.11047138372E+02 -0.30304724088E+03  0.30551781459E+03  0.00000000000E+00 0.  1.
         14    1    4    4    0    0 -0.30984501407E+02 -0.56938531053E+02 -0.18581707327E+03  0.19679944199E+03  0.00000000000E+00 0. -1.
         -5    1    5    5    0  502  0.16351443877E+02 -0.11716305489E+02 -0.65417419199E+03  0.65450027119E+03  0.47000000000E+01 0.  1.
         11    1    6    6    0    0 -0.17013377176E+02 -0.14174676142E+02 -0.11080474759E+03  0.11299587840E+03  0.00000000000E+00 0. -1.
        -12    1    6    6    0    0  0.16457272638E+02  0.68028452120E+02 -0.16317088817E+03  0.17754844653E+03  0.00000000000E+00 0.  1.
</event>
<event>
12    1  0.8344842E-002  0.2700564E+03  0.7818608E-02  0.1101342E+00
         21   -1    0    0  503  502  0.00000000000E+00  0.00000000000E+00  0.64210069955E+02  0.64210069955E+02  0.00000000000E+00 0. -1.
         21   -1    0    0  501  503 -0.00000000000E+00 -0.00000000000E+00 -0.11849363941E+04  0.11849363941E+04  0.00000000000E+00 0. -1.
          6    2    1    2  501    0 -0.30466923614E+02 -0.20528161211E+03 -0.42899745396E+03  0.50657033628E+03  0.17177286279E+03 0.  0.
         24    2    3    3    0    0 -0.33107985388E+02 -0.76271326366E+02 -0.10039165532E+03  0.15350590883E+03  0.81068647850E+02 0.  0.
         -6    2    1    2    0  502  0.30466923614E+02  0.20528161211E+03 -0.69172887021E+03  0.74257612780E+03  0.17280538761E+03 0.  0.
        -24    2    5    5    0    0  0.80441941144E+02  0.10006711696E+03 -0.45309573505E+03  0.47699100856E+03  0.75765053478E+02 0.  0.
          5    1    3    3  501    0  0.26410617741E+01 -0.12901028575E+03 -0.32860579864E+03  0.35306442746E+03  0.47000000000E+01 0. -1.
        -11    1    4    4    0    0 -0.49788011939E+02 -0.82724030098E+02 -0.74101930136E+02  0.12170952033E+03  0.00000000000E+00 0.  1.
         12    1    4    4    0    0  0.16680026551E+02  0.64527037327E+01 -0.26289725185E+02  0.31796388498E+02  0.00000000000E+00 0. -1.
         -5    1    5    5    0  502 -0.49975017530E+02  0.10521449516E+03 -0.23863313516E+03  0.26558511924E+03  0.47000000000E+01 0.  1.
         13    1    6    6    0    0  0.55668385835E+02  0.82005943445E+02 -0.21283617476E+03  0.23478326437E+03  0.00000000000E+00 0. -1.
        -14    1    6    6    0    0  0.24773555309E+02  0.18061173512E+02 -0.24025956029E+03  0.24220774419E+03  0.00000000000E+00 0.  1.
</event>
<event>
12    1  0.8344842E-002  0.3232461E+03  0.7818608E-02  0.1074216E+00
         21   -1    0    0  501  502  0.00000000000E+00  0.00000000000E+00  0.13077720608E+04  0.13077720608E+04  0.00000000000E+00 0. -1.
         21   -1    0    0  502  503 -0.00000000000E+00 -0.00000000000E+00 -0.13734408117E+03  0.13734408117E+03  0.00000000000E+00 0. -1.
         -6    2    1    2    0  503 -0.26959698829E+03  0.40331997774E+02  0.11722724947E+03  0.34342660049E+03  0.17288839106E+03 0.  0.
        -24    2    3    3    0    0 -0.49613925057E+02  0.13492133715E+02  0.40184400180E+01  0.94526518225E+02  0.79218277915E+02 0.  0.
          6    2    1    2  501    0  0.26959698829E+03 -0.40331997774E+02  0.10532007302E+04  0.11016895415E+04  0.17372064261E+03 0.  0.
         24    2    5    5    0    0  0.61051251724E+02  0.13569719471E+02  0.44684429572E+03  0.45819367129E+03  0.79751007364E+02 0.  0.
          5    1    5    5  501    0  0.20854573657E+03 -0.53901717245E+02  0.60635643446E+03  0.64349587021E+03  0.47000000000E+01 0. -1.
        -11    1    6    6    0    0  0.41896481793E+02  0.41949959328E+02  0.18886887264E+03  0.19795596815E+03  0.00000000000E+00 0.  1.
         12    1    6    6    0    0  0.19154769931E+02 -0.28380239857E+02  0.25797542308E+03  0.26023770314E+03  0.00000000000E+00 0. -1.
         -5    1    3    3    0  503 -0.21998306324E+03  0.26839864058E+02  0.11320880945E+03  0.24890008226E+03  0.47000000000E+01 0.  1.
         13    1    4    4    0    0 -0.14359106739E+02  0.77138940034E+01 -0.36820377788E+02  0.40266963227E+02  0.00000000000E+00 0. -1.
        -14    1    4    4    0    0 -0.35254818317E+02  0.57782397121E+01  0.40838817806E+02  0.54259554998E+02  0.00000000000E+00 0.  1.
</event>
<event>
12    1  0.8344842E-002  0.1895925E+03  0.7818608E-02  0.1158893E+00
         21   -1    0    0  503  502  0.00000000000E+00  0.00000000000E+00  0.11150395035E+03  0.11150395035E+03  0.00000000000E+00 0. -1.
         21   -1    0    0  501  503 -0.00000000000E+00 -0.00000000000E+00 -0.38730806467E+03  0.38730806467E+03  0.00000000000E+00 0.  1.
          6    2    1    2  501    0  0.80379726270E+02  0.47892289129E+01 -0.24048506272E+03  0.30623253725E+03  0.17164342215E+03 0.  0.
         24    2    3    3    0    0  0.38507055537E+02  0.60619129188E+02 -0.89177378015E+02  0.13953999461E+03  0.79757966352E+02 0.  0.
         -6    2    1    2    0  502 -0.80379726270E+02 -0.47892289129E+01 -0.35319051597E+02  0.19257947776E+03  0.17133470968E+03 0.  0.
        -24    2    5    5    0    0 -0.52934072097E+02  0.56179945580E+02  0.11078166799E+02  0.11106079251E+03  0.79079526921E+02 0.  0.
          5    1    3    3  501    0  0.41872670734E+02 -0.55829900275E+02 -0.15130768471E+03  0.16669254264E+03  0.47000000000E+01 0. -1.
        -11    1    4    4    0    0 -0.84446561228E+01  0.11553110852E+02 -0.66379074243E+02  0.67904109483E+02  0.00000000000E+00 0.  1.
         12    1    4    4    0    0  0.46951711659E+02  0.49066018336E+02 -0.22798303773E+02  0.71635885127E+02  0.00000000000E+00 0. -1.
         -5    1    5    5    0  502 -0.27445654173E+02 -0.60969174493E+02 -0.46397218396E+02  0.81518685258E+02  0.47000000000E+01 0.  1.
         13    1    6    6    0    0 -0.59585490883E+02  0.53070038968E+02  0.34191163009E+02  0.86809535120E+02  0.00000000000E+00 0. -1.
        -14    1    6    6    0    0  0.66514187853E+01  0.31099066122E+01 -0.23112996209E+02  0.24251257385E+02  0.00000000000E+00 0.  1.
</event>
<event>
12    1  0.8344842E-002  0.2300920E+03  0.7818608E-02  0.1126582E+00
         21   -1    0    0  503  502  0.00000000000E+00  0.00000000000E+00  0.21550075715E+04  0.21550075715E+04  0.00000000000E+00 0. -1.
         21   -1    0    0  501  503 -0.00000000000E+00 -0.00000000000E+00 -0.36837862805E+02  0.36837862805E+02  0.00000000000E+00 0.  1.
          6    2    1    2  501    0 -0.15212483234E+03  0.25147093878E+02  0.42652486190E+03  0.48462952163E+03  0.17078634160E+03 0.  0.
         24    2    3    3    0    0 -0.64820532509E+02  0.71194744379E+02  0.18679690676E+03  0.22533430501E+03  0.81314645544E+02 0.  0.
         -6    2    1    2    0  502  0.15212483234E+03 -0.25147093878E+02  0.16916448468E+04  0.17072159127E+04  0.17073237491E+03 0.  0.
        -24    2    5    5    0    0  0.90993022713E+02 -0.83014259140E+02  0.11002087455E+04  0.11098010996E+04  0.77640837128E+02 0.  0.
          5    1    3    3  501    0 -0.87304299834E+02 -0.46047650501E+02  0.23972795514E+03  0.25929521662E+03  0.47000000000E+01 0. -1.
        -11    1    4    4    0    0 -0.38243591748E+02  0.42600761951E+02  0.17563862059E+03  0.18473311093E+03  0.00000000000E+00 0.  1.
         12    1    4    4    0    0 -0.26576940761E+02  0.28593982428E+02  0.11158286166E+02  0.40601194089E+02  0.00000000000E+00 0. -1.
         -5    1    5    5    0  502  0.61131809630E+02  0.57867165262E+02  0.59143610131E+03  0.59741481309E+03  0.47000000000E+01 0.  1.
         13    1    6    6    0    0  0.21144376038E+02 -0.15594541373E+00  0.45993325316E+03  0.46041905512E+03  0.00000000000E+00 0. -1.
        -14    1    6    6    0    0  0.69848646675E+02 -0.82858313726E+02  0.64027549233E+03  0.64938204446E+03  0.00000000000E+00 0.  1.
</event>
<event>
12    1  0.8344842E-002  0.2262637E+03  0.7818608E-02  0.1129443E+00
         21   -1    0    0  501  502  0.00000000000E+00  0.00000000000E+00  0.11275695490E+03  0.11275695490E+03  0.00000000000E+00 0. -1.
         21   -1    0    0  502  503 -0.00000000000E+00 -0.00000000000E+00 -0.45386669028E+03  0.45386669028E+03  0.00000000000E+00 0.  1.
         -6    2    1    2    0  503  0.19184523954E+02 -0.14363536669E+03 -0.15481379645E+03  0.27415796937E+03  0.17377029687E+03 0.  0.
        -24    2    3    3    0    0 -0.52130420331E+02 -0.72120376522E+02 -0.11430821201E+03  0.16524053519E+03  0.79493004122E+02 0.  0.
          6    2    1    2  501    0 -0.19184523954E+02  0.14363536669E+03 -0.18629593893E+03  0.29246567580E+03  0.17271603903E+03 0.  0.
         24    2    5    5    0    0  0.50788428091E+02  0.81335378712E+02 -0.14165368316E+03  0.18857860481E+03  0.79380198919E+02 0.  0.
          5    1    5    5  501    0 -0.69972952046E+02  0.62299987982E+02 -0.44642255768E+02  0.10388707100E+03  0.47000000000E+01 0. -1.
        -13    1    6    6    0    0  0.30620596601E+02  0.85379073659E+02 -0.14141958110E+03  0.16800805062E+03  0.00000000000E+00 0.  1.
         14    1    6    6    0    0  0.20167831490E+02 -0.40436949465E+01 -0.23410206111E+00  0.20570554188E+02  0.00000000000E+00 0. -1.
         -5    1    3    3    0  503  0.71314944286E+02 -0.71514990173E+02 -0.40505584444E+02  0.10891743418E+03  0.47000000000E+01 0.  1.
         11    1    4    4    0    0 -0.17505760704E+02  0.12741199458E+02 -0.43342881423E+01  0.22081120333E+02  0.00000000000E+00 0. -1.
        -12    1    4    4    0    0 -0.34624659627E+02 -0.84861575981E+02 -0.10997392386E+03  0.14315941486E+03  0.00000000000E+00 0.  1.
</event>
<event>
12    1  0.8344842E-002  0.1798679E+03  0.7818608E-02  0.1167960E+00
         21   -1    0    0  501  502  0.00000000000E+00  0.00000000000E+00  0.24006362460E+03  0.24006362460E+03  0.00000000000E+00 0. -1.
         21   -1    0    0  502  503 -0.00000000000E+00 -0.00000000000E+00 -0.13521476523E+03  0.13521476523E+03  0.00000000000E+00 0. -1.
         -6    2    1    2    0  503  0.26863605437E+02  0.46808153730E+02  0.64231473940E+02  0.19088142879E+03  0.17145664483E+03 0.  0.
        -24    2    3    3    0    0  0.44629334411E+02  0.92585879768E+02  0.34702817304E+02  0.13339009996E+03  0.77619009375E+02 0.  0.
          6    2    1    2  501    0 -0.26863605437E+02 -0.46808153730E+02  0.40617385430E+02  0.18439696105E+03  0.17158033306E+03 0.  0.
         24    2    5    5    0    0  0.24435396339E+02  0.85058337529E+01 -0.16452392206E+02  0.89685428949E+02  0.84281416424E+02 0.  0.
          5    1    5    5  501    0 -0.51299001776E+02 -0.55313987482E+02  0.57069777635E+02  0.94711532105E+02  0.47000000000E+01 0. -1.
        -11    1    6    6    0    0  0.15206903935E+02  0.39798457308E+02  0.14210901268E+02  0.44912323990E+02  0.00000000000E+00 0.  1.
         12    1    6    6    0    0  0.92284924036E+01 -0.31292623555E+02 -0.30663293474E+02  0.44773104959E+02  0.00000000000E+00 0. -1.
         -5    1    3    3    0  503 -0.17765728974E+02 -0.45777726039E+02  0.29528656636E+02  0.57491328824E+02  0.47000000000E+01 0.  1.
         13    1    4    4    0    0 -0.14261587335E+02 -0.35341749775E+00 -0.67903203327E+01  0.15799564154E+02  0.00000000000E+00 0. -1.
        -14    1    4    4    0    0  0.58890921746E+02  0.92939297266E+02  0.41493137637E+02  0.11759053581E+03  0.00000000000E+00 0.  1.
</event>
<event>
12    1  0.8344842E-002  0.2671187E+03  0.7818608E-02  0.1104638E+00
         21   -1    0    0  501  502  0.00000000000E+00  0.00000000000E+00  0.70051221978E+02  0.70051221978E+02  0.00000000000E+00 0. -1.
         21   -1    0    0  502  503 -0.00000000000E+00 -0.00000000000E+00 -0.98060237275E+03  0.98060237275E+03  0.00000000000E+00 0.  1.
         -6    2    1    2    0  503 -0.16992088644E+03  0.84022807394E+02 -0.48343974531E+03  0.54689119848E+03  0.17158978935E+03 0.  0.
        -24    2    3    3    0    0 -0.10030333419E+03  0.75819108605E+02 -0.17066930846E+03  0.22632710126E+03  0.79288383978E+02 0.  0.
          6    2    1    2  501    0  0.16992088644E+03 -0.84022807394E+02 -0.42711140546E+03  0.50376239626E+03  0.18820058287E+03 0.  0.
         24    2    5    5    0    0  0.17059483003E+03 -0.10709861275E+03 -0.27576978056E+03  0.35059802566E+03  0.79355496574E+02 0.  0.
          5    1    5    5  501    0 -0.67394358896E+00  0.23075805360E+02 -0.15134162490E+03  0.15316437060E+03  0.47000000000E+01 0. -1.
        -13    1    6    6    0    0  0.45886658545E+02 -0.73775813278E+02 -0.99054604042E+02  0.13175837977E+03  0.00000000000E+00 0.  1.
         14    1    6    6    0    0  0.12470817149E+03 -0.33322799476E+02 -0.17671517652E+03  0.21883964589E+03  0.00000000000E+00 0. -1.
         -5    1    3    3    0  503 -0.69617552253E+02  0.82036987889E+01 -0.31277043685E+03  0.32056409722E+03  0.47000000000E+01 0.  1.
         11    1    4    4    0    0 -0.15055889452E+01  0.18404089434E+02  0.27256205607E+01  0.18665645272E+02  0.00000000000E+00 0. -1.
        -12    1    4    4    0    0 -0.98797745246E+02  0.57415019171E+02 -0.17339492902E+03  0.20766145598E+03  0.00000000000E+00 0.  1.
</event>
<event>
12    1  0.8344842E-002  0.2175938E+03  0.7818608E-02  0.1136104E+00
         21   -1    0    0  501  502  0.00000000000E+00  0.00000000000E+00  0.23225594944E+03  0.23225594944E+03  0.00000000000E+00 0.  1.
         21   -1    0    0  502  503 -0.00000000000E+00 -0.00000000000E+00 -0.11233912179E+04  0.11233912179E+04  0.00000000000E+00 0. -1.
         -6    2    1    2    0  503  0.13140796989E+03  0.24542537088E+02 -0.10590883826E+04  0.10807738921E+04  0.16891895419E+03 0.  0.
        -24    2    3    3    0    0  0.15348975981E+03  0.65101702059E+00 -0.97539374173E+03  0.99085563432E+03  0.82718839906E+02 0.  0.
          6    2    1    2  501    0 -0.13140796989E+03 -0.24542537088E+02  0.16795311417E+03  0.27487327517E+03  0.17168773446E+03 0.  0.
         24    2    5    5    0    0 -0.12958338890E+03  0.34209653127E+02  0.14045097463E+03  0.20980710400E+03  0.79563745314E+02 0.  0.
          5    1    5    5  501    0 -0.18245809891E+01 -0.58752190215E+02  0.27502139534E+02  0.65066171163E+02  0.47000000000E+01 0. -1.
        -13    1    6    6    0    0 -0.80925906541E+00 -0.15599159990E+02  0.26611296765E+02  0.30856924801E+02  0.00000000000E+00 0.  1.
         14    1    6    6    0    0 -0.12877412984E+03  0.49808813117E+02  0.11383967787E+03  0.17895017920E+03  0.00000000000E+00 0. -1.
         -5    1    3    3    0  503 -0.22081789920E+02  0.23891520067E+02 -0.83694640855E+02  0.89918257796E+02  0.47000000000E+01 0.  1.
         11    1    4    4    0    0  0.30028785616E+02 -0.36415613118E+01 -0.45481873344E+03  0.45582350666E+03  0.00000000000E+00 0. -1.
        -12    1    4    4    0    0  0.12346097420E+03  0.42925783324E+01 -0.52057500828E+03  0.53503212766E+03  0.00000000000E+00 0.  1.
</event>
<event>
12    1  0.8344842E-002  0.1802894E+03  0.7818608E-02  0.1167677E+00
         21   -1    0    0  501  502  0.00000000000E+00  0.00000000000E+00  0.41699772240E+03  0.41699772240E+03  0.00000000000E+00 0. -1.
         21   -1    0    0  502  503 -0.00000000000E+00 -0.00000000000E+00 -0.80007404128E+02  0.80007404128E+02  0.00000000000E+00 0. -1.
         -6    2    1    2    0  503  0.52728500449E+02  0.11967099474E+02  0.12577303758E+03  0.21930566556E+03  0.17132603928E+03 0.  0.
        -24    2    3    3    0    0  0.70424983752E+02 -0.28337383970E+02  0.13464260255E+03  0.17415728696E+03  0.80246149525E+02 0.  0.
          6    2    1    2  501    0 -0.52728500449E+02 -0.11967099474E+02  0.21121728069E+03  0.27769946097E+03  0.17199053675E+03 0.  0.
         24    2    5    5    0    0  0.21045455598E+02  0.35951655376E+02  0.89603099012E+02  0.12752988069E+03  0.80620855801E+02 0.  0.
          5    1    5    5  501    0 -0.73773956047E+02 -0.47918754850E+02  0.12161418168E+03  0.15016958028E+03  0.47000000000E+01 0. -1.
        -13    1    6    6    0    0  0.25200864580E+02  0.41695952027E+02  0.10211891113E+03  0.11314551693E+03  0.00000000000E+00 0.  1.
         14    1    6    6    0    0 -0.41554089820E+01 -0.57442966514E+01 -0.12515812116E+02  0.14384363759E+02  0.00000000000E+00 0. -1.
         -5    1    3    3    0  503 -0.17696483302E+02  0.40304483444E+02 -0.88695649701E+01  0.45148378595E+02  0.47000000000E+01 0.  1.
         13    1    4    4    0    0  0.38371889058E+02  0.12831980583E+02  0.14167764330E+02  0.42869419657E+02  0.00000000000E+00 0. -1.
        -14    1    4    4    0    0  0.32053094694E+02 -0.41169364553E+02  0.12047483822E+03  0.13128786731E+03  0.00000000000E+00 0.  1.
</event>
<event>
12    1  0.8344842E-002  0.4335372E+03  0.7818608E-02  0.1032778E+00
         21   -1    0    0  501  502  0.00000000000E+00  0.00000000000E+00  0.27833023857E+03  0.27833023857E+03  0.00000000000E+00 0.  1.
         21   -1    0    0  502  503 -0.00000000000E+00 -0.00000000000E+00 -0.10502226846E+04  0.10502226846E+04  0.00000000000E+00 0. -1.
         -6    2    1    2    0  503 -0.23624101494E+02  0.39702178296E+03  0.11370564172E+02  0.43331247668E+03  0.17159842190E+03 0.  0.
        -24    2    3    3    0    0 -0.65525498321E+02  0.15343244829E+03  0.19225872293E+02  0.18597609261E+03  0.79889709832E+02 0.  0.
          6    2    1    2  501    0  0.23624101494E+02 -0.39702178296E+03 -0.78326301018E+03  0.89524044647E+03  0.17254019697E+03 0.  0.
         24    2    5    5    0    0  0.59933061452E+02 -0.17374971984E+03 -0.29420852421E+03  0.35638505308E+03  0.81674435053E+02 0.  0.
          5    1    5    5  501    0 -0.36308959958E+02 -0.22327206312E+03 -0.48905448597E+03  0.53885539339E+03  0.47000000000E+01 0. -1.
        -13    1    6    6    0    0 -0.96175694513E+01 -0.24298296663E+02 -0.10296344086E+02  0.28087711982E+02  0.00000000000E+00 0.  1.
         14    1    6    6    0    0  0.69550630903E+02 -0.14945142317E+03 -0.28391218012E+03  0.32829734110E+03  0.00000000000E+00 0. -1.
         -5    1    3    3    0  503  0.41901396827E+02  0.24358933466E+03 -0.78553081204E+01  0.24733638407E+03  0.47000000000E+01 0.  1.
         13    1    4    4    0    0  0.58860891946E+01  0.55148586932E+01  0.20166610652E+02  0.21719850312E+02  0.00000000000E+00 0. -1.
        -14    1    4    4    0    0 -0.71411587516E+02  0.14791758960E+03 -0.94073835904E+00  0.16425624230E+03  0.00000000000E+00 0.  1.
</event>
<event>
12    1  0.8344842E-002  0.1880283E+03  0.7818608E-02  0.1161077E+00
         21   -1    0    0  501  502  0.00000000000E+00  0.00000000000E+00  0.15659619135E+02  0.15659619135E+02  0.00000000000E+00 0. -1.
         21   -1    0    0  502  503 -0.00000000000E+00 -0.00000000000E+00 -0.22613695661E+04  0.22613695661E+04  0.00000000000E+00 0. -1.
         -6    2    1    2    0  503 -0.53281407144E+02  0.42184342269E+02 -0.12964310473E+04  0.13099954557E+04  0.17531744491E+03 0.  0.
        -24    2    3    3    0    0 -0.85051158114E+02 -0.19387493178E+02 -0.82104242389E+03  0.82956144227E+03  0.80324033074E+02 0.  0.
          6    2    1    2  501    0  0.53281407144E+02 -0.42184342269E+02 -0.94927889970E+03  0.96703372957E+03  0.17147996273E+03 0.  0.
         24    2    5    5    0    0  0.98265631812E+02 -0.53216667288E+02 -0.70072650141E+03  0.71415890408E+03  0.80728944225E+02 0.  0.
          5    1    5    5  501    0 -0.44984224668E+02  0.11032325019E+02 -0.24855239830E+03  0.25287482548E+03  0.47000000000E+01 0. -1.
        -11    1    6    6    0    0 -0.18048125706E+01  0.75226296431E+01 -0.19127021318E+03  0.19142659626E+03  0.00000000000E+00 0.  1.
         12    1    6    6    0    0  0.10007044438E+03 -0.60739296931E+02 -0.50945628823E+03  0.52273230783E+03  0.00000000000E+00 0. -1.
         -5    1    3    3    0  503  0.31769750970E+02  0.61571835446E+02 -0.47538862338E+03  0.48043401340E+03  0.47000000000E+01 0.  1.
         11    1    4    4    0    0 -0.84170423327E+02  0.89296655329E+01 -0.70717530155E+03  0.71222279254E+03  0.00000000000E+00 0. -1.
        -12    1    4    4    0    0 -0.88073478762E+00 -0.28317158710E+02 -0.11386712233E+03  0.11733864972E+03  0.00000000000E+00 0.  1.
</event>
<event>
12    1  0.8344842E-002  0.1779974E+03  0.7818608E-02  0.1169773E+00
         21   -1    0    0  501  502  0.00000000000E+00  0.00000000000E+00  0.48319152480E+03  0.48319152480E+03  0.00000000000E+00 0. -1.
         21   -1    0    0  502  503 -0.00000000000E+00 -0.00000000000E+00 -0.26644641677E+03  0.26644641677E+03  0.00000000000E+00 0. -1.
         -6    2    1    2    0  503  0.46879475167E+02 -0.34249603896E+01 -0.21710137191E+03  0.28069675415E+03  0.17160491416E+03 0.  0.
        -24    2    3    3    0    0  0.55073585242E+02 -0.35585191958E+02 -0.61266980905E+02  0.12129828693E+03  0.81610206379E+02 0.  0.
          6    2    1    2  501    0 -0.46879475167E+02  0.34249603896E+01  0.43384647993E+03  0.46894118742E+03  0.17167892579E+03 0.  0.
         24    2    5    5    0    0 -0.30438027903E+02 -0.90707044395E+01  0.87103335379E+02  0.12155183651E+03  0.78607294211E+02 0.  0.
          5    1    5    5  501    0 -0.16441447264E+02  0.12495664829E+02  0.34674314456E+03  0.34738935091E+03  0.47000000000E+01 0. -1.
        -11    1    6    6    0    0  0.25531184810E+02 -0.78780394594E+01  0.16329870423E+02  0.31314047512E+02  0.00000000000E+00 0.  1.
         12    1    6    6    0    0 -0.55969212713E+02 -0.11926649801E+01  0.70773464955E+02  0.90237788998E+02  0.00000000000E+00 0. -1.
         -5    1    3    3    0  503 -0.81941100756E+01  0.32160231568E+02 -0.15583439100E+03  0.15939846722E+03  0.47000000000E+01 0.  1.
         11    1    4    4    0    0  0.48763842266E+02  0.21184117956E+00 -0.68650417393E+02  0.84207107761E+02  0.00000000000E+00 0. -1.
        -12    1    4    4    0    0  0.63097429765E+01 -0.35797033137E+02  0.73834364882E+01  0.37091179170E+02  0.00000000000E+00 0.  1.
</event>
<event>
12    1  0.8344842E-002  0.2036064E+03  0.7818608E-02  0.1147801E+00
         21   -1    0    0  503  502  0.00000000000E+00  0.00000000000E+00  0.48688731268E+03  0.48688731268E+03  0.00000000000E+00 0. -1.
         21   -1    0    0  501  503 -0.00000000000E+00 -0.00000000000E+00 -0.14864775979E+03  0.14864775979E+03  0.00000000000E+00 0.  1.
          6    2    1    2  501    0 -0.35483838271E+02 -0.90971138260E+02 -0.40815450734E+02  0.20765713014E+03  0.17866373976E+03 0.  0.
         24    2    3    3    0    0 -0.90319423804E+02 -0.46451350499E+02 -0.79496042189E+01  0.12961094632E+03  0.80127866052E+02 0.  0.
         -6    2    1    2    0  502  0.35483838271E+02  0.90971138260E+02  0.37905500362E+03  0.42787794232E+03  0.17280621222E+03 0.  0.
        -24    2    5    5    0    0  0.82317314630E+01  0.75460958775E+02  0.38016783657E+03  0.39615143306E+03  0.81524574497E+02 0.  0.
          5    1    3    3  501    0  0.54835585533E+02 -0.44519787760E+02 -0.32865846515E+02  0.78046183828E+02  0.47000000000E+01 0. -1.
        -11    1    4    4    0    0 -0.79310159448E+02 -0.75540828046E+01 -0.28051795285E+02  0.84463416799E+02  0.00000000000E+00 0.  1.
         12    1    4    4    0    0 -0.11009264356E+02 -0.38897267695E+02  0.20102191066E+02  0.45147529516E+02  0.00000000000E+00 0. -1.
         -5    1    5    5    0  502  0.27252106808E+02  0.15510179484E+02 -0.11128329500E+01  0.31726509267E+02  0.47000000000E+01 0.  1.
         11    1    6    6    0    0 -0.21445253128E+02  0.16759656688E+02  0.23745453856E+03  0.23900929450E+03  0.00000000000E+00 0. -1.
        -12    1    6    6    0    0  0.29676984591E+02  0.58701302088E+02  0.14271329802E+03  0.15714213856E+03  0.00000000000E+00 0.  1.
</event>
<event>
12    1  0.8344842E-002  0.1774256E+03  0.7818608E-02  0.1171382E+00
         21   -1    0    0  501  502  0.00000000000E+00  0.00000000000E+00  0.15363414074E+02  0.15363414074E+02  0.00000000000E+00 0.  1.
         21   -1    0    0  502  503 -0.00000000000E+00 -0.00000000000E+00 -0.21119357713E+04  0.21119357713E+04  0.00000000000E+00 0.  1.
         -6    2    1    2    0  503  0.14057317230E+02 -0.26250592067E+02 -0.13050651032E+04  0.13170705300E+04  0.17490899235E+03 0.  0.
        -24    2    3    3    0    0  0.67759072248E+02  0.61323516106E+01 -0.96512635741E+03  0.97136404404E+03  0.86315251706E+02 0.  0.
          6    2    1    2  501    0 -0.14057317230E+02  0.26250592067E+02 -0.79150725403E+03  0.81022865539E+03  0.17058733567E+03 0.  0.
         24    2    5    5    0    0  0.30552749913E+02 -0.27438973423E+02 -0.58748766512E+03  0.59454669001E+03  0.81594375699E+02 0.  0.
          5    1    5    5  501    0 -0.44610067143E+02  0.53689565490E+02 -0.20401958891E+03  0.21568196539E+03  0.47000000000E+01 0. -1.
        -11    1    6    6    0    0  0.50806505514E+02 -0.29272434659E+01 -0.22579008533E+03  0.23145416909E+03  0.00000000000E+00 0.  1.
         12    1    6    6    0    0 -0.20253755601E+02 -0.24511729957E+02 -0.36169757979E+03  0.36309252092E+03  0.00000000000E+00 0. -1.
         -5    1    3    3    0  503 -0.53701755018E+02 -0.32382943678E+02 -0.33993874576E+03  0.34570648591E+03  0.47000000000E+01 0.  1.
         11    1    4    4    0    0 -0.17136315641E+02  0.79475940449E+01 -0.81192556401E+02  0.83360954767E+02  0.00000000000E+00 0. -1.
        -12    1    4    4    0    0  0.84895387890E+02 -0.18152424343E+01 -0.88393380101E+03  0.88800308928E+03  0.00000000000E+00 0.  1.
</event>
<event>
12    1  0.8344842E-002  0.1896777E+03  0.7818608E-02  0.1159107E+00
         21   -1    0    0  503  502  0.00000000000E+00  0.00000000000E+00  0.37412886031E+03  0.37412886031E+03  0.00000000000E+00 0.  1.
         21   -1    0    0  501  503 -0.00000000000E+00 -0.00000000000E+00 -0.95841962076E+02  0.95841962076E+02  0.00000000000E+00 0.  1.
          6    2    1    2  501    0  0.69659824301E+02 -0.28086371311E+02  0.12215558273E+03  0.22429906584E+03  0.17247245916E+03 0.  0.
         24    2    3    3    0    0  0.66894320406E+02 -0.92553709778E+01  0.44062365374E+01  0.10492883037E+03  0.80188107152E+02 0.  0.
         -6    2    1    2    0  502 -0.69659824301E+02  0.28086371311E+02  0.15613131550E+03  0.24567175655E+03  0.17417315783E+03 0.  0.
        -24    2    5    5    0    0 -0.24482670891E+02  0.34855461318E+02  0.17410555461E+03  0.19635685980E+03  0.80180844881E+02 0.  0.
          5    1    3    3  501    0  0.27655038951E+01 -0.18831000333E+02  0.11774934620E+03  0.11937023547E+03  0.47000000000E+01 0. -1.
        -13    1    4    4    0    0  0.45232278364E+02  0.33787396119E+02 -0.78364310165E+00  0.56463804680E+02  0.00000000000E+00 0.  1.
         14    1    4    4    0    0  0.21662042042E+02 -0.43042767097E+02  0.51898796391E+01  0.48465025693E+02  0.00000000000E+00 0. -1.
         -5    1    5    5    0  502 -0.45177153410E+02 -0.67690900070E+01 -0.17974239111E+02  0.49314896749E+02  0.47000000000E+01 0.  1.
         13    1    6    6    0    0 -0.10405533892E+02 -0.47531656776E+01  0.14447571645E+03  0.14492791437E+03  0.00000000000E+00 0. -1.
        -14    1    6    6    0    0 -0.14077136998E+02  0.39608626995E+02  0.29629838160E+02  0.51428945429E+02  0.00000000000E+00 0.  1.
</event>
<event>
12    1  0.8344842E-002  0.4192627E+03  0.7818608E-02  0.1037322E+00
         21   -1    0    0  503  502  0.00000000000E+00  0.00000000000E+00  0.25303998231E+04  0.25303998231E+04  0.00000000000E+00 0. -1.
         21   -1    0    0  501  503 -0.00000000000E+00 -0.00000000000E+00 -0.16996477959E+03  0.16996477959E+03  0.00000000000E+00 0.  1.
          6    2    1    2  501    0  0.38146433667E+03 -0.16049608668E+02  0.14172517788E+03  0.44238880548E+03  0.17276920755E+03 0.  0.
         24    2    3    3    0    0  0.35829938159E+03  0.20616427769E+02  0.97999884068E+02  0.38062308124E+03  0.80414356648E+02 0.  0.
         -6    2    1    2    0  502 -0.38146433667E+03  0.16049608668E+02  0.22187098656E+04  0.22579757972E+04  0.17322991336E+03 0.  0.
        -24    2    5    5    0    0 -0.89970897716E+02  0.59462239989E+01  0.83236863292E+03  0.84127730889E+03  0.82339840640E+02 0.  0.
          5    1    3    3  501    0  0.23164955087E+02 -0.36666036437E+02  0.43725293809E+02  0.61765724240E+02  0.47000000000E+01 0. -1.
        -11    1    4    4    0    0  0.22719551072E+03 -0.24489184989E+02  0.50129374308E+02  0.23394545185E+03  0.00000000000E+00 0.  1.
         12    1    4    4    0    0  0.13110387086E+03  0.45105612758E+02  0.47870509760E+02  0.14667762939E+03  0.00000000000E+00 0. -1.
         -5    1    5    5    0  502 -0.29149343896E+03  0.10103384669E+02  0.13863412327E+04  0.14166984883E+04  0.47000000000E+01 0.  1.
         13    1    6    6    0    0 -0.76723182637E+01 -0.27741220704E+02  0.31593115911E+03  0.31723955789E+03  0.00000000000E+00 0. -1.
        -14    1    6    6    0    0 -0.82298579453E+02  0.33687444703E+02  0.51643747382E+03  0.52403775100E+03  0.00000000000E+00 0.  1.
</event>
<event>
12    1  0.8344842E-002  0.1872553E+03  0.7818608E-02  0.1162037E+00
         21   -1    0    0  503  502  0.00000000000E+00  0.00000000000E+00  0.44455386814E+02  0.44455386814E+02  0.00000000000E+00 0.  1.
         21   -1    0    0  501  503 -0.00000000000E+00 -0.00000000000E+00 -0.99218463012E+03  0.99218463012E+03  0.00000000000E+00 0. -1.
          6    2    1    2  501    0  0.77994945173E+01 -0.60068093223E+02 -0.72404996242E+03  0.74787225778E+03  0.17718791703E+03 0.  0.
         24    2    3    3    0    0  0.44779357129E+02  0.24764199625E+02 -0.35734739385E+03  0.36964363388E+03  0.79503457554E+02 0.  0.
         -6    2    1    2    0  502 -0.77994945173E+01  0.60068093223E+02 -0.22367928089E+03  0.28876775916E+03  0.17229448654E+03 0.  0.
        -24    2    5    5    0    0  0.28200194721E+02  0.21609453568E+02 -0.21910828460E+03  0.23568265205E+03  0.79219016856E+02 0.  0.
          5    1    3    3  501    0 -0.36979862612E+02 -0.84832292848E+02 -0.36670256857E+03  0.37822862391E+03  0.47000000000E+01 0. -1.
        -13    1    4    4    0    0  0.55720702584E+02  0.15883242521E+01 -0.13844255960E+03  0.14924363229E+03  0.00000000000E+00 0.  1.
         14    1    4    4    0    0 -0.10941345455E+02  0.23175875373E+02 -0.21890483425E+03  0.22040000159E+03  0.00000000000E+00 0. -1.
         -5    1    5    5    0  502 -0.35999689238E+02  0.38458639655E+02 -0.45709962901E+01  0.53085107106E+02  0.47000000000E+01 0.  1.
         13    1    6    6    0    0  0.35582870074E+02  0.26741473821E+02 -0.52489585034E+02  0.68821534434E+02  0.00000000000E+00 0. -1.
        -14    1    6    6    0    0 -0.73826753535E+01 -0.51320202530E+01 -0.16661869957E+03  0.16686111762E+03  0.00000000000E+00 0.  1.
</event>
<event>
12    1  0.8344842E-002  0.2057105E+03  0.7818608E-02  0.1146082E+00
         21   -1    0    0  503  502  0.00000000000E+00  0.00000000000E+00  0.62071910601E+02  0.62071910601E+02  0.00000000000E+00 0.  1.
         21   -1    0    0  501  503 -0.00000000000E+00 -0.00000000000E+00 -0.67408395563E+03  0.67408395563E+03  0.00000000000E+00 0. -1.
          6    2    1    2  501    0  0.10304042748E+03 -0.11998320228E+02 -0.35356026377E+03  0.40904969269E+03  0.17763868270E+03 0.  0.
         24    2    3    3    0    0  0.49301160477E+02 -0.70659617827E+01 -0.33951829268E+03  0.35308985057E+03  0.83181964809E+02 0.  0.
         -6    2    1    2    0  502 -0.10304042748E+03  0.11998320228E+02 -0.25845178125E+03  0.32710617353E+03  0.17158040723E+03 0.  0.
        -24    2    5    5    0    0  0.25983869566E+01  0.41405132551E+02 -0.99952076241E+02  0.13431466382E+03  0.79554225258E+02 0.  0.
          5    1    3    3  501    0  0.53739267007E+02 -0.49323584449E+01 -0.14041971087E+02  0.55959842121E+02  0.47000000000E+01 0. -1.
        -11    1    4    4    0    0 -0.16225178891E+02  0.20044942317E+02 -0.10217495668E+03  0.10537921007E+03  0.00000000000E+00 0.  1.
         12    1    4    4    0    0  0.65526339368E+02 -0.27110904100E+02 -0.23734333600E+03  0.24771064050E+03  0.00000000000E+00 0. -1.
         -5    1    5    5    0  502 -0.10563881444E+03 -0.29406812324E+02 -0.15849970501E+03  0.19279150971E+03  0.47000000000E+01 0.  1.
         11    1    6    6    0    0  0.10442756754E+02  0.59583009364E+02 -0.43545668815E+02  0.74534632528E+02  0.00000000000E+00 0. -1.
        -12    1    6    6    0    0 -0.78443697977E+01 -0.18177876812E+02 -0.56406407426E+02  0.59780031295E+02  0.00000000000E+00 0.  1.
</event>
<event>
12    1  0.8344842E-002  0.1984217E+03  0.7818608E-02  0.1151094E+00
         21   -1    0    0  501  502  0.00000000000E+00  0.00000000000E+00  0.58509946305E+03  0.58509946305E+03  0.00000000000E+00 0.  1.
         21   -1    0    0  502  503 -0.00000000000E+00 -0.00000000000E+00 -0.80120528629E+02  0.80120528629E+02  0.00000000000E+00 0. -1.
         -6    2    1    2    0  503  0.87589535735E+02 -0.48074897722E+02  0.11928932762E+03  0.23151917424E+03  0.17142946596E+03 0.  0.
        -24    2    3    3    0    0  0.10658433175E+02 -0.73941084760E+02  0.10160194164E+03  0.14831828605E+03  0.78067107153E+02 0.  0.
          6    2    1    2  501    0 -0.87589535735E+02  0.48074897722E+02  0.38568960681E+03  0.43370081744E+03  0.17133827269E+03 0.  0.
         24    2    5    5    0    0 -0.11405077934E+03  0.17917494647E+02  0.34770962188E+03  0.37825502744E+03  0.94054599846E+02 0.  0.
          5    1    5    5  501    0  0.26461243610E+02  0.30157403074E+02  0.37979984927E+02  0.55445789999E+02  0.47000000000E+01 0. -1.
        -13    1    6    6    0    0  0.13690807767E+02 -0.11419181419E+02  0.39786234673E+02  0.43597940216E+02  0.00000000000E+00 0.  1.
         14    1    6    6    0    0 -0.12774158711E+03  0.29336676067E+02  0.30792338721E+03  0.33465708722E+03  0.00000000000E+00 0. -1.
         -5    1    3    3    0  503  0.76931102560E+02  0.25866187039E+02  0.17687385976E+02  0.83200888190E+02  0.47000000000E+01 0.  1.
         13    1    4    4    0    0  0.24085722882E+02 -0.54868864995E+02  0.19573888001E+02  0.63038492082E+02  0.00000000000E+00 0. -1.
        -14    1    4    4    0    0 -0.13427289707E+02 -0.19072219765E+02  0.82028053640E+02  0.85279793970E+02  0.00000000000E+00 0.  1.
</event>
<event>
12    1  0.8344842E-002  0.1790103E+03  0.7818608E-02  0.1168964E+00
         21   -1    0    0  503  502  0.00000000000E+00  0.00000000000E+00  0.13229356117E+03  0.13229356117E+03  0.00000000000E+00 0.  1.
         21   -1    0    0  501  503 -0.00000000000E+00 -0.00000000000E+00 -0.52588740786E+03  0.52588740786E+03  0.00000000000E+00 0.  1.
          6    2    1    2  501    0 -0.37073320391E+02  0.31708802440E+02 -0.43916988201E+03  0.47425189503E+03  0.17223471033E+03 0.  0.
         24    2    3    3    0    0 -0.67060304404E+02  0.10369910349E+01 -0.40816314571E+03  0.42111540172E+03  0.79011823663E+02 0.  0.
         -6    2    1    2    0  502  0.37073320391E+02 -0.31708802440E+02  0.45576035321E+02  0.18392907400E+03  0.17138509279E+03 0.  0.
        -24    2    5    5    0    0  0.67955731580E+02 -0.67020621853E+02  0.10086810479E+02  0.12491871058E+03  0.79957459315E+02 0.  0.
          5    1    3    3  501    0  0.29986984014E+02  0.30671811405E+02 -0.31006736302E+02  0.53136493309E+02  0.47000000000E+01 0. -1.
        -11    1    4    4    0    0 -0.46313907282E+02 -0.80758383341E+01 -0.38783439293E+03  0.39067341029E+03  0.00000000000E+00 0.  1.
         12    1    4    4    0    0 -0.20746397123E+02  0.91128293689E+01 -0.20328752777E+02  0.30441991429E+02  0.00000000000E+00 0. -1.
         -5    1    5    5    0  502 -0.30882411190E+02  0.35311819413E+02  0.35489224843E+02  0.59010363421E+02  0.47000000000E+01 0.  1.
         11    1    6    6    0    0  0.15016131428E+01 -0.42131202684E+02 -0.21407171197E+02  0.47281709575E+02  0.00000000000E+00 0. -1.
        -12    1    6    6    0    0  0.66454118437E+02 -0.24889419169E+02  0.31493981676E+02  0.77637001009E+02  0.00000000000E+00 0.  1.
</event>
<event>
12    1  0.8344842E-002  0.2526027E+03  0.7818608E-02  0.1112137E+00
         21   -1    0    0  503  502  0.00000000000E+00  0.00000000000E+00  0.51785054058E+03  0.51785054058E+03  0.00000000000E+00 0.  1.
         21   -1    0    0  501  503 -0.00000000000E+00 -0.00000000000E+00 -0.12306168551E+03  0.12306168551E+03  0.00000000000E+00 0. -1.
          6    2    1    2  501    0 -0.11141772053E+03  0.14532616145E+03  0.22905602293E+03  0.33879391043E+03  0.16964978768E+03 0.  0.
         24    2    3    3    0    0 -0.91592503047E+02  0.16965711422E+03  0.22566370625E+03  0.30687789058E+03  0.77956451854E+02 0.  0.
         -6    2    1    2    0  502  0.11141772053E+03 -0.14532616145E+03  0.16573283215E+03  0.30211831566E+03  0.17399569925E+03 0.  0.
        -24    2    5    5    0    0  0.11287203205E+03 -0.16431197010E+03  0.10991668848E+03  0.24295660636E+03  0.84898262826E+02 0.  0.
          5    1    3    3  501    0 -0.19825217481E+02 -0.24330952772E+02  0.33923166732E+01  0.31916019855E+02  0.47000000000E+01 0. -1.
        -11    1    4    4    0    0  0.24833371982E+01  0.59944915020E+02  0.42314915918E+02  0.73417381522E+02  0.00000000000E+00 0.  1.
         12    1    4    4    0    0 -0.94075840245E+02  0.10971219920E+03  0.18334879033E+03  0.23346050905E+03  0.00000000000E+00 0. -1.
         -5    1    5    5    0  502 -0.14543115270E+01  0.18985808657E+02  0.55816143670E+02  0.59161709294E+02  0.47000000000E+01 0.  1.
         13    1    6    6    0    0  0.52774656091E+02 -0.37464681580E+02  0.73524355285E+02  0.97952016373E+02  0.00000000000E+00 0. -1.
        -14    1    6    6    0    0  0.60097375964E+02 -0.12684728852E+03  0.36392333193E+02  0.14500458999E+03  0.00000000000E+00 0.  1.
</event>
<event>
12    1  0.8344842E-002  0.1994253E+03  0.7818608E-02  0.1150536E+00
         21   -1    0    0  503  502  0.00000000000E+00  0.00000000000E+00  0.92464247416E+02  0.92464247416E+02  0.00000000000E+00 0. -1.
         21   -1    0    0  501  503 -0.00000000000E+00 -0.00000000000E+00 -0.46984272210E+03  0.46984272210E+03  0.00000000000E+00 0. -1.
          6    2    1    2  501    0  0.11437875708E+02  0.99810685676E+02 -0.27299417090E+03  0.33721468955E+03  0.17057236449E+03 0.  0.
         24    2    3    3    0    0 -0.50241786891E+02  0.47407221083E+02 -0.97185569044E+02  0.14361391898E+03  0.80051490513E+02 0.  0.
         -6    2    1    2    0  502 -0.11437875708E+02 -0.99810685676E+02 -0.10438430378E+03  0.22509227996E+03  0.17227145337E+03 0.  0.
        -24    2    5    5    0    0 -0.68249573926E+01  0.45349788441E-01  0.31680815353E-01  0.80464154505E+02  0.80174167015E+02 0.  0.
          5    1    3    3  501    0  0.61679662598E+02  0.52403464593E+02 -0.17580860185E+03  0.19360077057E+03  0.47000000000E+01 0. -1.
        -13    1    4    4    0    0 -0.43001473973E+02  0.44032833018E+02 -0.11142144626E+03  0.12729004609E+03  0.00000000000E+00 0.  1.
         14    1    4    4    0    0 -0.72403129174E+01  0.33743880653E+01  0.14235877215E+02  0.16323872888E+02  0.00000000000E+00 0. -1.
         -5    1    5    5    0  502 -0.46129183150E+01 -0.99856035465E+02 -0.10441598460E+03  0.14462812546E+03  0.47000000000E+01 0.  1.
         11    1    6    6    0    0 -0.40822049982E+02  0.64991127751E-01  0.14767175704E+02  0.43410983252E+02  0.00000000000E+00 0. -1.
        -12    1    6    6    0    0  0.33997092590E+02 -0.19641339310E-01 -0.14735494888E+02  0.37053171253E+02  0.00000000000E+00 0.  1.
</event>
<event>
12    1  0.8344842E-002  0.2055950E+03  0.7818608E-02  0.1145754E+00
         21   -1    0    0  503  502  0.00000000000E+00  0.00000000000E+00  0.77852022268E+03  0.77852022268E+03  0.00000000000E+00 0.  1.
         21   -1    0    0  501  503 -0.00000000000E+00 -0.00000000000E+00 -0.19581879102E+03  0.19581879102E+03  0.00000000000E+00 0.  1.
          6    2    1    2  501    0  0.29813629245E+02 -0.10227101509E+03 -0.12464607651E+03  0.23771848119E+03  0.17211978066E+03 0.  0.
         24    2    3    3    0    0  0.28021616132E+02 -0.24469890454E+02 -0.13318545023E+03  0.15928865772E+03  0.79060266987E+02 0.  0.
         -6    2    1    2    0  502 -0.29813629245E+02  0.10227101509E+03  0.70734750816E+03  0.73662053251E+03  0.17584396093E+03 0.  0.
        -24    2    5    5    0    0 -0.83561164778E+02  0.51903828167E+02  0.52239088350E+03  0.53748064675E+03  0.79477888935E+02 0.  0.
          5    1    3    3  501    0  0.17920131128E+01 -0.77801124638E+02  0.85393737196E+01  0.78429823469E+02  0.47000000000E+01 0. -1.
        -11    1    4    4    0    0 -0.23049357599E+02 -0.26941678391E+02 -0.65259646925E+02  0.74269431377E+02  0.00000000000E+00 0.  1.
         12    1    4    4    0    0  0.51070973731E+02  0.24717879377E+01 -0.67925803303E+02  0.85019226342E+02  0.00000000000E+00 0. -1.
         -5    1    5    5    0  502  0.53747535533E+02  0.50367186925E+02  0.18495662467E+03  0.19913988577E+03  0.47000000000E+01 0.  1.
         13    1    6    6    0    0  0.69035801799E+01  0.40601436125E+01  0.37567499294E+01  0.88463187534E+01  0.00000000000E+00 0. -1.
        -14    1    6    6    0    0 -0.90464744958E+02  0.47843684555E+02  0.51863413357E+03  0.52863432799E+03  0.00000000000E+00 0.  1.
</event>
<event>
12    1  0.8344842E-002  0.2355391E+03  0.7818608E-02  0.1125313E+00
         21   -1    0    0  501  502  0.00000000000E+00  0.00000000000E+00  0.13687249587E+03  0.13687249587E+03  0.00000000000E+00 0.  1.
         21   -1    0    0  502  503 -0.00000000000E+00 -0.00000000000E+00 -0.74840342806E+03  0.74840342806E+03  0.00000000000E+00 0.  1.
         -6    2    1    2    0  503  0.12143138847E+03  0.62983099393E+02 -0.62060070771E+03  0.66379508635E+03  0.19174520942E+03 0.  0.
        -24    2    3    3    0    0  0.38928170388E+02  0.62800573859E+02 -0.22179280044E+03  0.25651551258E+03  0.10558810226E+03 0.  0.
          6    2    1    2  501    0 -0.12143138847E+03 -0.62983099393E+02  0.90697755161E+01  0.22148083758E+03  0.17395127960E+03 0.  0.
         24    2    5    5    0    0 -0.13229465516E+03 -0.59374437067E+02  0.54232161491E+02  0.17465387832E+03  0.80843368993E+02 0.  0.
          5    1    5    5  501    0  0.10863266693E+02 -0.36086623264E+01 -0.45162385975E+02  0.46826959265E+02  0.47000000000E+01 0. -1.
        -11    1    6    6    0    0 -0.75623306469E+02 -0.42049945374E+02 -0.10184349261E+02  0.87125216540E+02  0.00000000000E+00 0.  1.
         12    1    6    6    0    0 -0.56671348689E+02 -0.17324491693E+02  0.64416510752E+02  0.87528661775E+02  0.00000000000E+00 0. -1.
         -5    1    3    3    0  503  0.82503218078E+02  0.18252553489E+00 -0.39880790727E+03  0.40727957377E+03  0.47000000000E+01 0.  1.
         11    1    4    4    0    0  0.48877494957E+02  0.64142219316E+02 -0.77407905985E+02  0.11178200983E+03  0.00000000000E+00 0. -1.
        -12    1    4    4    0    0 -0.99493245692E+01 -0.13416454573E+01 -0.14438489445E+03  0.14473350275E+03  0.00000000000E+00 0.  1.
</event>
<event>
12    1  0.8344842E-002  0.1799941E+03  0.7818608E-02  0.1168204E+00
         21   -1    0    0  503  502  0.00000000000E+00  0.00000000000E+00  0.13791302220E+04  0.13791302220E+04  0.00000000000E+00 0.  1.
         21   -1    0    0  501  503 -0.00000000000E+00 -0.00000000000E+00 -0.34920140692E+02  0.34920140692E+02  0.00000000000E+00 0.  1.
          6    2    1    2  501    0 -0.37209452091E+02 -0.40873349436E+02  0.26593453832E+03  0.32112155127E+03  0.17129710447E+03 0.  0.
         24    2    3    3    0    0  0.17341077741E+02 -0.85696846020E+01  0.47705956380E+02  0.93821988927E+02  0.78438223213E+02 0.  0.
         -6    2    1    2    0  502  0.37209452091E+02  0.40873349436E+02  0.10782755430E+04  0.10929288114E+04  0.16958793060E+03 0.  0.
        -24    2    5    5    0    0  0.71284906836E+02 -0.80266032975E+01  0.52408717796E+03  0.53552485025E+03  0.83507669297E+02 0.  0.
          5    1    3    3  501    0 -0.54550529832E+02 -0.32303664834E+02  0.21822858194E+03  0.22729956235E+03  0.47000000000E+01 0. -1.
        -13    1    4    4    0    0  0.24659870734E+02 -0.27715297523E+02 -0.48472493287E+01  0.37413136295E+02  0.00000000000E+00 0.  1.
         14    1    4    4    0    0 -0.73187929927E+01  0.19145612921E+02  0.52553205709E+02  0.56408852632E+02  0.00000000000E+00 0. -1.
         -5    1    5    5    0  502 -0.34075454745E+02  0.48899952734E+02  0.55418836503E+03  0.55740396117E+03  0.47000000000E+01 0.  1.
         13    1    6    6    0    0 -0.35892261219E+01 -0.29271506990E+02  0.96268358548E+02  0.10068416223E+03  0.00000000000E+00 0. -1.
        -14    1    6    6    0    0  0.74874132958E+02  0.21244903693E+02  0.42781881941E+03  0.43484068802E+03  0.00000000000E+00 0.  1.
</event>
<event>
12    1  0.8344842E-002  0.2724428E+03  0.7818608E-02  0.1099982E+00
         21   -1    0    0  503  502  0.00000000000E+00  0.00000000000E+00  0.93949014441E+02  0.93949014441E+02  0.00000000000E+00 0.  1.
         21   -1    0    0  501  503 -0.00000000000E+00 -0.00000000000E+00 -0.78885936677E+03  0.78885936677E+03  0.00000000000E+00 0. -1.
          6    2    1    2  501    0 -0.15365947683E+03 -0.14440643410E+03 -0.36090540709E+03  0.45219222292E+03  0.17251272584E+03 0.  0.
         24    2    3    3    0    0 -0.16571084926E+03 -0.10101471690E+03 -0.21930016725E+03  0.30352410042E+03  0.79813893420E+02 0.  0.
         -6    2    1    2    0  502  0.15365947683E+03  0.14440643410E+03 -0.33400494523E+03  0.43061615828E+03  0.17148329163E+03 0.  0.
        -24    2    5    5    0    0  0.65956791047E+02  0.90609085146E+02 -0.28523032358E+03  0.31665577234E+03  0.79713462294E+02 0.  0.
          5    1    3    3  501    0  0.12051372438E+02 -0.43391717194E+02 -0.14160523984E+03  0.14866812250E+03  0.47000000000E+01 0. -1.
        -13    1    4    4    0    0 -0.26761681453E+02 -0.38102543734E+02 -0.15721404304E+02  0.49144216206E+02  0.00000000000E+00 0.  1.
         14    1    4    4    0    0 -0.13894916781E+03 -0.62912173169E+02 -0.20357876295E+03  0.25437988421E+03  0.00000000000E+00 0. -1.
         -5    1    5    5    0  502  0.87702685779E+02  0.53797348950E+02 -0.48774621650E+02  0.11396038594E+03  0.47000000000E+01 0.  1.
         13    1    6    6    0    0  0.80426724609E+02  0.79579529988E+02 -0.20265700088E+03  0.23210174414E+03  0.00000000000E+00 0. -1.
        -14    1    6    6    0    0 -0.14469933562E+02  0.11029555158E+02 -0.82573322700E+02  0.84554028207E+02  0.00000000000E+00 0.  1.
</event>
<event>
12    1  0.8344842E-002  0.1726274E+03  0.7818608E-02  0.1175778E+00
         21   -1    0    0  503  502  0.00000000000E+00  0.00000000000E+00  0.83831761432E+03  0.83831761432E+03  0.00000000000E+00 0.  1.
         21   -1    0    0  501  503 -0.00000000000E+00 -0.00000000000E+00 -0.57059168884E+02  0.57059168884E+02  0.00000000000E+00 0.  1.
          6    2    1    2  501    0 -0.57342636321E+01  0.21546356925E+02  0.11424364252E+03  0.20700683166E+03  0.17118145700E+03 0.  0.
         24    2    3    3    0    0 -0.37125740712E+01 -0.34236204788E+02  0.12155506913E+03  0.15051498819E+03  0.81812137926E+02 0.  0.
         -6    2    1    2    0  502  0.57342636321E+01 -0.21546356925E+02  0.66701480291E+03  0.68836995154E+03  0.16866332027E+03 0.  0.
        -24    2    5    5    0    0 -0.46243256811E+02 -0.24424547011E+02  0.23128296261E+03  0.24951431097E+03  0.77656843143E+02 0.  0.
          5    1    3    3  501    0 -0.20216895609E+01  0.55782561713E+02 -0.73114266122E+01  0.56491843474E+02  0.47000000000E+01 0. -1.
        -13    1    4    4    0    0 -0.41165298263E+02 -0.18615436149E+02  0.44426737030E+02  0.63362853528E+02  0.00000000000E+00 0.  1.
         14    1    4    4    0    0  0.37452724192E+02 -0.15620768639E+02  0.77128332104E+02  0.87152134658E+02  0.00000000000E+00 0. -1.
         -5    1    5    5    0  502  0.51977520443E+02  0.28781900860E+01  0.43573184030E+03  0.43885564057E+03  0.47000000000E+01 0.  1.
         11    1    6    6    0    0 -0.53626508752E+01 -0.14880568452E+02  0.18992972219E+03  0.19058722075E+03  0.00000000000E+00 0. -1.
        -12    1    6    6    0    0 -0.40880605936E+02 -0.95439785591E+01  0.41353240421E+02  0.58927090220E+02  0.00000000000E+00 0.  1.
</event>
<event>
12    1  0.8344842E-002  0.1788699E+03  0.7818608E-02  0.1169303E+00
         21   -1    0    0  501  502  0.00000000000E+00  0.00000000000E+00  0.71943603446E+03  0.71943603446E+03  0.00000000000E+00 0.  1.
         21   -1    0    0  502  503 -0.00000000000E+00 -0.00000000000E+00 -0.77949420191E+02  0.77949420191E+02  0.00000000000E+00 0.  1.
         -6    2    1    2    0  503 -0.40498998167E+02  0.30303409788E+02  0.57043982205E+02  0.18618365916E+03  0.16985839260E+03 0.  0.
        -24    2    3    3    0    0  0.47128921649E+01 -0.28109556474E+02 -0.10285054913E+02  0.86126281154E+02  0.80620068427E+02 0.  0.
          6    2    1    2  501    0  0.40498998167E+02 -0.30303409788E+02  0.58444263206E+03  0.61120179548E+03  0.17156916721E+03 0.  0.
         24    2    5    5    0    0  0.92066200147E+02 -0.33968161971E+02  0.40952228197E+03  0.42874131865E+03  0.80502159325E+02 0.  0.
          5    1    5    5  501    0 -0.51567201980E+02  0.36647521827E+01  0.17492035009E+03  0.18246047683E+03  0.47000000000E+01 0. -1.
        -13    1    6    6    0    0  0.63820595731E+02 -0.14454104844E+02  0.37268666044E+03  0.37838781224E+03  0.00000000000E+00 0.  1.
         14    1    6    6    0    0  0.28245604415E+02 -0.19514057127E+02  0.36835621531E+02  0.50353506412E+02  0.00000000000E+00 0. -1.
         -5    1    3    3    0  503 -0.45211890332E+02  0.58412966262E+02  0.67329037118E+02  0.10005737801E+03  0.47000000000E+01 0.  1.
         11    1    4    4    0    0 -0.22672595327E+02 -0.38851299257E+02  0.14915168761E+02  0.47391268099E+02  0.00000000000E+00 0. -1.
        -12    1    4    4    0    0  0.27385487492E+02  0.10741742783E+02 -0.25200223674E+02  0.38735013055E+02  0.00000000000E+00 0.  1.
</event>
<event>
12    1  0.8344842E-002  0.2440360E+03  0.7818608E-02  0.1117228E+00
         21   -1    0    0  501  502  0.00000000000E+00  0.00000000000E+00  0.65737024026E+02  0.65737024026E+02  0.00000000000E+00 0. -1.
         21   -1    0    0  502  503 -0.00000000000E+00 -0.00000000000E+00 -0.90478064151E+03  0.90478064151E+03  0.00000000000E+00 0.  1.
         -6    2    1    2    0  503 -0.15879746152E+03  0.67535954414E+02 -0.43616029293E+03  0.49978930321E+03  0.17255667923E+03 0.  0.
        -24    2    3    3    0    0 -0.90123355018E+02 -0.25000866894E+02 -0.28015039251E+03  0.30577802716E+03  0.79175103464E+02 0.  0.
          6    2    1    2  501    0  0.15879746152E+03 -0.67535954414E+02 -0.40288332455E+03  0.47072836233E+03  0.17173374443E+03 0.  0.
         24    2    5    5    0    0  0.63112806238E+02  0.14544135255E+02 -0.26363521305E+03  0.28283259087E+03  0.79347279196E+02 0.  0.
          5    1    5    5  501    0  0.95684655279E+02 -0.82080089669E+02 -0.13924811150E+03  0.18789577146E+03  0.47000000000E+01 0. -1.
        -13    1    6    6    0    0  0.62079614579E+02  0.10821989547E+02 -0.94086325129E+02  0.11323970408E+03  0.00000000000E+00 0.  1.
         14    1    6    6    0    0  0.10331916587E+01  0.37221457075E+01 -0.16954888792E+03  0.16959288679E+03  0.00000000000E+00 0. -1.
         -5    1    3    3    0  503 -0.68674106498E+02  0.92536821308E+02 -0.15600990042E+03  0.19401127604E+03  0.47000000000E+01 0.  1.
         13    1    4    4    0    0  0.14537801821E+02 -0.30255355314E+01 -0.46563751002E+02  0.48874169603E+02  0.00000000000E+00 0. -1.
        -14    1    4    4    0    0 -0.10466115684E+03 -0.21975331363E+02 -0.23358664151E+03  0.25690385756E+03  0.00000000000E+00 0.  1.
</event>
<event>
12    1  0.8344842E-002  0.2875661E+03  0.7818608E-02  0.1091682E+00
         21   -1    0    0  501  502  0.00000000000E+00  0.00000000000E+00  0.71083323525E+03  0.71083323525E+03  0.00000000000E+00 0. -1.
         21   -1    0    0  502  503 -0.00000000000E+00 -0.00000000000E+00 -0.28812414426E+03  0.28812414426E+03  0.00000000000E+00 0.  1.
         -6    2    1    2    0  503  0.18382999222E+03  0.13904374346E+03 -0.17457560671E+03  0.33605219186E+03  0.17125362641E+03 0.  0.
        -24    2    3    3    0    0  0.19710326043E+03  0.14676304674E+03 -0.13143073748E+03  0.29001593404E+03  0.80287708182E+02 0.  0.
          6    2    1    2  501    0 -0.18382999222E+03 -0.13904374346E+03  0.59728469770E+03  0.66290518765E+03  0.17195246165E+03 0.  0.
         24    2    5    5    0    0 -0.24554584549E+02 -0.82837129301E+02  0.21688602298E+03  0.24666837922E+03  0.79629295665E+02 0.  0.
          5    1    5    5  501    0 -0.15927540767E+03 -0.56206614159E+02  0.38039867472E+03  0.41623680843E+03  0.47000000000E+01 0. -1.
        -11    1    6    6    0    0 -0.34073637188E+02 -0.89093957102E+02  0.14290528736E+03  0.17181579409E+03  0.00000000000E+00 0.  1.
         12    1    6    6    0    0  0.95190526387E+01  0.62568278001E+01  0.73980735625E+02  0.74852585132E+02  0.00000000000E+00 0. -1.
         -5    1    3    3    0  503 -0.13273268214E+02 -0.77193032813E+01 -0.43144869232E+02  0.46036257812E+02  0.47000000000E+01 0.  1.
         11    1    4    4    0    0  0.23179857385E+02  0.35714130922E+02  0.46549101868E+01  0.42830749757E+02  0.00000000000E+00 0. -1.
        -12    1    4    4    0    0  0.17392340304E+03  0.11104891582E+03 -0.13608564766E+03  0.24718518429E+03  0.00000000000E+00 0.  1.
</event>
<event>
12    1  0.8344842E-002  0.1744567E+03  0.7818608E-02  0.1173730E+00
         21   -1    0    0  503  502  0.00000000000E+00  0.00000000000E+00  0.54354826630E+02  0.54354826630E+02  0.00000000000E+00 0. -1.
         21   -1    0    0  501  503 -0.00000000000E+00 -0.00000000000E+00 -0.66982213636E+03  0.66982213636E+03  0.00000000000E+00 0. -1.
          6    2    1    2  501    0 -0.24931664108E+02 -0.27727299352E+01 -0.15600646926E+03  0.23271037490E+03  0.17084151788E+03 0.  0.
         24    2    3    3    0    0  0.42151571040E+02  0.32763465041E+02 -0.79231788810E+02  0.12463899502E+03  0.80043757655E+02 0.  0.
         -6    2    1    2    0  502  0.24931664108E+02  0.27727299352E+01 -0.45946084047E+03  0.49146658809E+03  0.17264375857E+03 0.  0.
        -24    2    5    5    0    0  0.51961932747E+02 -0.57215115647E+02 -0.27083324283E+03  0.29163756709E+03  0.75684960226E+02 0.  0.
          5    1    3    3  501    0 -0.67083235148E+02 -0.35536194976E+02 -0.76774680448E+02  0.10807137988E+03  0.47000000000E+01 0. -1.
        -11    1    4    4    0    0 -0.66718618998E+01  0.40386935044E+02 -0.57679019136E+02  0.70728265297E+02  0.00000000000E+00 0.  1.
         12    1    4    4    0    0  0.48823432940E+02 -0.76234700031E+01 -0.21552769674E+02  0.53910729725E+02  0.00000000000E+00 0. -1.
         -5    1    5    5    0  502 -0.27030268639E+02  0.59987845582E+02 -0.18862759764E+03  0.19982902100E+03  0.47000000000E+01 0.  1.
         11    1    6    6    0    0  0.83683001177E+01 -0.24180724661E+02 -0.20249802501E+03  0.20410827035E+03  0.00000000000E+00 0. -1.
        -12    1    6    6    0    0  0.43593632629E+02 -0.33034390987E+02 -0.68335217814E+02  0.87529296738E+02  0.00000000000E+00 0.  1.
</event>
<event>
12    1  0.8344842E-002  0.2395746E+03  0.7818608E-02  0.1120131E+00
         21   -1    0    0  501  502  0.00000000000E+00  0.00000000000E+00  0.17613034352E+03  0.17613034352E+03  0.00000000000E+00 0.  1.
         21   -1    0    0  502  503 -0.00000000000E+00 -0.00000000000E+00 -0.34215430963E+03  0.34215430963E+03  0.00000000000E+00 0.  1.
         -6    2    1    2    0  503 -0.69037422930E+01  0.16599732248E+03 -0.14024886763E+03  0.27732750672E+03  0.17215698760E+03 0.  0.
        -24    2    3    3    0    0 -0.64514171684E+02  0.76155846019E+02 -0.10541021967E+03  0.16496081299E+03  0.78351542298E+02 0.  0.
          6    2    1    2  501    0  0.69037422930E+01 -0.16599732248E+03 -0.25775098474E+02  0.24095714643E+03  0.17260712033E+03 0.  0.
         24    2    5    5    0    0 -0.27734222049E+02 -0.20626677520E+02  0.10645738495E+02  0.87070888582E+02  0.79204551588E+02 0.  0.
          5    1    5    5  501    0  0.34637964342E+02 -0.14537064496E+03 -0.36420836969E+02  0.15388625785E+03  0.47000000000E+01 0. -1.
        -11    1    6    6    0    0 -0.42136437214E+02 -0.34836876917E+02 -0.12750544679E+02  0.56139680476E+02  0.00000000000E+00 0.  1.
         12    1    6    6    0    0  0.14402215165E+02  0.14210199396E+02  0.23396283174E+02  0.30931208106E+02  0.00000000000E+00 0. -1.
         -5    1    3    3    0  503  0.57610429391E+02  0.89841476462E+02 -0.34838647965E+02  0.11236669373E+03  0.47000000000E+01 0.  1.
         13    1    4    4    0    0 -0.48086128361E+02 -0.53828137521E+00 -0.46213743575E+02  0.66695394015E+02  0.00000000000E+00 0. -1.
        -14    1    4    4    0    0 -0.16428043322E+02  0.76694127394E+02 -0.59196476092E+02  0.98265418973E+02  0.00000000000E+00 0.  1.
</event>
<event>
12    1  0.8344842E-002  0.1798662E+03  0.7818608E-02  0.1168367E+00
         21   -1    0    0  503  502  0.00000000000E+00  0.00000000000E+00  0.15261692179E+03  0.15261692179E+03  0.00000000000E+00 0.  1.
         21   -1    0    0  501  503 -0.00000000000E+00 -0.00000000000E+00 -0.28776369280E+03  0.28776369280E+03  0.00000000000E+00 0.  1.
          6    2    1    2  501    0 -0.51368715483E+02  0.69983822277E+01 -0.18236912731E+03  0.25614516823E+03  0.17223276787E+03 0.  0.
         24    2    3    3    0    0 -0.49769788329E+02  0.10663166243E+02 -0.23520903994E+02  0.97177136036E+02  0.79368935352E+02 0.  0.
         -6    2    1    2    0  502  0.51368715483E+02 -0.69983822277E+01  0.47222356300E+02  0.18423544636E+03  0.17036732808E+03 0.  0.
        -24    2    5    5    0    0  0.83279525761E+02 -0.23372437367E+02  0.74378021344E+02  0.13900349263E+03  0.79423741189E+02 0.  0.
          5    1    3    3  501    0 -0.15989271537E+01 -0.36647840157E+01 -0.15884822332E+03  0.15896803220E+03  0.47000000000E+01 0. -1.
        -11    1    4    4    0    0  0.18699091038E+02 -0.85065687464E+01  0.40110557864E+01  0.20930988654E+02  0.00000000000E+00 0.  1.
         12    1    4    4    0    0 -0.68468879367E+02  0.19169734990E+02 -0.27531959780E+02  0.76246147383E+02  0.00000000000E+00 0. -1.
         -5    1    5    5    0  502 -0.31910810278E+02  0.16374055139E+02 -0.27155665043E+02  0.45231953730E+02  0.47000000000E+01 0.  1.
         13    1    6    6    0    0  0.52778833946E+02  0.20247677944E+02  0.62871007563E+02  0.84547840699E+02  0.00000000000E+00 0. -1.
        -14    1    6    6    0    0  0.30500691815E+02 -0.43620115311E+02  0.11507013780E+02  0.54455651929E+02  0.00000000000E+00 0.  1.
</event>
<event>
12    1  0.8344842E-002  0.2096413E+03  0.7818608E-02  0.1144757E+00
         21   -1    0    0  501  502  0.00000000000E+00  0.00000000000E+00  0.27999620282E+03  0.27999620282E+03  0.00000000000E+00 0.  1.
         21   -1    0    0  502  503 -0.00000000000E+00 -0.00000000000E+00 -0.15033415551E+03  0.15033415551E+03  0.00000000000E+00 0. -1.
         -6    2    1    2    0  503  0.41389703594E+02  0.11409544246E+03  0.33028096729E+02  0.21222711149E+03  0.17093453169E+03 0.  0.
        -24    2    3    3    0    0 -0.21725720632E+02  0.10827958417E+02 -0.23826560349E+02  0.78427739041E+02  0.70667911053E+02 0.  0.
          6    2    1    2  501    0 -0.41389703594E+02 -0.11409544246E+03  0.96633950580E+02  0.21810324683E+03  0.15329718954E+03 0.  0.
         24    2    5    5    0    0  0.87360857049E+01 -0.89632865324E+02  0.10630784998E+03  0.16129931420E+03  0.81275703963E+02 0.  0.
          5    1    5    5  501    0 -0.50125789299E+02 -0.24462577135E+02 -0.96738994006E+01  0.56803932632E+02  0.47000000000E+01 0.  1.
        -13    1    6    6    0    0  0.28522049385E+02  0.10016878427E+01  0.25319991261E+02  0.38152491886E+02  0.00000000000E+00 0.  1.
         14    1    6    6    0    0 -0.19785963680E+02 -0.90634553167E+02  0.80987858719E+02  0.12314682232E+03  0.00000000000E+00 0. -1.
         -5    1    3    3    0  503  0.63115424226E+02  0.10326748404E+03  0.56854657078E+02  0.13379937245E+03  0.47000000000E+01 0.  1.
         13    1    4    4    0    0 -0.69559820968E+01  0.39708166483E+02 -0.22031494888E+02  0.45940297555E+02  0.00000000000E+00 0. -1.
        -14    1    4    4    0    0 -0.14769738535E+02 -0.28880208066E+02 -0.17950654608E+01  0.32487441487E+02  0.00000000000E+00 0.  1.
</event>
<event>
12    1  0.8344842E-002  0.2191098E+03  0.7818608E-02  0.1136214E+00
         21   -1    0    0  503  502  0.00000000000E+00  0.00000000000E+00  0.19680628830E+03  0.19680628830E+03  0.00000000000E+00 0. -1.
         21   -1    0    0  501  503 -0.00000000000E+00 -0.00000000000E+00 -0.60616848851E+03  0.60616848851E+03  0.00000000000E+00 0. -1.
          6    2    1    2  501    0  0.11794670584E+03  0.28571855169E+02 -0.51749492939E+03  0.55863526530E+03  0.17188537275E+03 0.  0.
         24    2    3    3    0    0  0.78329743220E+02 -0.50524502626E+02 -0.30282536579E+03  0.32640510128E+03  0.78414373292E+02 0.  0.
         -6    2    1    2    0  502 -0.11794670584E+03 -0.28571855169E+02  0.10813272917E+03  0.24433951151E+03  0.18243172268E+03 0.  0.
        -24    2    5    5    0    0 -0.14279248922E+03 -0.37967147363E+02  0.12754262311E+03  0.21110671973E+03  0.80422180699E+02 0.  0.
          5    1    3    3  501    0  0.39616962625E+02  0.79096357795E+02 -0.21466956360E+03  0.23223016402E+03  0.47000000000E+01 0. -1.
        -11    1    4    4    0    0  0.88792191141E+02 -0.25259793804E+02 -0.25655473082E+03  0.27265810147E+03  0.00000000000E+00 0.  1.
         12    1    4    4    0    0 -0.10462447921E+02 -0.25264708823E+02 -0.46270634970E+02  0.53746999813E+02  0.00000000000E+00 0. -1.
         -5    1    5    5    0  502  0.24845783374E+02  0.93952921942E+01 -0.19409893937E+02  0.33232791781E+02  0.47000000000E+01 0.  1.
         11    1    6    6    0    0 -0.75267923460E+02  0.20723864965E+02  0.49954805052E+02  0.92683447438E+02  0.00000000000E+00 0. -1.
        -12    1    6    6    0    0 -0.67524565758E+02 -0.58691012328E+02  0.77587818059E+02  0.11842327229E+03  0.00000000000E+00 0.  1.
</event>
<event>
12    1  0.8344842E-002  0.1902362E+03  0.7818608E-02  0.1158252E+00
         21   -1    0    0  501  502  0.00000000000E+00  0.00000000000E+00  0.31215041558E+03  0.31215041558E+03  0.00000000000E+00 0. -1.
         21   -1    0    0  502  503 -0.00000000000E+00 -0.00000000000E+00 -0.24859346260E+03  0.24859346260E+03  0.00000000000E+00 0. -1.
         -6    2    1    2    0  503  0.27038123282E+02  0.76918048701E+02 -0.17304105149E+03  0.25715132503E+03  0.17186085109E+03 0.  0.
        -24    2    3    3    0    0  0.73904053112E+02  0.54201774088E+02 -0.16317772613E+03  0.20393648032E+03  0.81015284468E+02 0.  0.
          6    2    1    2  501    0 -0.27038123282E+02 -0.76918048701E+02  0.23659800447E+03  0.30359255315E+03  0.17187895824E+03 0.  0.
         24    2    5    5    0    0  0.47075434525E+02 -0.44903479705E+02  0.93527233183E+02  0.13924813531E+03  0.80064229316E+02 0.  0.
          5    1    5    5  501    0 -0.74113557807E+02 -0.32014568996E+02  0.14307077129E+03  0.16434441784E+03  0.47000000000E+01 0. -1.
        -13    1    6    6    0    0  0.44933543369E+02 -0.12135738484E+02  0.95617703517E+02  0.10634399228E+03  0.00000000000E+00 0.  1.
         14    1    6    6    0    0  0.21418911558E+01 -0.32767741221E+02 -0.20904703345E+01  0.32904143032E+02  0.00000000000E+00 0. -1.
         -5    1    3    3    0  503 -0.46865929830E+02  0.22716274613E+02 -0.98633253582E+01  0.53214844717E+02  0.47000000000E+01 0.  1.
         11    1    4    4    0    0  0.13017565129E+02 -0.20597426968E+02 -0.21198969682E+02  0.32297171937E+02  0.00000000000E+00 0. -1.
        -12    1    4    4    0    0  0.60886487984E+02  0.74799201056E+02 -0.14197875645E+03  0.17163930838E+03  0.00000000000E+00 0.  1.
</event>
<event>
12    1  0.8344842E-002  0.3165335E+03  0.7818608E-02  0.1077261E+00
         21   -1    0    0  503  502  0.00000000000E+00  0.00000000000E+00  0.65955544469E+02  0.65955544469E+02  0.00000000000E+00 0.  1.
         21   -1    0    0  501  503 -0.00000000000E+00 -0.00000000000E+00 -0.19823362827E+04  0.19823362827E+04  0.00000000000E+00 0. -1.
          6    2    1    2  501    0 -0.26567247848E+03 -0.37278496861E+01 -0.14533277056E+04  0.14873893455E+04  0.17195895667E+03 0.  0.
         24    2    3    3    0    0 -0.82559795079E+02 -0.39632281754E+02 -0.74252187504E+03  0.75248363610E+03  0.80660090252E+02 0.  0.
         -6    2    1    2    0  502  0.26567247848E+03  0.37278496861E+01 -0.46305303267E+03  0.56090248163E+03  0.17203987955E+03 0.  0.
        -24    2    5    5    0    0  0.78808981009E+02 -0.23140607451E+02 -0.11030855076E+03  0.16078919743E+03  0.83299738532E+02 0.  0.
          5    1    3    3  501    0 -0.18311268340E+03  0.35904432068E+02 -0.71080583052E+03  0.73490570943E+03  0.47000000000E+01 0. -1.
        -11    1    4    4    0    0 -0.50273950585E+02 -0.11524371010E+02 -0.15401536530E+03  0.16242233216E+03  0.00000000000E+00 0.  1.
         12    1    4    4    0    0 -0.32285844494E+02 -0.28107910744E+02 -0.58850650974E+03  0.59006130394E+03  0.00000000000E+00 0. -1.
         -5    1    5    5    0  502  0.18686349747E+03  0.26868457137E+02 -0.35274448191E+03  0.40011328420E+03  0.47000000000E+01 0.  1.
         13    1    6    6    0    0  0.10414716600E+02 -0.29699264937E+02 -0.79475166868E+02  0.85479908800E+02  0.00000000000E+00 0. -1.
        -14    1    6    6    0    0  0.68394264409E+02  0.65586574866E+01 -0.30833383887E+02  0.75309288630E+02  0.00000000000E+00 0.  1.
</event>
<event>
12    1  0.8344842E-002  0.2028182E+03  0.7818608E-02  0.1147514E+00
         21   -1    0    0  503  502  0.00000000000E+00  0.00000000000E+00  0.81072405581E+02  0.81072405581E+02  0.00000000000E+00 0.  1.
         21   -1    0    0  501  503 -0.00000000000E+00 -0.00000000000E+00 -0.60607118436E+03  0.60607118436E+03  0.00000000000E+00 0.  1.
          6    2    1    2  501    0  0.10538682509E+03  0.17797972185E+02 -0.40257987974E+03  0.45078350299E+03  0.17237185467E+03 0.  0.
         24    2    3    3    0    0  0.80967273871E+02  0.76223675255E+02 -0.22108799808E+03  0.25850435600E+03  0.74691706816E+02 0.  0.
         -6    2    1    2    0  502 -0.10538682509E+03 -0.17797972185E+02 -0.12241889904E+03  0.23636008695E+03  0.17162911508E+03 0.  0.
        -24    2    5    5    0    0 -0.87819989528E+02  0.42549814433E+02 -0.39602943990E+02  0.13228789339E+03  0.80055332714E+02 0.  0.
          5    1    3    3  501    0  0.24419551217E+02 -0.58425703070E+02 -0.18149188166E+03  0.19227914700E+03  0.47000000000E+01 0. -1.
        -11    1    4    4    0    0  0.14262290033E+02  0.63799056411E+02 -0.12199601314E+03  0.13840794680E+03  0.00000000000E+00 0.  1.
         12    1    4    4    0    0  0.66704983839E+02  0.12424618844E+02 -0.99091984941E+02  0.12009640920E+03  0.00000000000E+00 0. -1.
         -5    1    5    5    0  502 -0.17566835560E+02 -0.60347786618E+02 -0.82815955050E+02  0.10407219356E+03  0.47000000000E+01 0.  1.
         11    1    6    6    0    0  0.22568297900E+01  0.30527916781E+02 -0.26469449579E+02  0.40468243657E+02  0.00000000000E+00 0. -1.
        -12    1    6    6    0    0 -0.90076819318E+02  0.12021897652E+02 -0.13133494411E+02  0.91819649733E+02  0.00000000000E+00 0.  1.
</event>
<event>
12    1  0.8344842E-002  0.1774648E+03  0.7818608E-02  0.1170627E+00
         21   -1    0    0  501  502  0.00000000000E+00  0.00000000000E+00  0.42484856842E+02  0.42484856842E+02  0.00000000000E+00 0. -1.
         21   -1    0    0  502  503 -0.00000000000E+00 -0.00000000000E+00 -0.12023165032E+04  0.12023165032E+04  0.00000000000E+00 0.  1.
         -6    2    1    2    0  503  0.28490986632E+02  0.27516133971E+02 -0.96635414496E+03  0.98226128171E+03  0.17154596499E+03 0.  0.
        -24    2    3    3    0    0  0.52279882095E+01  0.83771521939E+02 -0.59707308207E+03  0.60796670629E+03  0.77988786897E+02 0.  0.
          6    2    1    2  501    0 -0.28490986632E+02 -0.27516133971E+02 -0.19347750141E+03  0.26254007835E+03  0.17298807832E+03 0.  0.
         24    2    5    5    0    0 -0.44170828490E+02  0.32817978361E+01 -0.30508614359E+02  0.95880790608E+02  0.79375803436E+02 0.  0.
          5    1    5    5  501    0  0.15679841857E+02 -0.30797931807E+02 -0.16296888705E+03  0.16665928774E+03  0.47000000000E+01 0. -1.
        -13    1    6    6    0    0 -0.29029037350E+02  0.27469190096E+02 -0.47961799992E+02  0.62430566812E+02  0.00000000000E+00 0.  1.
         14    1    6    6    0    0 -0.15141791139E+02 -0.24187392260E+02  0.17453185634E+02  0.33450223796E+02  0.00000000000E+00 0. -1.
         -5    1    3    3    0  503  0.23262998423E+02 -0.56255387968E+02 -0.36928106289E+03  0.37429457541E+03  0.47000000000E+01 0.  1.
         13    1    4    4    0    0 -0.34169804955E+02  0.56717068117E+02 -0.37610775060E+03  0.38189192378E+03  0.00000000000E+00 0. -1.
        -14    1    4    4    0    0  0.39397793164E+02  0.27054453822E+02 -0.22096533147E+03  0.22607478252E+03  0.00000000000E+00 0.  1.
</event>
<event>
12    1  0.8344842E-002  0.2295269E+03  0.7818608E-02  0.1127279E+00
         21   -1    0    0  501  502  0.00000000000E+00  0.00000000000E+00  0.13945857259E+03  0.13945857259E+03  0.00000000000E+00 0. -1.
         21   -1    0    0  502  503 -0.00000000000E+00 -0.00000000000E+00 -0.13141079976E+04  0.13141079976E+04  0.00000000000E+00 0.  1.
         -6    2    1    2    0  503  0.13513187697E+03  0.62425170268E+02 -0.12011080170E+04  0.12225197257E+04  0.17244270101E+03 0.  0.
        -24    2    3    3    0    0  0.14998563859E+03  0.91781660330E+02 -0.10659477305E+04  0.10833334089E+04  0.80294119650E+02 0.  0.
          6    2    1    2  501    0 -0.13513187697E+03 -0.62425170268E+02  0.26458592057E+02  0.23104684444E+03  0.17471422717E+03 0.  0.
         24    2    5    5    0    0 -0.14525964887E+03 -0.97723365930E+02  0.24554690223E+02  0.19397597686E+03  0.79834359452E+02 0.  0.
          5    1    5    5  501    0  0.10127771900E+02  0.35298195662E+02  0.19039018343E+01  0.37070867576E+02  0.47000000000E+01 0. -1.
        -11    1    6    6    0    0 -0.51508501242E+02 -0.53884090327E+02 -0.25800159113E+02  0.78881360921E+02  0.00000000000E+00 0.  1.
         12    1    6    6    0    0 -0.93751147625E+02 -0.43839275603E+02  0.50354849336E+02  0.11509461594E+03  0.00000000000E+00 0. -1.
         -5    1    3    3    0  503 -0.14853761623E+02 -0.29356490062E+02 -0.13516028654E+03  0.13918631686E+03  0.47000000000E+01 0.  1.
         13    1    4    4    0    0  0.22394459838E+02  0.33675410933E+02 -0.44111177324E+03  0.44296178348E+03  0.00000000000E+00 0. -1.
        -14    1    4    4    0    0  0.12759117875E+03  0.58106249397E+02 -0.62483595727E+03  0.64037162539E+03  0.00000000000E+00 0.  1.
</event>
<event>
12    1  0.8344842E-002  0.1775970E+03  0.7818608E-02  0.1170246E+00
         21   -1    0    0  501  502  0.00000000000E+00  0.00000000000E+00  0.22690157489E+03  0.22690157489E+03  0.00000000000E+00 0. -1.
         21   -1    0    0  502  503 -0.00000000000E+00 -0.00000000000E+00 -0.15187070661E+03  0.15187070661E+03  0.00000000000E+00 0.  1.
         -6    2    1    2    0  503 -0.47707572289E+01 -0.44641202166E+02 -0.18221025518E+02  0.17852927120E+03  0.17182868751E+03 0.  0.
        -24    2    3    3    0    0  0.43784133011E+02 -0.18175202706E+02 -0.57504304806E+02  0.11053447342E+03  0.81631712262E+02 0.  0.
          6    2    1    2  501    0  0.47707572289E+01  0.44641202166E+02  0.93251893797E+02  0.20024301029E+03  0.17142272434E+03 0.  0.
         24    2    5    5    0    0 -0.91939201835E+01 -0.32495804766E+02  0.13349853058E+02  0.88209282479E+02  0.80387520444E+02 0.  0.
          5    1    5    5  501    0  0.13964677412E+02  0.77137006932E+02  0.79902040739E+02  0.11203372781E+03  0.47000000000E+01 0. -1.
        -13    1    6    6    0    0  0.80549152463E+01 -0.14096373100E+02  0.44942185084E+02  0.47784823891E+02  0.00000000000E+00 0.  1.
         14    1    6    6    0    0 -0.17248835430E+02 -0.18399431666E+02 -0.31592332026E+02  0.40424458588E+02  0.00000000000E+00 0. -1.
         -5    1    3    3    0  503 -0.48554890240E+02 -0.26465999460E+02  0.39283279288E+02  0.67994797781E+02  0.47000000000E+01 0.  1.
         11    1    4    4    0    0  0.58707736771E+02  0.71086234308E+01 -0.19000230790E+02  0.62113924799E+02  0.00000000000E+00 0. -1.
        -12    1    4    4    0    0 -0.14923603760E+02 -0.25283826137E+02 -0.38504074016E+02  0.48420548625E+02  0.00000000000E+00 0.  1.
</event>
<event>
12    1  0.8344842E-002  0.2299274E+03  0.7818608E-02  0.1126867E+00
         21   -1    0    0  503  502  0.00000000000E+00  0.00000000000E+00  0.13141433801E+03  0.13141433801E+03  0.00000000000E+00 0. -1.
         21   -1    0    0  501  503 -0.00000000000E+00 -0.00000000000E+00 -0.67719724924E+03  0.67719724924E+03  0.00000000000E+00 0. -1.
          6    2    1    2  501    0  0.10518310828E+03  0.11158868018E+03 -0.53165576643E+03  0.57924473933E+03  0.17132161056E+03 0.  0.
         24    2    3    3    0    0  0.77288012818E+02  0.20391359712E+02 -0.16391308423E+03  0.19930808944E+03  0.80417478568E+02 0.  0.
         -6    2    1    2    0  502 -0.10518310828E+03 -0.11158868018E+03 -0.14127144800E+02  0.22936684792E+03  0.16998251350E+03 0.  0.
        -24    2    5    5    0    0  0.83268335880E+01 -0.48021411344E+02  0.25706171154E+02  0.93226891890E+02  0.75200093291E+02 0.  0.
          5    1    3    3  501    0  0.27895095457E+02  0.91197320469E+02 -0.36774268221E+03  0.37993664989E+03  0.47000000000E+01 0. -1.
        -13    1    4    4    0    0 -0.15257183854E+02  0.18198473766E+01 -0.87277486787E+01  0.17671080913E+02  0.00000000000E+00 0.  1.
         14    1    4    4    0    0  0.92545196672E+02  0.18571512336E+02 -0.15518533555E+03  0.18163700853E+03  0.00000000000E+00 0. -1.
         -5    1    5    5    0  502 -0.11350994186E+03 -0.63567268837E+02 -0.39833315954E+02  0.13613995603E+03  0.47000000000E+01 0.  1.
         11    1    6    6    0    0 -0.23658459645E+02 -0.51132786913E+02  0.23403399089E+02  0.61008226488E+02  0.00000000000E+00 0. -1.
        -12    1    6    6    0    0  0.31985293233E+02  0.31113755693E+01  0.23027720655E+01  0.32218665402E+02  0.00000000000E+00 0.  1.
</event>
<event>
12    1  0.8344842E-002  0.1773114E+03  0.7818608E-02  0.1170581E+00
         21   -1    0    0  501  502  0.00000000000E+00  0.00000000000E+00  0.13959396510E+03  0.13959396510E+03  0.00000000000E+00 0.  1.
         21   -1    0    0  502  503 -0.00000000000E+00 -0.00000000000E+00 -0.29062647705E+03  0.29062647705E+03  0.00000000000E+00 0.  1.
         -6    2    1    2    0  503 -0.37989732732E+02  0.88901241154E+01 -0.17826544337E+03  0.25143172685E+03  0.17296557712E+03 0.  0.
        -24    2    3    3    0    0  0.12684282524E+02 -0.20948193148E+02 -0.30523924755E+02  0.92347386577E+02  0.83645753065E+02 0.  0.
          6    2    1    2  501    0  0.37989732732E+02 -0.88901241154E+01  0.27232931418E+02  0.17878871529E+03  0.17234128369E+03 0.  0.
         24    2    5    5    0    0  0.47588951317E+02 -0.40934584273E+02  0.62504000393E+02  0.12995091507E+03  0.95079660204E+02 0.  0.
          5    1    5    5  501    0 -0.95992185844E+01  0.32044460158E+02 -0.35271068975E+02  0.48837800226E+02  0.47000000000E+01 0. -1.
        -13    1    6    6    0    0 -0.97544168411E+01  0.24313257712E+02  0.79544311170E+01  0.27378022626E+02  0.00000000000E+00 0.  1.
         14    1    6    6    0    0  0.57343368158E+02 -0.65247841986E+02  0.54549569276E+02  0.10257289244E+03  0.00000000000E+00 0. -1.
         -5    1    3    3    0  503 -0.50674015256E+02  0.29838317263E+02 -0.14774151861E+03  0.15908434028E+03  0.47000000000E+01 0.  1.
         11    1    4    4    0    0 -0.19005615985E+02  0.15384080984E+02  0.12739020118E+02  0.27571108433E+02  0.00000000000E+00 0. -1.
        -12    1    4    4    0    0  0.31689898509E+02 -0.36332274131E+02 -0.43262944873E+02  0.64776278144E+02  0.00000000000E+00 0.  1.
</event>
<event>
12    1  0.8344842E-002  0.2194224E+03  0.7818608E-02  0.1134358E+00
         21   -1    0    0  503  502  0.00000000000E+00  0.00000000000E+00  0.14419535324E+04  0.14419535324E+04  0.00000000000E+00 0. -1.
         21   -1    0    0  501  503 -0.00000000000E+00 -0.00000000000E+00 -0.33885636250E+02  0.33885636250E+02  0.00000000000E+00 0.  1.
          6    2    1    2  501    0  0.12389008888E+03 -0.55408679104E+02  0.61197842424E+03  0.65012595711E+03  0.17241604484E+03 0.  0.
         24    2    3    3    0    0  0.36170308977E+02 -0.41637302200E+02  0.48807292233E+03  0.49761669833E+03  0.79782484022E+02 0.  0.
         -6    2    1    2    0  502 -0.12389008888E+03  0.55408679104E+02  0.79608947188E+03  0.82571321151E+03  0.17211910002E+03 0.  0.
        -24    2    5    5    0    0 -0.77338586697E+02 -0.33043495216E+02  0.37803011109E+03  0.39584515195E+03  0.81935888701E+02 0.  0.
          5    1    3    3  501    0  0.87719779907E+02 -0.13771376904E+02  0.12390550191E+03  0.15250925878E+03  0.47000000000E+01 0. -1.
        -11    1    4    4    0    0  0.43455230974E+02  0.58647578077E+01  0.31342614389E+03  0.31647859352E+03  0.00000000000E+00 0.  1.
         12    1    4    4    0    0 -0.72849219972E+01 -0.47502060008E+02  0.17464677844E+03  0.18113810481E+03  0.00000000000E+00 0. -1.
         -5    1    5    5    0  502 -0.46551502187E+02  0.88452174320E+02  0.41805936078E+03  0.42986805957E+03  0.47000000000E+01 0.  1.
         13    1    6    6    0    0  0.11323757767E+02 -0.21329622520E+02  0.12905311477E+03  0.13129313279E+03  0.00000000000E+00 0. -1.
        -14    1    6    6    0    0 -0.88662344464E+02 -0.11713872696E+02  0.24897699632E+03  0.26455201915E+03  0.00000000000E+00 0.  1.
</event>
<event>
12    1  0.8344842E-002  0.2873552E+03  0.7818608E-02  0.1092133E+00
         21   -1    0    0  503  502  0.00000000000E+00  0.00000000000E+00  0.18337038846E+04  0.18337038846E+04  0.00000000000E+00 0. -1.
         21   -1    0    0  501  503 -0.00000000000E+00 -0.00000000000E+00 -0.80813583791E+02  0.80813583791E+02  0.00000000000E+00 0.  1.
          6    2    1    2  501    0 -0.18404138999E+03 -0.13078431796E+03  0.23786344718E+03  0.37303083918E+03  0.17775605874E+03 0.  0.
         24    2    3    3    0    0 -0.11359234277E+03 -0.25866812631E+02  0.64424590278E+02  0.15838257279E+03  0.85803258680E+02 0.  0.
         -6    2    1    2    0  502  0.18404138999E+03  0.13078431796E+03  0.15150268537E+04  0.15414866292E+04  0.17291295430E+03 0.  0.
        -24    2    5    5    0    0  0.18857371928E+03  0.60158571884E+02  0.11431723103E+04  0.11629282725E+04  0.79875745001E+02 0.  0.
          5    1    3    3  501    0 -0.70449047226E+02 -0.10491750533E+03  0.17343885690E+03  0.21464826639E+03  0.47000000000E+01 0. -1.
        -11    1    4    4    0    0 -0.87427390533E+02 -0.45788116531E+02  0.74870564991E+02  0.12387776932E+03  0.00000000000E+00 0.  1.
         12    1    4    4    0    0 -0.26164952235E+02  0.19921303900E+02 -0.10445974713E+02  0.34504803466E+02  0.00000000000E+00 0. -1.
         -5    1    5    5    0  502 -0.45323292908E+01  0.70625746080E+02  0.37185454338E+03  0.37855835673E+03  0.47000000000E+01 0.  1.
         11    1    6    6    0    0  0.76620731506E+02 -0.14872844114E+02  0.46298470005E+03  0.46951759335E+03  0.00000000000E+00 0. -1.
        -12    1    6    6    0    0  0.11195298778E+03  0.75031415998E+02  0.68018761024E+03  0.69341067917E+03  0.00000000000E+00 0.  1.
</event>
<event>
12    1  0.8344842E-002  0.2405686E+03  0.7818608E-02  0.1120751E+00
         21   -1    0    0  503  502  0.00000000000E+00  0.00000000000E+00  0.11451695949E+03  0.11451695949E+03  0.00000000000E+00 0. -1.
         21   -1    0    0  501  503 -0.00000000000E+00 -0.00000000000E+00 -0.58437695209E+03  0.58437695209E+03  0.00000000000E+00 0.  1.
          6    2    1    2  501    0  0.47403437714E+02  0.16112209236E+03 -0.37288363814E+03  0.43951456568E+03  0.16100755045E+03 0.  0.
         24    2    3    3    0    0 -0.25975404446E+02  0.42357700052E+02 -0.15334806911E+03  0.17930812567E+03  0.78529467336E+02 0.  0.
         -6    2    1    2    0  502 -0.47403437714E+02 -0.16112209236E+03 -0.96976354461E+02  0.25937934591E+03  0.17223767650E+03 0.  0.
        -24    2    5    5    0    0 -0.16361117868E+02 -0.64851625346E+02  0.22780955527E+02  0.10254971945E+03  0.74323976857E+02 0.  0.
          5    1    3    3  501    0  0.73378842160E+02  0.11876439231E+03 -0.21953556902E+03  0.26020644001E+03  0.47000000000E+01 0. -1.
        -11    1    4    4    0    0  0.34159074726E+01  0.58706674488E+02 -0.88479379960E+02  0.10623908288E+03  0.00000000000E+00 0.  1.
         12    1    4    4    0    0 -0.29391311918E+02 -0.16348974436E+02 -0.64868689153E+02  0.73069042787E+02  0.00000000000E+00 0. -1.
         -5    1    5    5    0  502 -0.31042319846E+02 -0.96270467012E+02 -0.11975730999E+03  0.15682962646E+03  0.47000000000E+01 0.  1.
         11    1    6    6    0    0  0.62780709031E+01 -0.21798526545E+02  0.43982142786E+02  0.49487562254E+02  0.00000000000E+00 0. -1.
        -12    1    6    6    0    0 -0.22639188771E+02 -0.43053098802E+02 -0.21201187259E+02  0.53062157192E+02  0.00000000000E+00 0.  1.
</event>
<event>
12    1  0.8344842E-002  0.1751518E+03  0.7818608E-02  0.1172769E+00
         21   -1    0    0  501  502  0.00000000000E+00  0.00000000000E+00  0.72772033122E+03  0.72772033122E+03  0.00000000000E+00 0.  1.
         21   -1    0    0  502  503 -0.00000000000E+00 -0.00000000000E+00 -0.46859221036E+02  0.46859221036E+02  0.00000000000E+00 0.  1.
         -6    2    1    2    0  503  0.47756994547E+01 -0.26022444704E+02  0.21474158848E+03  0.27663823165E+03  0.17237977391E+03 0.  0.
        -24    2    3    3    0    0  0.28790954570E+02  0.16209563287E+02  0.42304045005E+02  0.97425867745E+02  0.81304972019E+02 0.  0.
          6    2    1    2  501    0 -0.47756994547E+01  0.26022444704E+02  0.46611952171E+03  0.49794132060E+03  0.17314206686E+03 0.  0.
         24    2    5    5    0    0  0.59190294852E+02  0.38174090167E+02  0.34082059790E+03  0.35665713458E+03  0.78005637785E+02 0.  0.
          5    1    5    5  501    0 -0.63965994306E+02 -0.12151645462E+02  0.12529892381E+03  0.14128418603E+03  0.47000000000E+01 0. -1.
        -11    1    6    6    0    0  0.41467662524E+02 -0.49100406094E+01  0.26032223077E+03  0.26365003198E+03  0.00000000000E+00 0.  1.
         12    1    6    6    0    0  0.17722632327E+02  0.43084130776E+02  0.80498367135E+02  0.93007102593E+02  0.00000000000E+00 0. -1.
         -5    1    3    3    0  503 -0.24015255116E+02 -0.42232007992E+02  0.17243754348E+03  0.17921236391E+03  0.47000000000E+01 0.  1.
         11    1    4    4    0    0  0.88390745816E+01  0.39110424919E+02  0.51889148515E+02  0.65576202317E+02  0.00000000000E+00 0. -1.
        -12    1    4    4    0    0  0.19951879989E+02 -0.22900861631E+02 -0.95851035104E+01  0.31849665428E+02  0.00000000000E+00 0.  1.
</event>
<event>
12    1  0.8344842E-002  0.2351516E+03  0.7818608E-02  0.1123302E+00
         21   -1    0    0  501  502  0.00000000000E+00  0.00000000000E+00  0.33386539373E+02  0.33386539373E+02  0.00000000000E+00 0.  1.
         21   -1    0    0  502  503 -0.00000000000E+00 -0.00000000000E+00 -0.16701033872E+04  0.16701033872E+04  0.00000000000E+00 0. -1.
         -6    2    1    2    0  503  0.11223971487E+03 -0.11247648078E+03 -0.91713878656E+03  0.94646359987E+03  0.17146743056E+03 0.  0.
        -24    2    3    3    0    0  0.13967570207E+03 -0.83805352389E+02 -0.84129998882E+03  0.86074090602E+03  0.80972818175E+02 0.  0.
          6    2    1    2  501    0 -0.11223971487E+03  0.11247648078E+03 -0.71957806124E+03  0.75702632667E+03  0.17334232242E+03 0.  0.
         24    2    5    5    0    0 -0.11511402344E+03  0.26396805753E+02 -0.53180894398E+03  0.55039306822E+03  0.78509533837E+02 0.  0.
          5    1    5    5  501    0  0.28743085727E+01  0.86079675029E+02 -0.18776911725E+03  0.20663325845E+03  0.47000000000E+01 0. -1.
        -13    1    6    6    0    0 -0.76383212201E+02  0.54549312929E+02 -0.36041111567E+03  0.37243280595E+03  0.00000000000E+00 0.  1.
         14    1    6    6    0    0 -0.38730811240E+02 -0.28152507176E+02 -0.17139782831E+03  0.17796026228E+03  0.00000000000E+00 0. -1.
         -5    1    3    3    0  503 -0.27435987203E+02 -0.28671128392E+02 -0.75838797748E+02  0.85722693850E+02  0.47000000000E+01 0.  1.
         11    1    4    4    0    0  0.50005594182E+02 -0.23912717660E+02 -0.49363019108E+03  0.49673246629E+03  0.00000000000E+00 0. -1.
        -12    1    4    4    0    0  0.89670107889E+02 -0.59892634730E+02 -0.34766979773E+03  0.36400843974E+03  0.00000000000E+00 0.  1.
</event>
<event>
12    1  0.8344842E-002  0.2210036E+03  0.7818608E-02  0.1134999E+00
         21   -1    0    0  503  502  0.00000000000E+00  0.00000000000E+00  0.42359880368E+03  0.42359880368E+03  0.00000000000E+00 0.  1.
         21   -1    0    0  501  503 -0.00000000000E+00 -0.00000000000E+00 -0.13774927074E+03  0.13774927074E+03  0.00000000000E+00 0. -1.
          6    2    1    2  501    0 -0.51575508294E+02  0.11220723476E+03  0.20127166308E+02  0.22191819806E+03  0.18328144265E+03 0.  0.
         24    2    3    3    0    0 -0.30001866554E+02  0.95036407061E+02 -0.56662342831E+02  0.14019318319E+03  0.80693722523E+02 0.  0.
         -6    2    1    2    0  502  0.51575508294E+02 -0.11220723476E+03  0.26572236663E+03  0.33942987635E+03  0.17132941442E+03 0.  0.
        -24    2    5    5    0    0  0.43013396468E+02 -0.11591105237E+03  0.11123352780E+03  0.18458828199E+03  0.80090023116E+02 0.  0.
          5    1    3    3  501    0 -0.21573641740E+02  0.17170827699E+02  0.76789509139E+02  0.81725014871E+02  0.47000000000E+01 0. -1.
        -13    1    4    4    0    0 -0.21541919135E+02  0.10942639839E+03 -0.49953492208E+02  0.12220287365E+03  0.00000000000E+00 0.  1.
         14    1    4    4    0    0 -0.84599474190E+01 -0.14389991328E+02 -0.67088506227E+01  0.17990309542E+02  0.00000000000E+00 0. -1.
         -5    1    5    5    0  502  0.85621118258E+01  0.37038176088E+01  0.15448883883E+03  0.15484159437E+03  0.47000000000E+01 0.  1.
         11    1    6    6    0    0  0.35500288031E+02 -0.10459706242E+02  0.50683780148E+02  0.62757640771E+02  0.00000000000E+00 0. -1.
        -12    1    6    6    0    0  0.75131084372E+01 -0.10545134613E+03  0.60549747656E+02  0.12183064122E+03  0.00000000000E+00 0.  1.
</event>
<event>
12    1  0.8344842E-002  0.1754530E+03  0.7818608E-02  0.1172620E+00
         21   -1    0    0  501  502  0.00000000000E+00  0.00000000000E+00  0.24643855664E+03  0.24643855664E+03  0.00000000000E+00 0.  1.
         21   -1    0    0  502  503 -0.00000000000E+00 -0.00000000000E+00 -0.14911195342E+03  0.14911195342E+03  0.00000000000E+00 0.  1.
         -6    2    1    2    0  503  0.55763542929E+00  0.29828095645E+02 -0.32742732052E+02  0.17714308884E+03  0.17151548378E+03 0.  0.
        -24    2    3    3    0    0 -0.65652696544E+02  0.27212779332E+02 -0.14700091085E+02  0.10830796095E+03  0.80397200227E+02 0.  0.
          6    2    1    2  501    0 -0.55763542929E+00 -0.29828095645E+02  0.13006933528E+03  0.21840742122E+03  0.17289807234E+03 0.  0.
         24    2    5    5    0    0  0.62121093416E+02 -0.20093911086E+02  0.46680114239E+02  0.11353020928E+03  0.80294955287E+02 0.  0.
          5    1    5    5  501    0 -0.62678728845E+02 -0.97341845588E+01  0.83389221037E+02  0.10487721194E+03  0.47000000000E+01 0. -1.
        -13    1    6    6    0    0  0.35274932290E+01 -0.29495837749E+02 -0.10122311086E+02  0.31383257236E+02  0.00000000000E+00 0.  1.
         14    1    6    6    0    0  0.58593600187E+02  0.94019266629E+01  0.56802425325E+02  0.82146952047E+02  0.00000000000E+00 0. -1.
         -5    1    3    3    0  503  0.66210331974E+02  0.26153163126E+01 -0.18042640967E+02  0.68835127897E+02  0.47000000000E+01 0.  1.
         13    1    4    4    0    0  0.12186276558E+02  0.17584066939E+02 -0.20540792751E+02  0.29658538624E+02  0.00000000000E+00 0. -1.
        -14    1    4    4    0    0 -0.77838973102E+02  0.96287123933E+01  0.58407016662E+01  0.78649422324E+02  0.00000000000E+00 0.  1.
</event>
<event>
12    1  0.8344842E-002  0.2129338E+03  0.7818608E-02  0.1139358E+00
         21   -1    0    0  501  502  0.00000000000E+00  0.00000000000E+00  0.73222693479E+03  0.73222693479E+03  0.00000000000E+00 0. -1.
         21   -1    0    0  502  503 -0.00000000000E+00 -0.00000000000E+00 -0.61783632141E+02  0.61783632141E+02  0.00000000000E+00 0. -1.
         -6    2    1    2    0  503  0.95598262755E+02 -0.80641579069E+02  0.33729888133E+03  0.39862973549E+03  0.17173537362E+03 0.  0.
        -24    2    3    3    0    0  0.86626519300E+02 -0.79061263220E+02  0.35240683319E+03  0.38037241399E+03  0.82083859936E+02 0.  0.
          6    2    1    2  501    0 -0.95598262755E+02  0.80641579069E+02  0.33314442132E+03  0.39538083144E+03  0.17233312015E+03 0.  0.
         24    2    5    5    0    0 -0.17229209533E+02 -0.33825524405E+02  0.16384501056E+03  0.17645434432E+03  0.53384795423E+02 0.  0.
          5    1    5    5  501    0 -0.78369053222E+02  0.11446710347E+03  0.16929941076E+03  0.21892648712E+03  0.47000000000E+01 0. -1.
        -13    1    6    6    0    0 -0.13913103304E+02 -0.12311052442E+02  0.10041476325E+02  0.21117947404E+02  0.00000000000E+00 0.  1.
         14    1    6    6    0    0 -0.33161062292E+01 -0.21514471963E+02  0.15380353423E+03  0.15533639692E+03  0.00000000000E+00 0. -1.
         -5    1    3    3    0  503  0.89717434553E+01 -0.15803158486E+01 -0.15107951857E+02  0.18257321494E+02  0.47000000000E+01 0.  1.
         13    1    4    4    0    0  0.49221993201E+02 -0.29254096255E+02  0.27558805291E+03  0.28147358965E+03  0.00000000000E+00 0. -1.
        -14    1    4    4    0    0  0.37404526099E+02 -0.49807166966E+02  0.76818780280E+02  0.98898824349E+02  0.00000000000E+00 0.  1.
</event>
<event>
12    1  0.8344842E-002  0.1763839E+03  0.7818608E-02  0.1171626E+00
         21   -1    0    0  503  502  0.00000000000E+00  0.00000000000E+00  0.12472319481E+03  0.12472319481E+03  0.00000000000E+00 0.  1.
         21   -1    0    0  501  503 -0.00000000000E+00 -0.00000000000E+00 -0.72899150657E+03  0.72899150657E+03  0.00000000000E+00 0.  1.
          6    2    1    2  501    0  0.33251173291E+02 -0.18115183775E+02 -0.64858306964E+03  0.67184914219E+03  0.17113582685E+03 0.  0.
         24    2    3    3    0    0  0.61303502877E+02 -0.15767577685E+02 -0.62906050670E+03  0.63727075424E+03  0.79938458521E+02 0.  0.
         -6    2    1    2    0  502 -0.33251173291E+02  0.18115183775E+02  0.44314757881E+02  0.18186555918E+03  0.17227153985E+03 0.  0.
        -24    2    5    5    0    0  0.47876867495E+02  0.11330883411E+02  0.36517696150E+02  0.99946880571E+02  0.78963621015E+02 0.  0.
          5    1    3    3  501    0 -0.28052329586E+02 -0.23476060896E+01 -0.19522562942E+02  0.34578387952E+02  0.47000000000E+01 0. -1.
        -11    1    4    4    0    0  0.65203094437E+02 -0.15596451834E+02 -0.27033989098E+03  0.27852890243E+03  0.00000000000E+00 0.  1.
         12    1    4    4    0    0 -0.38995915603E+01 -0.17112585153E+00 -0.35872061572E+03  0.35874185181E+03  0.00000000000E+00 0. -1.
         -5    1    5    5    0  502 -0.81128040786E+02  0.67843003638E+01  0.77970617312E+01  0.81918678608E+02  0.47000000000E+01 0.  1.
         13    1    6    6    0    0  0.56246307110E+02  0.29482658843E+02  0.64365554842E+01  0.63830270894E+02  0.00000000000E+00 0. -1.
        -14    1    6    6    0    0 -0.83694396149E+01 -0.18151775431E+02  0.30081140666E+02  0.36116609677E+02  0.00000000000E+00 0.  1.
</event>
<event>
12    1  0.8344842E-002  0.2088193E+03  0.7818608E-02  0.1142807E+00
         21   -1    0    0  501  502  0.00000000000E+00  0.00000000000E+00  0.18648129381E+03  0.18648129381E+03  0.00000000000E+00 0.  1.
         21   -1    0    0  502  503 -0.00000000000E+00 -0.00000000000E+00 -0.30946010846E+03  0.30946010846E+03  0.00000000000E+00 0.  1.
         -6    2    1    2    0  503  0.13973771218E+02  0.11509935245E+03 -0.18526645785E+03  0.27803025418E+03  0.17185469042E+03 0.  0.
        -24    2    3    3    0    0  0.30338714693E+02  0.37613167795E+01 -0.30437094847E+02  0.86566964723E+02  0.75052231982E+02 0.  0.
          6    2    1    2  501    0 -0.13973771218E+02 -0.11509935245E+03  0.62287643202E+02  0.21791114809E+03  0.17367322980E+03 0.  0.
         24    2    5    5    0    0  0.27915444013E+02 -0.13655502993E+03  0.40214593050E+02  0.16571572691E+03  0.80112049268E+02 0.  0.
          5    1    5    5  501    0 -0.41889215231E+02  0.21455677481E+02  0.22073050151E+02  0.52195421176E+02  0.47000000000E+01 0. -1.
        -11    1    6    6    0    0  0.24132123559E+02 -0.41101979377E+02  0.50733320390E+02  0.69610357663E+02  0.00000000000E+00 0.  1.
         12    1    6    6    0    0  0.37833204543E+01 -0.95453050551E+02 -0.10518727340E+02  0.96105369246E+02  0.00000000000E+00 0. -1.
         -5    1    3    3    0  503 -0.16364943475E+02  0.11133803567E+03 -0.15482936300E+03  0.19146328946E+03  0.47000000000E+01 0.  1.
         13    1    4    4    0    0 -0.22086485422E+02 -0.13137139648E+02 -0.64893783590E+01  0.26504892150E+02  0.00000000000E+00 0. -1.
        -14    1    4    4    0    0  0.52425200115E+02  0.16898456427E+02 -0.23947716488E+02  0.60062072572E+02  0.00000000000E+00 0.  1.
</event>
<event>
12    1  0.8344842E-002  0.1869727E+03  0.7818608E-02  0.1161490E+00
         21   -1    0    0  501  502  0.00000000000E+00  0.00000000000E+00  0.15388950674E+04  0.15388950674E+04  0.00000000000E+00 0. -1.
         21   -1    0    0  502  503 -0.00000000000E+00 -0.00000000000E+00 -0.22600582757E+02  0.22600582757E+02  0.00000000000E+00 0. -1.
         -6    2    1    2    0  503  0.74003248843E+02 -0.86949070262E+01  0.72955702028E+03  0.75284576445E+03  0.17020933279E+03 0.  0.
        -24    2    3    3    0    0 -0.21591445666E+02 -0.24976838373E+02  0.31189072933E+03  0.32404433313E+03  0.81479260018E+02 0.  0.
          6    2    1    2  501    0 -0.74003248843E+02  0.86949070262E+01  0.78673746434E+03  0.80864988568E+03  0.17148386970E+03 0.  0.
         24    2    5    5    0    0 -0.17668126303E+02  0.27888668916E+02  0.68463058333E+03  0.69037075956E+03  0.82479145717E+02 0.  0.
          5    1    5    5  501    0 -0.56335122540E+02 -0.19193761890E+02  0.10210688101E+03  0.11827912612E+03  0.47000000000E+01 0. -1.
        -13    1    6    6    0    0  0.23946579782E+02  0.24949041840E+02  0.49494771709E+03  0.49615434698E+03  0.00000000000E+00 0.  1.
         14    1    6    6    0    0 -0.41614706085E+02  0.29396270764E+01  0.18968286624E+03  0.19421641258E+03  0.00000000000E+00 0. -1.
         -5    1    3    3    0  503  0.95594694509E+02  0.16281931346E+02  0.41766629095E+03  0.42880143132E+03  0.47000000000E+01 0.  1.
         11    1    4    4    0    0  0.27022877483E+02 -0.28212873072E+02  0.14744938755E+03  0.15253695946E+03  0.00000000000E+00 0. -1.
        -12    1    4    4    0    0 -0.48614323149E+02  0.32360346994E+01  0.16444134178E+03  0.17150737367E+03  0.00000000000E+00 0.  1.
</event>
<event>
12    1  0.8344842E-002  0.2039910E+03  0.7818608E-02  0.1146462E+00
         21   -1    0    0  503  502  0.00000000000E+00  0.00000000000E+00  0.86769814736E+02  0.86769814736E+02  0.00000000000E+00 0.  1.
         21   -1    0    0  501  503 -0.00000000000E+00 -0.00000000000E+00 -0.51640206893E+03  0.51640206893E+03  0.00000000000E+00 0.  1.
          6    2    1    2  501    0 -0.92967112249E+02 -0.58092056870E+02 -0.13357211027E+03  0.24363895832E+03  0.17175815071E+03 0.  0.
         24    2    3    3    0    0 -0.89183159069E+02 -0.41351321164E+02 -0.16500031728E+03  0.20752258074E+03  0.78593569654E+02 0.  0.
         -6    2    1    2    0  502  0.92967112249E+02  0.58092056870E+02 -0.29606014392E+03  0.35953292535E+03  0.17203123135E+03 0.  0.
        -24    2    5    5    0    0 -0.46199868581E+00  0.17439409385E+02 -0.72067658039E+02  0.11341027249E+03  0.85812563935E+02 0.  0.
          5    1    3    3  501    0 -0.37839531796E+01 -0.16740735707E+02  0.31428207007E+02  0.36116377578E+02  0.47000000000E+01 0. -1.
        -11    1    4    4    0    0 -0.78393532997E+02 -0.41852716515E+02 -0.73321129448E+02  0.11520930483E+03  0.00000000000E+00 0.  1.
         12    1    4    4    0    0 -0.10789626072E+02  0.50139535151E+00 -0.91679187831E+02  0.92313275911E+02  0.00000000000E+00 0. -1.
         -5    1    5    5    0  502  0.93429110934E+02  0.40652647485E+02 -0.22399248588E+03  0.24612265286E+03  0.47000000000E+01 0.  1.
         13    1    6    6    0    0  0.10436986720E+02  0.43130954659E+02 -0.10190574807E+02  0.45530844013E+02  0.00000000000E+00 0. -1.
        -14    1    6    6    0    0 -0.10898985406E+02 -0.25691545274E+02 -0.61877083232E+02  0.67879428480E+02  0.00000000000E+00 0.  1.
</event>
<event>
12    1  0.8344842E-002  0.2471881E+03  0.7818608E-02  0.1115270E+00
         21   -1    0    0  503  502  0.00000000000E+00  0.00000000000E+00  0.14165736468E+04  0.14165736468E+04  0.00000000000E+00 0. -1.
         21   -1    0    0  501  503 -0.00000000000E+00 -0.00000000000E+00 -0.48454308973E+02  0.48454308973E+02  0.00000000000E+00 0.  1.
          6    2    1    2  501    0 -0.15009082935E+03  0.92252189531E+02  0.43837640284E+03  0.50326516809E+03  0.17339041300E+03 0.  0.
         24    2    3    3    0    0 -0.14192395618E+03  0.47362566822E+02  0.42124041040E+03  0.45430081084E+03  0.80994575759E+02 0.  0.
         -6    2    1    2    0  502  0.15009082935E+03 -0.92252189531E+02  0.92974293495E+03  0.96176278764E+03  0.17183716440E+03 0.  0.
        -24    2    5    5    0    0  0.98477535058E+02 -0.57673031538E+01  0.69049674148E+03  0.70213921627E+03  0.80514857859E+02 0.  0.
          5    1    3    3  501    0 -0.81668731782E+01  0.44889622709E+02  0.17135992436E+02  0.48964357253E+02  0.47000000000E+01 0. -1.
        -13    1    4    4    0    0 -0.10060667812E+03  0.62100580890E+02  0.36038386412E+03  0.37928184158E+03  0.00000000000E+00 0.  1.
         14    1    4    4    0    0 -0.41317278054E+02 -0.14738014068E+02  0.60856546279E+02  0.75018969264E+02  0.00000000000E+00 0. -1.
         -5    1    5    5    0  502  0.51613294295E+02 -0.86484886377E+02  0.23924619347E+03  0.25962357137E+03  0.47000000000E+01 0.  1.
         13    1    6    6    0    0  0.80773660556E+02 -0.20075895865E+02  0.31051527942E+03  0.32147653816E+03  0.00000000000E+00 0. -1.
        -14    1    6    6    0    0  0.17703874502E+02  0.14308592711E+02  0.37998146206E+03  0.38066267812E+03  0.00000000000E+00 0.  1.
</event>
<event>
12    1  0.8344842E-002  0.2025121E+03  0.7818608E-02  0.1148327E+00
         21   -1    0    0  503  502  0.00000000000E+00  0.00000000000E+00  0.33391720812E+03  0.33391720812E+03  0.00000000000E+00 0. -1.
         21   -1    0    0  501  503 -0.00000000000E+00 -0.00000000000E+00 -0.24224844347E+03  0.24224844347E+03  0.00000000000E+00 0. -1.
          6    2    1    2  501    0  0.28817980329E+02 -0.10133495284E+03 -0.15792940191E+03  0.25681287493E+03  0.17295059434E+03 0.  0.
         24    2    3    3    0    0  0.27105827116E+02 -0.12121483297E+03 -0.17610900810E+03  0.22941343727E+03  0.78666262611E+02 0.  0.
         -6    2    1    2    0  502 -0.28817980329E+02  0.10133495284E+03  0.24959816656E+03  0.31935277666E+03  0.16907898318E+03 0.  0.
        -24    2    5    5    0    0 -0.36894089597E+02 -0.12219665297E+01  0.15745995683E+03  0.18116925758E+03  0.81645543911E+02 0.  0.
          5    1    3    3  501    0  0.17121532132E+01  0.19879880130E+02  0.18179606187E+02  0.27399437654E+02  0.47000000000E+01 0. -1.
        -13    1    4    4    0    0  0.23512321480E+01  0.66389749834E+00  0.73655988602E+01  0.77602254523E+01  0.00000000000E+00 0.  1.
         14    1    4    4    0    0  0.24754594968E+02 -0.12187873047E+03 -0.18347460696E+03  0.22165321182E+03  0.00000000000E+00 0. -1.
         -5    1    5    5    0  502  0.80761092676E+01  0.10255691937E+03  0.92138209737E+02  0.13818351908E+03  0.47000000000E+01 0.  1.
         11    1    6    6    0    0 -0.37435232933E+02  0.28780418546E+02  0.13684568986E+03  0.14476343458E+03  0.00000000000E+00 0. -1.
        -12    1    6    6    0    0  0.54114333626E+00 -0.30002385076E+02  0.20614266961E+02  0.36405823006E+02  0.00000000000E+00 0.  1.
</event>
<event>
12    1  0.8344842E-002  0.1837611E+03  0.7818608E-02  0.1164360E+00
         21   -1    0    0  501  502  0.00000000000E+00  0.00000000000E+00  0.58068203521E+03  0.58068203521E+03  0.00000000000E+00 0. -1.
         21   -1    0    0  502  503 -0.00000000000E+00 -0.00000000000E+00 -0.60836857743E+02  0.60836857743E+02  0.00000000000E+00 0. -1.
         -6    2    1    2    0  503  0.65237064890E+02  0.24074257909E+01  0.33016308296E+03  0.37785683135E+03  0.17177442566E+03 0.  0.
        -24    2    3    3    0    0  0.99343432256E+02  0.29403612622E+02  0.18531711457E+03  0.22654760176E+03  0.79042349050E+02 0.  0.
          6    2    1    2  501    0 -0.65237064890E+02 -0.24074257909E+01  0.18968209450E+03  0.26366206160E+03  0.17110439918E+03 0.  0.
         24    2    5    5    0    0 -0.78984291155E+02  0.27080216818E+02  0.19799117312E+03  0.22975574826E+03  0.81334757843E+02 0.  0.
          5    1    5    5  501    0  0.13747226265E+02 -0.29487642608E+02 -0.83090786239E+01  0.33906313338E+02  0.47000000000E+01 0. -1.
        -13    1    6    6    0    0 -0.11774405379E+02  0.43287214569E+02  0.55378484249E+02  0.71268478902E+02  0.00000000000E+00 0.  1.
         14    1    6    6    0    0 -0.67209885775E+02 -0.16206997752E+02  0.14261268887E+03  0.15848726936E+03  0.00000000000E+00 0. -1.
         -5    1    3    3    0  503 -0.34106367366E+02 -0.26996186831E+02  0.14484596839E+03  0.15130922959E+03  0.47000000000E+01 0.  1.
         13    1    4    4    0    0  0.83319974402E+02  0.35834325723E+02  0.18831943063E+03  0.20902278581E+03  0.00000000000E+00 0. -1.
        -14    1    4    4    0    0  0.16023457854E+02 -0.64307131011E+01 -0.30023160558E+01  0.17524815956E+02  0.00000000000E+00 0.  1.
</event>
<event>
12    1  0.8344842E-002  0.1726655E+03  0.7818608E-02  0.1175213E+00
         21   -1    0    0  503  502  0.00000000000E+00  0.00000000000E+00  0.35740704327E+02  0.35740704327E+02  0.00000000000E+00 0. -1.
         21   -1    0    0  501  503 -0.00000000000E+00 -0.00000000000E+00 -0.94121774592E+03  0.94121774592E+03  0.00000000000E+00 0. -1.
          6    2    1    2  501    0 -0.38851396996E+01  0.16870394960E+02 -0.61864192786E+03  0.64216335771E+03  0.17133662348E+03 0.  0.
         24    2    3    3    0    0  0.57412083610E+02  0.23744031667E+02 -0.48843624565E+03  0.49800994586E+03  0.74726258651E+02 0.  0.
         -6    2    1    2    0  502  0.38851396996E+01 -0.16870394960E+02 -0.28683511373E+03  0.33479509254E+03  0.17179542188E+03 0.  0.
        -24    2    5    5    0    0  0.43931254091E+02  0.30126886045E+02 -0.10508528142E+03  0.14278590722E+03  0.80667927831E+02 0.  0.
          5    1    3    3  501    0 -0.61297223310E+02 -0.68736367070E+01 -0.13020568221E+03  0.14415341184E+03  0.47000000000E+01 0. -1.
        -11    1    4    4    0    0  0.10320808736E+02 -0.24081540484E+02 -0.82439058942E+02  0.86502243464E+02  0.00000000000E+00 0.  1.
         12    1    4    4    0    0  0.47091274874E+02  0.47825572151E+02 -0.40599718671E+03  0.41150770240E+03  0.00000000000E+00 0. -1.
         -5    1    5    5    0  502 -0.40046114391E+02 -0.46997281005E+02 -0.18174983232E+03  0.19200918532E+03  0.47000000000E+01 0.  1.
         11    1    6    6    0    0  0.38394882332E+02 -0.67247095225E+01 -0.93951124208E+01  0.40095596327E+02  0.00000000000E+00 0. -1.
        -12    1    6    6    0    0  0.55363717593E+01  0.36851595567E+02 -0.95690168996E+02  0.10269031089E+03  0.00000000000E+00 0.  1.
</event>
<event>
12    1  0.8344842E-002  0.2066929E+03  0.7818608E-02  0.1144381E+00
         21   -1    0    0  503  502  0.00000000000E+00  0.00000000000E+00  0.33707112727E+03  0.33707112727E+03  0.00000000000E+00 0. -1.
         21   -1    0    0  501  503 -0.00000000000E+00 -0.00000000000E+00 -0.13084225229E+03  0.13084225229E+03  0.00000000000E+00 0.  1.
          6    2    1    2  501    0 -0.61421679483E+02 -0.96695915147E+02  0.59010336184E+02  0.21415115074E+03  0.17104319008E+03 0.  0.
         24    2    3    3    0    0 -0.22634590153E+02 -0.44046305957E+01 -0.19890810754E+02  0.86598806623E+02  0.81067771118E+02 0.  0.
         -6    2    1    2    0  502  0.61421679483E+02  0.96695915147E+02  0.14721853880E+03  0.25376222882E+03  0.17204431956E+03 0.  0.
        -24    2    5    5    0    0  0.52591413294E+02  0.78276311583E+02  0.17801670280E+03  0.21650807064E+03  0.79326921457E+02 0.  0.
          5    1    3    3  501    0 -0.38787089329E+02 -0.92291284551E+02  0.78901146938E+02  0.12755234412E+03  0.47000000000E+01 0. -1.
        -13    1    4    4    0    0  0.15140378201E+02 -0.24966448163E+02  0.13482109929E+02  0.32160874896E+02  0.00000000000E+00 0.  1.
         14    1    4    4    0    0 -0.37774968354E+02  0.20561817567E+02 -0.33372920683E+02  0.54437931727E+02  0.00000000000E+00 0. -1.
         -5    1    5    5    0  502  0.88302661886E+01  0.18419603564E+02 -0.30798164000E+02  0.37254158187E+02  0.47000000000E+01 0.  1.
         13    1    6    6    0    0  0.67750174543E+02  0.49034335891E+02  0.91647097329E+02  0.12407111951E+03  0.00000000000E+00 0. -1.
        -14    1    6    6    0    0 -0.15158761249E+02  0.29241975692E+02  0.86369605469E+02  0.92436951128E+02  0.00000000000E+00 0.  1.
</event>
<event>
12    1  0.8344842E-002  0.2004972E+03  0.7818608E-02  0.1149419E+00
         21   -1    0    0  501  502  0.00000000000E+00  0.00000000000E+00  0.16592561989E+03  0.16592561989E+03  0.00000000000E+00 0.  1.
         21   -1    0    0  502  503 -0.00000000000E+00 -0.00000000000E+00 -0.26067576221E+03  0.26067576221E+03  0.00000000000E+00 0. -1.
         -6    2    1    2    0  503  0.10033420363E+03  0.22465770446E+02 -0.10486469406E+03  0.22584923986E+03  0.17157975354E+03 0.  0.
        -24    2    3    3    0    0  0.13742893237E+03  0.14638705767E+02 -0.70462108779E+02  0.17444000221E+03  0.79770937318E+02 0.  0.
          6    2    1    2  501    0 -0.10033420363E+03 -0.22465770446E+02  0.10114551744E+02  0.20075214224E+03  0.17212627690E+03 0.  0.
         24    2    5    5    0    0 -0.36776977847E+02 -0.33687543163E+02  0.66341251938E+02  0.11502594469E+03  0.79639246475E+02 0.  0.
          5    1    5    5  501    0 -0.63557225783E+02  0.11221772716E+02 -0.56226700195E+02  0.85726197553E+02  0.47000000000E+01 0. -1.
        -11    1    6    6    0    0 -0.20106752317E+02 -0.59501092454E+02  0.39264079118E+02  0.74069760368E+02  0.00000000000E+00 0.  1.
         12    1    6    6    0    0 -0.16670225531E+02  0.25813549291E+02  0.27077172821E+02  0.40956184322E+02  0.00000000000E+00 0. -1.
         -5    1    3    3    0  503 -0.37094728736E+02  0.78270646794E+01 -0.34402585280E+02  0.51409237647E+02  0.47000000000E+01 0.  1.
         11    1    4    4    0    0  0.64986055178E+02 -0.17463619011E+02 -0.67253654867E+02  0.95137897021E+02  0.00000000000E+00 0. -1.
        -12    1    4    4    0    0  0.72442877188E+02  0.32102324778E+02 -0.32084539125E+01  0.79302105192E+02  0.00000000000E+00 0.  1.
</event>
<event>
12    1  0.8344842E-002  0.2233184E+03  0.7818608E-02  0.1131471E+00
         21   -1    0    0  501  502  0.00000000000E+00  0.00000000000E+00  0.46481326298E+03  0.46481326298E+03  0.00000000000E+00 0. -1.
         21   -1    0    0  502  503 -0.00000000000E+00 -0.00000000000E+00 -0.19726696228E+03  0.19726696228E+03  0.00000000000E+00 0. -1.
         -6    2    1    2    0  503  0.87438346617E+02 -0.11168443504E+03 -0.89886322161E+02  0.24072941263E+03  0.17248832338E+03 0.  0.
        -24    2    3    3    0    0 -0.11703718791E+02 -0.36848148623E+02 -0.75271504647E+02  0.11556830929E+03  0.78711318179E+02 0.  0.
          6    2    1    2  501    0 -0.87438346617E+02  0.11168443504E+03  0.35743262286E+03  0.42135081263E+03  0.17221948186E+03 0.  0.
         24    2    5    5    0    0 -0.12705323682E+03  0.93414334234E+02  0.25345874977E+03  0.30849784460E+03  0.77851264999E+02 0.  0.
          5    1    5    5  501    0  0.39614890199E+02  0.18270100809E+02  0.10397387309E+03  0.11285296803E+03  0.47000000000E+01 0. -1.
        -13    1    6    6    0    0 -0.60335695568E+01 -0.11092405363E+02  0.62636655772E+01  0.14095351177E+02  0.00000000000E+00 0.  1.
         14    1    6    6    0    0 -0.12101966726E+03  0.10450673960E+03  0.24719508419E+03  0.29440249342E+03  0.00000000000E+00 0. -1.
         -5    1    3    3    0  503  0.99142065408E+02 -0.74836286420E+02 -0.14614817514E+02  0.12516110334E+03  0.47000000000E+01 0.  1.
         11    1    4    4    0    0 -0.83979077050E+00 -0.56979499585E+02 -0.72958537106E+02  0.92576005305E+02  0.00000000000E+00 0. -1.
        -12    1    4    4    0    0 -0.10863928020E+02  0.20131350963E+02 -0.23129675402E+01  0.22992303983E+02  0.00000000000E+00 0.  1.
</event>
<event>
12    1  0.8344842E-002  0.3624453E+03  0.7818608E-02  0.1057815E+00
         21   -1    0    0  503  502  0.00000000000E+00  0.00000000000E+00  0.45963032578E+03  0.45963032578E+03  0.00000000000E+00 0.  1.
         21   -1    0    0  501  503 -0.00000000000E+00 -0.00000000000E+00 -0.28613200467E+03  0.28613200467E+03  0.00000000000E+00 0. -1.
          6    2    1    2  501    0 -0.20528273783E+03  0.24186193123E+03  0.11722176121E+03  0.38092982634E+03  0.17529516555E+03 0.  0.
         24    2    3    3    0    0 -0.17287401095E+03  0.25833864568E+03  0.12405716195E+03  0.34363880329E+03  0.77930534343E+02 0.  0.
         -6    2    1    2    0  502  0.20528273783E+03 -0.24186193123E+03  0.56276559909E+02  0.36483250411E+03  0.17116515016E+03 0.  0.
        -24    2    5    5    0    0  0.18952684058E+03 -0.26171105144E+03  0.40774960447E+02  0.33475551195E+03  0.77366385697E+02 0.  0.
          5    1    3    3  501    0 -0.32408726876E+02 -0.16476714446E+02 -0.68354007485E+01  0.37291023049E+02  0.47000000000E+01 0. -1.
        -11    1    4    4    0    0 -0.13908871656E+03  0.15800121207E+03  0.10789186141E+03  0.23653901972E+03  0.00000000000E+00 0.  1.
         12    1    4    4    0    0 -0.33785294394E+02  0.10033743361E+03  0.16165300539E+02  0.10709978357E+03  0.00000000000E+00 0. -1.
         -5    1    5    5    0  502  0.15755897254E+02  0.19849120211E+02  0.15501599462E+02  0.30076992159E+02  0.47000000000E+01 0.  1.
         13    1    6    6    0    0  0.12202291828E+03 -0.18769340019E+03 -0.65401649296E+01  0.22396691456E+03  0.00000000000E+00 0. -1.
        -14    1    6    6    0    0  0.67503922295E+02 -0.74017651254E+02  0.47315125376E+02  0.11078859739E+03  0.00000000000E+00 0.  1.
</event>
<event>
12    1  0.8344842E-002  0.1897354E+03  0.7818608E-02  0.1158918E+00
         21   -1    0    0  501  502  0.00000000000E+00  0.00000000000E+00  0.21712089454E+03  0.21712089454E+03  0.00000000000E+00 0.  1.
         21   -1    0    0  502  503 -0.00000000000E+00 -0.00000000000E+00 -0.19884007221E+03  0.19884007221E+03  0.00000000000E+00 0.  1.
         -6    2    1    2    0  503  0.36195442329E+01  0.75010838572E+02 -0.76683282762E+02  0.20464566366E+03  0.17424062326E+03 0.  0.
        -24    2    3    3    0    0 -0.44536051712E+02  0.13410178222E+02 -0.86123538965E+02  0.12574819086E+03  0.78943338912E+02 0.  0.
          6    2    1    2  501    0 -0.36195442329E+01 -0.75010838572E+02  0.94964105090E+02  0.21131530310E+03  0.17319425240E+03 0.  0.
         24    2    5    5    0    0 -0.54510730241E+02 -0.17364830125E+01  0.73911175795E+02  0.11953099165E+03  0.76487652417E+02 0.  0.
          5    1    5    5  501    0  0.50891186008E+02 -0.73274355560E+02  0.21052929295E+02  0.91784311448E+02  0.47000000000E+01 0. -1.
        -13    1    6    6    0    0 -0.63001692749E+02 -0.10168619430E+02  0.82861220810E+02  0.10458774318E+03  0.00000000000E+00 0.  1.
         14    1    6    6    0    0  0.84909625082E+01  0.84321364171E+01 -0.89500450147E+01  0.14943248463E+02  0.00000000000E+00 0. -1.
         -5    1    3    3    0  503  0.48155595945E+02  0.61600660351E+02  0.94402562027E+01  0.78897472796E+02  0.47000000000E+01 0.  1.
         13    1    4    4    0    0 -0.30270836608E+02  0.86981561708E+01 -0.10027764044E+03  0.10510750041E+03  0.00000000000E+00 0. -1.
        -14    1    4    4    0    0 -0.14265215104E+02  0.47120220508E+01  0.14154101475E+02  0.20640690452E+02  0.00000000000E+00 0.  1.
</event>
<event>
12    1  0.8344842E-002  0.2078350E+03  0.7818608E-02  0.1143369E+00
         21   -1    0    0  503  502  0.00000000000E+00  0.00000000000E+00  0.18829150749E+04  0.18829150749E+04  0.00000000000E+00 0. -1.
         21   -1    0    0  501  503 -0.00000000000E+00 -0.00000000000E+00 -0.23009439234E+02  0.23009439234E+02  0.00000000000E+00 0. -1.
          6    2    1    2  501    0 -0.96729404284E+02 -0.60957417545E+02  0.99523414167E+03  0.10166258128E+04  0.17310303920E+03 0.  0.
         24    2    3    3    0    0  0.94917385251E+00  0.14375640087E+02  0.56751246761E+03  0.57144709069E+03  0.65374433851E+02 0.  0.
         -6    2    1    2    0  502  0.96729404284E+02  0.60957417545E+02  0.86467149396E+03  0.88929870125E+03  0.17355979715E+03 0.  0.
        -24    2    5    5    0    0  0.92498649739E+02  0.47899798834E+02  0.86506711476E+03  0.87478501095E+03  0.77828731312E+02 0.  0.
          5    1    3    3  501    0 -0.97678578137E+02 -0.75333057632E+02  0.42772167406E+03  0.44517872216E+03  0.47000000000E+01 0. -1.
        -13    1    4    4    0    0 -0.17905402397E+02  0.13691984351E+02  0.51755608442E+03  0.51804669132E+03  0.00000000000E+00 0.  1.
         14    1    4    4    0    0  0.18854576249E+02  0.68365573576E+00  0.49956383194E+02  0.53400399367E+02  0.00000000000E+00 0. -1.
         -5    1    5    5    0  502  0.42307545447E+01  0.13057618711E+02 -0.39562080062E+00  0.14513690304E+02  0.47000000000E+01 0.  1.
         11    1    6    6    0    0 -0.28421643623E+01 -0.82515091818E+01  0.22896605927E+03  0.22913232334E+03  0.00000000000E+00 0. -1.
        -12    1    6    6    0    0  0.95340814102E+02  0.56151308016E+02  0.63610105548E+03  0.64565268760E+03  0.00000000000E+00 0.  1.
</event>
<event>
12    1  0.8344842E-002  0.2010660E+03  0.7818608E-02  0.1149612E+00
         21   -1    0    0  501  502  0.00000000000E+00  0.00000000000E+00  0.13673547169E+04  0.13673547169E+04  0.00000000000E+00 0. -1.
         21   -1    0    0  502  503 -0.00000000000E+00 -0.00000000000E+00 -0.13850708651E+03  0.13850708651E+03  0.00000000000E+00 0. -1.
         -6    2    1    2    0  503  0.95948252909E+02  0.20507222505E+02 -0.56127431087E+02  0.20525101193E+03  0.17132155721E+03 0.  0.
        -24    2    3    3    0    0  0.11415591284E+03 -0.27980176718E+02 -0.23432011528E+02  0.14382115580E+03  0.79504735505E+02 0.  0.
          6    2    1    2  501    0 -0.95948252909E+02 -0.20507222505E+02  0.12849750615E+04  0.13006107915E+04  0.17550187713E+03 0.  0.
         24    2    5    5    0    0 -0.11124884114E+03 -0.61347941879E+02  0.82050793021E+03  0.83407689305E+03  0.79442591498E+02 0.  0.
          5    1    5    5  501    0  0.15300588232E+02  0.40840719374E+02  0.46446713124E+03  0.46653389841E+03  0.47000000000E+01 0. -1.
        -11    1    6    6    0    0 -0.85669148111E+02 -0.10199765369E+02  0.36844674127E+03  0.37841278956E+03  0.00000000000E+00 0.  1.
         12    1    6    6    0    0 -0.25579693029E+02 -0.51148176510E+02  0.45206118894E+03  0.45566410348E+03  0.00000000000E+00 0. -1.
         -5    1    3    3    0  503 -0.18207659929E+02  0.48487399223E+02 -0.32695419559E+02  0.61429856125E+02  0.47000000000E+01 0.  1.
         13    1    4    4    0    0  0.21753148681E+02 -0.35107141407E+02 -0.29794722325E+02  0.50925792421E+02  0.00000000000E+00 0. -1.
        -14    1    4    4    0    0  0.92402764156E+02  0.71269646893E+01  0.63627107966E+01  0.92895363383E+02  0.00000000000E+00 0.  1.
</event>
<event>
12    1  0.8344842E-002  0.1767358E+03  0.7818608E-02  0.1171473E+00
         21   -1    0    0  503  502  0.00000000000E+00  0.00000000000E+00  0.86492854017E+02  0.86492854017E+02  0.00000000000E+00 0. -1.
         21   -1    0    0  501  503 -0.00000000000E+00 -0.00000000000E+00 -0.36051864518E+03  0.36051864518E+03  0.00000000000E+00 0. -1.
          6    2    1    2  501    0  0.20548197068E+02  0.31253359262E+02 -0.15896799428E+03  0.23771067372E+03  0.17273256881E+03 0.  0.
         24    2    3    3    0    0 -0.32312694965E+01  0.38145685781E+01 -0.30849772104E+02  0.10446383842E+03  0.99679451555E+02 0.  0.
         -6    2    1    2    0  502 -0.20548197068E+02 -0.31253359262E+02 -0.11505779689E+03  0.20930082548E+03  0.17079091912E+03 0.  0.
        -24    2    5    5    0    0 -0.23552686377E+02 -0.80099542189E+02 -0.11915823206E+03  0.15996645500E+03  0.66482454540E+02 0.  0.
          5    1    3    3  501    0  0.23779466564E+02  0.27438790684E+02 -0.12811822217E+03  0.13324683530E+03  0.47000000000E+01 0. -1.
        -13    1    4    4    0    0 -0.16720407817E+02  0.25393859792E+02 -0.59087290354E+02  0.66450944569E+02  0.00000000000E+00 0.  1.
         14    1    4    4    0    0  0.13489138320E+02 -0.21579291213E+02  0.28237518251E+02  0.38012893850E+02  0.00000000000E+00 0. -1.
         -5    1    5    5    0  502  0.30044893094E+01  0.48846182927E+02  0.41004351743E+01  0.49334370485E+02  0.47000000000E+01 0.  1.
         11    1    6    6    0    0  0.42010169859E+01  0.14171510729E+01 -0.48150011248E+02  0.48353701452E+02  0.00000000000E+00 0. -1.
        -12    1    6    6    0    0 -0.27753703363E+02 -0.81516693262E+02 -0.71008220812E+02  0.11161275354E+03  0.00000000000E+00 0.  1.
</event>
<event>
12    1  0.8344842E-002  0.1951066E+03  0.7818608E-02  0.1154958E+00
         21   -1    0    0  501  502  0.00000000000E+00  0.00000000000E+00  0.64850001041E+02  0.64850001041E+02  0.00000000000E+00 0.  1.
         21   -1    0    0  502  503 -0.00000000000E+00 -0.00000000000E+00 -0.57762923217E+03  0.57762923217E+03  0.00000000000E+00 0.  1.
         -6    2    1    2    0  503 -0.79606753837E+02  0.22632174584E+01 -0.28781496267E+03  0.34771259287E+03  0.17811298969E+03 0.  0.
        -24    2    3    3    0    0  0.28021936643E+02 -0.55398442393E+01 -0.15482856206E+03  0.17638747640E+03  0.79528230169E+02 0.  0.
          6    2    1    2  501    0  0.79606753837E+02 -0.22632174584E+01 -0.22496426846E+03  0.29476664034E+03  0.17302049810E+03 0.  0.
         24    2    5    5    0    0 -0.74452440203E+00  0.31308037084E+02 -0.46805216881E+02  0.96408139878E+02  0.78249943162E+02 0.  0.
          5    1    5    5  501    0  0.80351278239E+02 -0.33571254542E+02 -0.17815905158E+03  0.19835850046E+03  0.47000000000E+01 0. -1.
        -13    1    6    6    0    0  0.23549270511E+02 -0.14915181129E+02 -0.31349702673E+02  0.41950382923E+02  0.00000000000E+00 0.  1.
         14    1    6    6    0    0 -0.24293794913E+02  0.46223218212E+02 -0.15455514208E+02  0.54457756955E+02  0.00000000000E+00 0. -1.
         -5    1    3    3    0  503 -0.10762869048E+03  0.78030616977E+01 -0.13298640060E+03  0.17132511647E+03  0.47000000000E+01 0.  1.
         11    1    4    4    0    0  0.57130058418E+01 -0.35007003376E+02 -0.12166631296E+03  0.12673129223E+03  0.00000000000E+00 0. -1.
        -12    1    4    4    0    0  0.22308930802E+02  0.29467159137E+02 -0.33162249107E+02  0.49656184176E+02  0.00000000000E+00 0.  1.
</event>
<event>
12    1  0.8344842E-002  0.1924653E+03  0.7818608E-02  0.1156316E+00
         21   -1    0    0  501  502  0.00000000000E+00  0.00000000000E+00  0.22135000505E+04  0.22135000505E+04  0.00000000000E+00 0. -1.
         21   -1    0    0  502  503 -0.00000000000E+00 -0.00000000000E+00 -0.22570679804E+02  0.22570679804E+02  0.00000000000E+00 0. -1.
         -6    2    1    2    0  503 -0.85823504240E+02  0.13502246280E+02  0.52527064077E+03  0.55932927424E+03  0.17144097069E+03 0.  0.
        -24    2    3    3    0    0 -0.16635063681E+02  0.59069616127E+02  0.36303524238E+03  0.37710457780E+03  0.81531162724E+02 0.  0.
          6    2    1    2  501    0  0.85823504240E+02 -0.13502246280E+02  0.16656587299E+04  0.16767414560E+04  0.17174085528E+03 0.  0.
         24    2    5    5    0    0 -0.11560295582E+02  0.15391432331E+01  0.45317877569E+03  0.46025488512E+03  0.79545880750E+02 0.  0.
          5    1    5    5  501    0  0.97383799822E+02 -0.15041389513E+02  0.12124799542E+04  0.12164865709E+04  0.47000000000E+01 0. -1.
        -13    1    6    6    0    0 -0.13100369122E+02 -0.37937376860E+02  0.25979069347E+03  0.26287272328E+03  0.00000000000E+00 0.  1.
         14    1    6    6    0    0  0.15400735404E+01  0.39476520093E+02  0.19338808222E+03  0.19738216183E+03  0.00000000000E+00 0. -1.
         -5    1    3    3    0  503 -0.69188440559E+02 -0.45567369847E+02  0.16223539839E+03  0.18222469644E+03  0.47000000000E+01 0.  1.
         13    1    4    4    0    0 -0.12721722862E+02  0.94174012537E-01  0.41455373921E+01  0.13380455209E+02  0.00000000000E+00 0. -1.
        -14    1    4    4    0    0 -0.39133408187E+01  0.58975442114E+02  0.35888970498E+03  0.36372412259E+03  0.00000000000E+00 0.  1.
</event>
<event>
12    1  0.8344842E-002  0.2409965E+03  0.7818608E-02  0.1119140E+00
         21   -1    0    0  503  502  0.00000000000E+00  0.00000000000E+00  0.19746458242E+03  0.19746458242E+03  0.00000000000E+00 0. -1.
         21   -1    0    0  501  503 -0.00000000000E+00 -0.00000000000E+00 -0.30018050363E+03  0.30018050363E+03  0.00000000000E+00 0.  1.
          6    2    1    2  501    0  0.13819609111E+03 -0.96706210780E+02 -0.86886896700E+02  0.25612933592E+03  0.17205421558E+03 0.  0.
         24    2    3    3    0    0  0.38741071060E+02 -0.39091847562E+02  0.20847040861E+02  0.98524110232E+02  0.79014922968E+02 0.  0.
         -6    2    1    2    0  502 -0.13819609111E+03  0.96706210780E+02 -0.15829024515E+02  0.24151575013E+03  0.17213090583E+03 0.  0.
        -24    2    5    5    0    0 -0.98257290050E+02  0.13374044573E+03 -0.22362031721E+02  0.18645748488E+03  0.82008117486E+02 0.  0.
          5    1    3    3  501    0  0.99455020050E+02 -0.57614363218E+02 -0.10773393756E+03  0.15760522569E+03  0.47000000000E+01 0. -1.
        -11    1    4    4    0    0 -0.93727623825E+01 -0.30387226040E+02  0.35325865069E+02  0.47530505194E+02  0.00000000000E+00 0.  1.
         12    1    4    4    0    0  0.48113833442E+02 -0.87046215217E+01 -0.14478824208E+02  0.50993605038E+02  0.00000000000E+00 0. -1.
         -5    1    5    5    0  502 -0.39938801060E+02 -0.37034234952E+02  0.65330072061E+01  0.55058265245E+02  0.47000000000E+01 0.  1.
         11    1    6    6    0    0 -0.97276955734E+02  0.67563168955E+02 -0.78321577033E+01  0.11869680118E+03  0.00000000000E+00 0. -1.
        -12    1    6    6    0    0 -0.98033431639E+00  0.66177276777E+02 -0.14529874018E+02  0.67760683703E+02  0.00000000000E+00 0.  1.
</event>
<event>
12    1  0.8344842E-002  0.1900299E+03  0.7818608E-02  0.1158792E+00
         21   -1    0    0  503  502  0.00000000000E+00  0.00000000000E+00  0.62928827485E+02  0.62928827485E+02  0.00000000000E+00 0.  1.
         21   -1    0    0  501  503 -0.00000000000E+00 -0.00000000000E+00 -0.56977759229E+03  0.56977759229E+03  0.00000000000E+00 0.  1.
          6    2    1    2  501    0 -0.22739211515E+01 -0.78072178284E+02 -0.26334653948E+03  0.32382993257E+03  0.17150507173E+03 0.  0.
         24    2    3    3    0    0  0.59843160110E+02 -0.73737901146E+02 -0.19936958140E+03  0.23442937939E+03  0.78679235225E+02 0.  0.
         -6    2    1    2    0  502  0.22739211515E+01  0.78072178284E+02 -0.24350222532E+03  0.30887648721E+03  0.17323658642E+03 0.  0.
        -24    2    5    5    0    0  0.28107455515E+02  0.87945589112E+01 -0.21196607452E+03  0.22835705569E+03  0.79686603747E+02 0.  0.
          5    1    3    3  501    0 -0.62117081261E+02 -0.43342771378E+01 -0.63976958086E+02  0.89400553179E+02  0.47000000000E+01 0. -1.
        -11    1    4    4    0    0 -0.87355934769E+01 -0.60848058968E+01 -0.81543560545E+02  0.82235562396E+02  0.00000000000E+00 0.  1.
         12    1    4    4    0    0  0.68578753587E+02 -0.67653095249E+02 -0.11782602085E+03  0.15219381699E+03  0.00000000000E+00 0. -1.
         -5    1    5    5    0  502 -0.25833534364E+02  0.69277619373E+02 -0.31536150800E+02  0.80519431511E+02  0.47000000000E+01 0.  1.
         11    1    6    6    0    0 -0.12439533632E+02  0.18170505440E+02 -0.14068841154E+02  0.26131237176E+02  0.00000000000E+00 0. -1.
        -12    1    6    6    0    0  0.40546989147E+02 -0.93759465290E+01 -0.19789723336E+03  0.20222581852E+03  0.00000000000E+00 0.  1.
</event>
<event>
12    1  0.8344842E-002  0.1909476E+03  0.7818608E-02  0.1158152E+00
         21   -1    0    0  503  502  0.00000000000E+00  0.00000000000E+00  0.25799180493E+03  0.25799180493E+03  0.00000000000E+00 0.  1.
         21   -1    0    0  501  503 -0.00000000000E+00 -0.00000000000E+00 -0.53861424974E+03  0.53861424974E+03  0.00000000000E+00 0.  1.
          6    2    1    2  501    0 -0.47403017131E+02  0.63253676480E+02 -0.48292240166E+03  0.51842218093E+03  0.17117078617E+03 0.  0.
         24    2    3    3    0    0 -0.33447847576E+02 -0.30298618663E+02 -0.27811406950E+03  0.29277794412E+03  0.79590980080E+02 0.  0.
         -6    2    1    2    0  502  0.47403017131E+02 -0.63253676480E+02  0.20229995684E+03  0.27818387373E+03  0.17381864528E+03 0.  0.
        -24    2    5    5    0    0  0.59131393405E+02  0.20652535187E+02  0.66565071827E+02  0.11810934054E+03  0.74805471993E+02 0.  0.
          5    1    3    3  501    0 -0.13955169555E+02  0.93552295144E+02 -0.20480833216E+03  0.22564423681E+03  0.47000000000E+01 0. -1.
        -11    1    4    4    0    0 -0.56999488321E+02 -0.54788705130E+01 -0.17689862522E+03  0.18593569667E+03  0.00000000000E+00 0.  1.
         12    1    4    4    0    0  0.23551640745E+02 -0.24819748150E+02 -0.10121544428E+03  0.10684224745E+03  0.00000000000E+00 0. -1.
         -5    1    5    5    0  502 -0.11728376274E+02 -0.83906211668E+02  0.13573488502E+03  0.16007453319E+03  0.47000000000E+01 0.  1.
         13    1    6    6    0    0  0.32614022401E+02  0.13861922013E+02 -0.99807809692E+01  0.36816345932E+02  0.00000000000E+00 0. -1.
        -14    1    6    6    0    0  0.26517371004E+02  0.67906131749E+01  0.76545852796E+02  0.81292994610E+02  0.00000000000E+00 0.  1.
</event>
<event>
12    1  0.8344842E-002  0.1759124E+03  0.7818608E-02  0.1171960E+00
         21   -1    0    0  501  502  0.00000000000E+00  0.00000000000E+00  0.51042876430E+03  0.51042876430E+03  0.00000000000E+00 0.  1.
         21   -1    0    0  502  503 -0.00000000000E+00 -0.00000000000E+00 -0.12959381082E+03  0.12959381082E+03  0.00000000000E+00 0.  1.
         -6    2    1    2    0  503  0.32240759594E+02  0.14934885965E+02 -0.43220540423E+02  0.18114408009E+03  0.17228652077E+03 0.  0.
        -24    2    3    3    0    0  0.85898661244E+02  0.21427714741E+02 -0.18080784495E+02  0.12134922610E+03  0.80999956451E+02 0.  0.
          6    2    1    2  501    0 -0.32240759594E+02 -0.14934885965E+02  0.42405549391E+03  0.45887849503E+03  0.17170874727E+03 0.  0.
         24    2    5    5    0    0 -0.85131879532E+02 -0.23792637602E+02  0.32536533341E+03  0.34646066677E+03  0.79742503817E+02 0.  0.
          5    1    5    5  501    0  0.52891119938E+02  0.88577516377E+01  0.98690160499E+02  0.11241782826E+03  0.47000000000E+01 0. -1.
        -11    1    6    6    0    0  0.94626613338E+01  0.36608450383E+01  0.99966449057E+02  0.10048002131E+03  0.00000000000E+00 0.  1.
         12    1    6    6    0    0 -0.94594540866E+02 -0.27453482641E+02  0.22539888436E+03  0.24598064546E+03  0.00000000000E+00 0. -1.
         -5    1    3    3    0  503 -0.53657901650E+02 -0.64928287765E+01 -0.25139755927E+02  0.59794853985E+02  0.47000000000E+01 0.  1.
         11    1    4    4    0    0  0.60280886433E+02  0.27850978793E+02  0.24886437293E+02  0.70914011662E+02  0.00000000000E+00 0. -1.
        -12    1    4    4    0    0  0.25617774811E+02 -0.64232640514E+01 -0.42967221789E+02  0.50435214439E+02  0.00000000000E+00 0.  1.
</event>
<event>
12    1  0.8344842E-002  0.3011721E+03  0.7818608E-02  0.1084671E+00
         21   -1    0    0  503  502  0.00000000000E+00  0.00000000000E+00  0.86952899898E+02  0.86952899898E+02  0.00000000000E+00 0. -1.
         21   -1    0    0  501  503 -0.00000000000E+00 -0.00000000000E+00 -0.10429149328E+04  0.10429149328E+04  0.00000000000E+00 0. -1.
          6    2    1    2  501    0  0.13469011994E+03 -0.20721493965E+03 -0.48522215988E+03  0.57102915303E+03  0.17191361069E+03 0.  0.
         24    2    3    3    0    0  0.25716402991E+02 -0.45428632897E+02 -0.23334530853E+03  0.25241634995E+03  0.80863382550E+02 0.  0.
         -6    2    1    2    0  502 -0.13469011994E+03  0.20721493965E+03 -0.47073987298E+03  0.55883867963E+03  0.17211967409E+03 0.  0.
        -24    2    5    5    0    0 -0.78716510352E+02  0.18510458364E+03 -0.43807607785E+03  0.49020249146E+03  0.89038400509E+02 0.  0.
          5    1    3    3  501    0  0.10897371695E+03 -0.16178630676E+03 -0.25187685135E+03  0.31861280308E+03  0.47000000000E+01 0. -1.
        -13    1    4    4    0    0 -0.27487562054E+01 -0.44983844363E+02 -0.21225449247E+03  0.21698633941E+03  0.00000000000E+00 0.  1.
         14    1    4    4    0    0  0.28465159196E+02 -0.44478853464E+00 -0.21090816059E+02  0.35430010541E+02  0.00000000000E+00 0. -1.
         -5    1    5    5    0  502 -0.55973609591E+02  0.22110356017E+02 -0.32663795130E+02  0.68636188168E+02  0.47000000000E+01 0.  1.
         11    1    6    6    0    0 -0.78004164853E+02  0.71025048506E+02 -0.22518361016E+03  0.24867019430E+03  0.00000000000E+00 0. -1.
        -12    1    6    6    0    0 -0.71234549850E+00  0.11407953513E+03 -0.21289246769E+03  0.24153229716E+03  0.00000000000E+00 0.  1.
</event>
<event>
12    1  0.8344842E-002  0.1772503E+03  0.7818608E-02  0.1170808E+00
         21   -1    0    0  503  502  0.00000000000E+00  0.00000000000E+00  0.55780614020E+03  0.55780614020E+03  0.00000000000E+00 0. -1.
         21   -1    0    0  501  503 -0.00000000000E+00 -0.00000000000E+00 -0.31802550520E+03  0.31802550520E+03  0.00000000000E+00 0. -1.
          6    2    1    2  501    0 -0.32161356777E+02 -0.12965067876E+02 -0.27758960555E+03  0.32935341173E+03  0.17382529982E+03 0.  0.
         24    2    3    3    0    0 -0.68570446271E+02  0.23140264493E+02 -0.24927972544E+03  0.27059325402E+03  0.76439189293E+02 0.  0.
         -6    2    1    2    0  502  0.32161356777E+02  0.12965067876E+02  0.51737024056E+03  0.54647823366E+03  0.17252260199E+03 0.  0.
        -24    2    5    5    0    0 -0.44497816418E+02  0.22547640233E+02  0.34743306525E+03  0.35974530117E+03  0.78857435513E+02 0.  0.
          5    1    3    3  501    0  0.36409089494E+02 -0.36105332369E+02 -0.28309880109E+02  0.58760157718E+02  0.47000000000E+01 0. -1.
        -11    1    4    4    0    0 -0.45737987658E+02  0.27617201206E+02 -0.61879640501E+02  0.81754285674E+02  0.00000000000E+00 0.  1.
         12    1    4    4    0    0 -0.22832458613E+02 -0.44769367131E+01 -0.18740008494E+03  0.18883896834E+03  0.00000000000E+00 0. -1.
         -5    1    5    5    0  502  0.76659173194E+02 -0.95825723573E+01  0.16993717531E+03  0.18673293250E+03  0.47000000000E+01 0.  1.
         13    1    6    6    0    0 -0.15028745604E+02  0.36371225826E+02  0.69142766174E+02  0.79557849246E+02  0.00000000000E+00 0. -1.
        -14    1    6    6    0    0 -0.29469070814E+02 -0.13823585593E+02  0.27829029908E+03  0.28018745192E+03  0.00000000000E+00 0.  1.
</event>
<event>
12    1  0.8344842E-002  0.2160097E+03  0.7818608E-02  0.1136994E+00
         21   -1    0    0  501  502  0.00000000000E+00  0.00000000000E+00  0.12853119068E+04  0.12853119068E+04  0.00000000000E+00 0.  1.
         21   -1    0    0  502  503 -0.00000000000E+00 -0.00000000000E+00 -0.62494474170E+02  0.62494474170E+02  0.00000000000E+00 0.  1.
         -6    2    1    2    0  503  0.90201024524E+02  0.94225561719E+02  0.17396637679E+03  0.27694283219E+03  0.17151778550E+03 0.  0.
        -24    2    3    3    0    0  0.60800566847E+02 -0.49410691435E+01  0.13102709208E+03  0.16485233411E+03  0.79291046847E+02 0.  0.
          6    2    1    2  501    0 -0.90201024524E+02 -0.94225561719E+02  0.10488510558E+04  0.10708635488E+04  0.17217874857E+03 0.  0.
         24    2    5    5    0    0 -0.11464183514E+03 -0.45458008111E+02  0.90684056206E+03  0.91866401576E+03  0.79841016913E+02 0.  0.
          5    1    5    5  501    0  0.24440810615E+02 -0.48767553608E+02  0.14201049375E+03  0.15219953300E+03  0.47000000000E+01 0. -1.
        -13    1    6    6    0    0 -0.89954181996E+02 -0.60688094092E+02  0.81901317835E+03  0.82617031291E+03  0.00000000000E+00 0.  1.
         14    1    6    6    0    0 -0.24687653143E+02  0.15230085982E+02  0.87827383709E+02  0.92493702845E+02  0.00000000000E+00 0. -1.
         -5    1    3    3    0  503  0.29400457677E+02  0.99166630863E+02  0.42939284712E+02  0.11209049808E+03  0.47000000000E+01 0.  1.
         13    1    4    4    0    0  0.34951970692E+01  0.31579696294E+02  0.47987676635E+02  0.57552677864E+02  0.00000000000E+00 0. -1.
        -14    1    4    4    0    0  0.57305369778E+02 -0.36520765437E+02  0.83039415447E+02  0.10729965625E+03  0.00000000000E+00 0.  1.
</event>
<event>
12    1  0.8344842E-002  0.1819479E+03  0.7818608E-02  0.1166304E+00
         21   -1    0    0  501  502  0.00000000000E+00  0.00000000000E+00  0.39649187877E+03  0.39649187877E+03  0.00000000000E+00 0. -1.
         21   -1    0    0  502  503 -0.00000000000E+00 -0.00000000000E+00 -0.99320767771E+02  0.99320767771E+02  0.00000000000E+00 0. -1.
         -6    2    1    2    0  503 -0.75181538756E+00 -0.59114100154E+02  0.47958169491E+02  0.18816224235E+03  0.17207556876E+03 0.  0.
        -24    2    3    3    0    0  0.48760043553E+01 -0.20400999177E+02 -0.39560958870E+02  0.92182742607E+02  0.80576748395E+02 0.  0.
          6    2    1    2  501    0  0.75181538756E+00  0.59114100154E+02  0.24921294151E+03  0.30765040419E+03  0.17043074523E+03 0.  0.
         24    2    5    5    0    0 -0.27010286834E+02  0.77444354888E+02  0.86466701525E+02  0.14147230338E+03  0.76228199856E+02 0.  0.
          5    1    5    5  501    0  0.27762102221E+02 -0.18330254734E+02  0.16274623998E+03  0.16617810080E+03  0.47000000000E+01 0. -1.
        -11    1    6    6    0    0  0.11255987485E+01  0.26275320643E+02 -0.10469233593E+02  0.28306612293E+02  0.00000000000E+00 0.  1.
         12    1    6    6    0    0 -0.28135885582E+02  0.51169034244E+02  0.96935935118E+02  0.11316569109E+03  0.00000000000E+00 0. -1.
         -5    1    3    3    0  503 -0.56278197429E+01 -0.38713100977E+02  0.87519128362E+02  0.95979499746E+02  0.47000000000E+01 0.  1.
         11    1    4    4    0    0  0.40070625145E+02 -0.66484571752E+01 -0.35917976687E+02  0.54221379839E+02  0.00000000000E+00 0. -1.
        -12    1    4    4    0    0 -0.35194620790E+02 -0.13752542002E+02 -0.36429821832E+01  0.37961362768E+02  0.00000000000E+00 0.  1.
</event>
<event>
12    1  0.8344842E-002  0.1872379E+03  0.7818608E-02  0.1161088E+00
         21   -1    0    0  503  502  0.00000000000E+00  0.00000000000E+00  0.76667616794E+03  0.76667616794E+03  0.00000000000E+00 0.  1.
         21   -1    0    0  501  503 -0.00000000000E+00 -0.00000000000E+00 -0.99310039326E+02  0.99310039326E+02  0.00000000000E+00 0.  1.
          6    2    1    2  501    0  0.57094265196E+02  0.42609719553E+02  0.15080736284E+02  0.18735945489E+03  0.17262906305E+03 0.  0.
         24    2    3    3    0    0 -0.19234082840E+02 -0.10548379951E+02  0.35776380830E+02  0.91954004518E+02  0.81819137488E+02 0.  0.
         -6    2    1    2    0  502 -0.57094265196E+02 -0.42609719553E+02  0.65228539233E+03  0.67862675238E+03  0.17315511162E+03 0.  0.
        -24    2    5    5    0    0  0.25908087651E+02  0.11108754283E+02  0.36715091052E+03  0.37680092889E+03  0.79903163194E+02 0.  0.
          5    1    3    3  501    0  0.76328348035E+02  0.53158099504E+02 -0.20695644545E+02  0.95405450367E+02  0.47000000000E+01 0. -1.
        -13    1    4    4    0    0  0.19749705210E+02  0.25043621394E+02  0.12348641998E+02  0.34201210324E+02  0.00000000000E+00 0.  1.
         14    1    4    4    0    0 -0.38983788050E+02 -0.35592001345E+02  0.23427738831E+02  0.57752794194E+02  0.00000000000E+00 0. -1.
         -5    1    5    5    0  502 -0.83002352846E+02 -0.53718473836E+02  0.28513448181E+03  0.30182582349E+03  0.47000000000E+01 0.  1.
         11    1    6    6    0    0  0.37583563938E+01 -0.32307380804E+02  0.20222093859E+03  0.20481992115E+03  0.00000000000E+00 0. -1.
        -12    1    6    6    0    0  0.22149731257E+02  0.43416135088E+02  0.16492997193E+03  0.17198100774E+03  0.00000000000E+00 0.  1.
</event>
<event>
12    1  0.8344842E-002  0.1986085E+03  0.7818608E-02  0.1151031E+00
         21   -1    0    0  503  502  0.00000000000E+00  0.00000000000E+00  0.24779125710E+03  0.24779125710E+03  0.00000000000E+00 0. -1.
         21   -1    0    0  501  503 -0.00000000000E+00 -0.00000000000E+00 -0.16392971531E+03  0.16392971531E+03  0.00000000000E+00 0. -1.
          6    2    1    2  501    0  0.37313959916E+02 -0.92170599218E+02  0.78416117533E+02  0.21303782654E+03  0.17131338851E+03 0.  0.
         24    2    3    3    0    0  0.43902351856E+02  0.14176770845E+01  0.77811174455E+02  0.11909833364E+03  0.78742668857E+02 0.  0.
         -6    2    1    2    0  502 -0.37313959916E+02  0.92170599218E+02  0.54454242612E+01  0.19868314587E+03  0.17192320624E+03 0.  0.
        -24    2    5    5    0    0 -0.66642332511E+02  0.12195245511E+02  0.31395809951E+02  0.10951071091E+03  0.80106019912E+02 0.  0.
          5    1    3    3  501    0 -0.65883919404E+01 -0.93588276302E+02  0.60494307743E+00  0.93939492897E+02  0.47000000000E+01 0. -1.
        -13    1    4    4    0    0  0.56707599072E+02  0.14073615122E+02  0.25453212212E+02  0.63731345875E+02  0.00000000000E+00 0.  1.
         14    1    4    4    0    0 -0.12805247216E+02 -0.12655938037E+02  0.52357962243E+02  0.55366987765E+02  0.00000000000E+00 0. -1.
         -5    1    5    5    0  502  0.29328372595E+02  0.79975353707E+02 -0.25950385690E+02  0.89172434962E+02  0.47000000000E+01 0.  1.
         13    1    6    6    0    0 -0.62141355464E+02  0.88354175317E+01 -0.13552531804E+02  0.64212800750E+02  0.00000000000E+00 0. -1.
        -14    1    6    6    0    0 -0.45009770468E+01  0.33598279792E+01  0.44948341755E+02  0.45297910161E+02  0.00000000000E+00 0.  1.
</event>
<event>
12    1  0.8344842E-002  0.2610080E+03  0.7818608E-02  0.1107374E+00
         21   -1    0    0  503  502  0.00000000000E+00  0.00000000000E+00  0.41367922881E+03  0.41367922881E+03  0.00000000000E+00 0. -1.
         21   -1    0    0  501  503 -0.00000000000E+00 -0.00000000000E+00 -0.40741645865E+03  0.40741645865E+03  0.00000000000E+00 0. -1.
          6    2    1    2  501    0 -0.17908726628E+02  0.18864054794E+03 -0.31602080524E+03  0.40637664802E+03  0.17136759290E+03 0.  0.
         24    2    3    3    0    0  0.35412193257E+02  0.14540194540E+03 -0.28329316345E+03  0.33018028470E+03  0.79801345764E+02 0.  0.
         -6    2    1    2    0  502  0.17908726628E+02 -0.18864054794E+03  0.32228357539E+03  0.41471903945E+03  0.17949707490E+03 0.  0.
        -24    2    5    5    0    0  0.95825054317E+00 -0.36962170744E+02  0.20154845256E+03  0.22005854363E+03  0.80230066584E+02 0.  0.
          5    1    3    3  501    0 -0.53320919885E+02  0.43238602534E+02 -0.32727641784E+02  0.76196363320E+02  0.47000000000E+01 0. -1.
        -13    1    4    4    0    0  0.31297786730E+02  0.13435475111E+02 -0.88787603470E+02  0.95096277402E+02  0.00000000000E+00 0.  1.
         14    1    4    4    0    0  0.41144065272E+01  0.13196647029E+03 -0.19450555998E+03  0.23508400730E+03  0.00000000000E+00 0. -1.
         -5    1    5    5    0  502  0.16950476085E+02 -0.15167837719E+03  0.12073512283E+03  0.19466049582E+03  0.47000000000E+01 0.  1.
         13    1    6    6    0    0  0.35448007270E+02 -0.34335606553E+02  0.82965088709E+02  0.96533419298E+02  0.00000000000E+00 0. -1.
        -14    1    6    6    0    0 -0.34489756727E+02 -0.26265641908E+01  0.11858336385E+03  0.12352512433E+03  0.00000000000E+00 0.  1.
</event>
<event>
12    1  0.8344842E-002  0.3803918E+03  0.7818608E-02  0.1050863E+00
         21   -1    0    0  501  502  0.00000000000E+00  0.00000000000E+00  0.10688258935E+03  0.10688258935E+03  0.00000000000E+00 0. -1.
         21   -1    0    0  502  503 -0.00000000000E+00 -0.00000000000E+00 -0.13592890152E+04  0.13592890152E+04  0.00000000000E+00 0.  1.
         -6    2    1    2    0  503 -0.33832200507E+03  0.68994721338E+01 -0.56813059716E+03  0.68327229936E+03  0.17198627217E+03 0.  0.
        -24    2    3    3    0    0 -0.31379520832E+03 -0.22889258060E+02 -0.55323708663E+03  0.64164491821E+03  0.81520403243E+02 0.  0.
          6    2    1    2  501    0  0.33832200507E+03 -0.68994721338E+01 -0.68427582873E+03  0.78289930523E+03  0.17374846910E+03 0.  0.
         24    2    5    5    0    0  0.76631408315E+02  0.29580868033E+02 -0.24884746513E+03  0.27355390820E+03  0.78481076034E+02 0.  0.
          5    1    5    5  501    0  0.26169059675E+03 -0.36480340166E+02 -0.43542836360E+03  0.50934539703E+03  0.47000000000E+01 0. -1.
        -13    1    6    6    0    0  0.18180819765E+02 -0.94947738870E+01 -0.15468113393E+03  0.15603507982E+03  0.00000000000E+00 0.  1.
         14    1    6    6    0    0  0.58450588551E+02  0.39075641920E+02 -0.94166331197E+02  0.11751882838E+03  0.00000000000E+00 0. -1.
         -5    1    3    3    0  503 -0.24526796752E+02  0.29788730194E+02 -0.14893510529E+02  0.41627381150E+02  0.47000000000E+01 0.  1.
         11    1    4    4    0    0 -0.22208012028E+03  0.11934085393E+02 -0.33170249314E+03  0.39936017099E+03  0.00000000000E+00 0. -1.
        -12    1    4    4    0    0 -0.91715088035E+02 -0.34823343453E+02 -0.22153459349E+03  0.24228474722E+03  0.00000000000E+00 0.  1.
</event>
<event>
12    1  0.8344842E-002  0.2242874E+03  0.7818608E-02  0.1131334E+00
         21   -1    0    0  503  502  0.00000000000E+00  0.00000000000E+00  0.14012838001E+04  0.14012838001E+04  0.00000000000E+00 0. -1.
         21   -1    0    0  501  503 -0.00000000000E+00 -0.00000000000E+00 -0.35415462922E+02  0.35415462922E+02  0.00000000000E+00 0. -1.
          6    2    1    2  501    0  0.57351471965E+02 -0.12625594425E+03  0.70358739993E+03  0.73747049953E+03  0.17203997660E+03 0.  0.
         24    2    3    3    0    0  0.14033285906E+02 -0.10615742483E+03  0.65761462020E+03  0.67101749206E+03  0.79631363085E+02 0.  0.
         -6    2    1    2    0  502 -0.57351471965E+02  0.12625594425E+03  0.66228093725E+03  0.69922876349E+03  0.17628122149E+03 0.  0.
        -24    2    5    5    0    0 -0.80883561793E+02  0.93340356366E+02  0.63090630225E+03  0.64781229824E+03  0.79771165412E+02 0.  0.
          5    1    3    3  501    0  0.43318186059E+02 -0.20098519425E+02  0.45972779726E+02  0.66453007473E+02  0.47000000000E+01 0. -1.
        -11    1    4    4    0    0  0.37325119092E+02 -0.31357886588E+02  0.35910704240E+03  0.36240081328E+03  0.00000000000E+00 0.  1.
         12    1    4    4    0    0 -0.23291833186E+02 -0.74799538240E+02  0.29850757780E+03  0.30861667878E+03  0.00000000000E+00 0. -1.
         -5    1    5    5    0  502  0.23532089828E+02  0.32915587887E+02  0.31374634997E+02  0.51416465250E+02  0.47000000000E+01 0.  1.
         13    1    6    6    0    0 -0.17704351307E+01 -0.14374054552E+01  0.18820545048E+03  0.18821926619E+03  0.00000000000E+00 0. -1.
        -14    1    6    6    0    0 -0.79113126662E+02  0.94777761821E+02  0.44270085177E+03  0.45959303205E+03  0.00000000000E+00 0.  1.
</event>
<event>
12    1  0.8344842E-002  0.1815297E+03  0.7818608E-02  0.1166440E+00
         21   -1    0    0  501  502  0.00000000000E+00  0.00000000000E+00  0.88885853893E+03  0.88885853893E+03  0.00000000000E+00 0.  1.
         21   -1    0    0  502  503 -0.00000000000E+00 -0.00000000000E+00 -0.78374323023E+02  0.78374323023E+02  0.00000000000E+00 0.  1.
         -6    2    1    2    0  503 -0.49835410368E+02 -0.22584143871E+02  0.53538451154E+02  0.18882427985E+03  0.17261121408E+03 0.  0.
        -24    2    3    3    0    0 -0.59752538273E+02  0.15796226902E+02  0.89435496380E+02  0.13513917817E+03  0.80274546706E+02 0.  0.
          6    2    1    2  501    0  0.49835410368E+02  0.22584143871E+02  0.75694576476E+03  0.77840858211E+03  0.17308789165E+03 0.  0.
         24    2    5    5    0    0  0.94351888404E+02 -0.71185754741E+01  0.44325367569E+03  0.46014959151E+03  0.79441000698E+02 0.  0.
          5    1    5    5  501    0 -0.44516478035E+02  0.29702719345E+02  0.31369208906E+03  0.31825899059E+03  0.47000000000E+01 0. -1.
        -11    1    6    6    0    0  0.42097121355E+02  0.22626432684E+02  0.90858127581E+02  0.10266120216E+03  0.00000000000E+00 0.  1.
         12    1    6    6    0    0  0.52254767049E+02 -0.29745008158E+02  0.35239554811E+03  0.35748838935E+03  0.00000000000E+00 0. -1.
         -5    1    3    3    0  503  0.99171279047E+01 -0.38380370772E+02 -0.35897045226E+02  0.53685101681E+02  0.47000000000E+01 0.  1.
         13    1    4    4    0    0 -0.35405763780E+02 -0.19508368024E+02  0.82261649111E+02  0.91657642596E+02  0.00000000000E+00 0. -1.
        -14    1    4    4    0    0 -0.24346774493E+02  0.35304594926E+02  0.71738472695E+01  0.43481535572E+02  0.00000000000E+00 0.  1.
</event>
<event>
12    1  0.8344842E-002  0.2429066E+03  0.7818608E-02  0.1117942E+00
         21   -1    0    0  503  502  0.00000000000E+00  0.00000000000E+00  0.41527526261E+03  0.41527526261E+03  0.00000000000E+00 0. -1.
         21   -1    0    0  501  503 -0.00000000000E+00 -0.00000000000E+00 -0.14529139288E+03  0.14529139288E+03  0.00000000000E+00 0.  1.
          6    2    1    2  501    0  0.16003378078E+03  0.61175988142E+02  0.17811743046E+03  0.30086863003E+03  0.17158904682E+03 0.  0.
         24    2    3    3    0    0  0.53120937239E+02 -0.30287882927E+02  0.88763217441E+02  0.13412852925E+03  0.79827086655E+02 0.  0.
         -6    2    1    2    0  502 -0.16003378078E+03 -0.61175988142E+02  0.91866439266E+02  0.25969802546E+03  0.17219265155E+03 0.  0.
        -24    2    5    5    0    0 -0.13887482066E+03 -0.94277185567E+02  0.11027160313E+03  0.21606053102E+03  0.79673854403E+02 0.  0.
          5    1    3    3  501    0  0.10691284354E+03  0.91463871069E+02  0.89354213016E+02  0.16674010078E+03  0.47000000000E+01 0. -1.
        -11    1    4    4    0    0  0.50453786145E+02 -0.90023305637E+01  0.96406903529E+01  0.52149490913E+02  0.00000000000E+00 0.  1.
         12    1    4    4    0    0  0.26671510933E+01 -0.21285552364E+02  0.79122527088E+02  0.81979038340E+02  0.00000000000E+00 0. -1.
         -5    1    5    5    0  502 -0.21158960119E+02  0.33101197425E+02 -0.18405163865E+02  0.43637494442E+02  0.47000000000E+01 0.  1.
         13    1    6    6    0    0 -0.10911909140E+03 -0.48451345417E+02  0.10860104423E+03  0.16139608356E+03  0.00000000000E+00 0. -1.
        -14    1    6    6    0    0 -0.29755729261E+02 -0.45825840149E+02  0.16705589043E+01  0.54664447462E+02  0.00000000000E+00 0.  1.
</event>
<event>
12    1  0.8344842E-002  0.1728446E+03  0.7818608E-02  0.1175416E+00
         21   -1    0    0  501  502  0.00000000000E+00  0.00000000000E+00  0.18300215056E+03  0.18300215056E+03  0.00000000000E+00 0.  1.
         21   -1    0    0  502  503 -0.00000000000E+00 -0.00000000000E+00 -0.26415033281E+03  0.26415033281E+03  0.00000000000E+00 0.  1.
         -6    2    1    2    0  503  0.54141538078E+01  0.10624634074E+01 -0.17986840740E+03  0.24810243152E+03  0.17079733797E+03 0.  0.
        -24    2    3    3    0    0  0.56584821342E+02 -0.14611300619E+02 -0.57559680661E+02  0.11451493686E+03  0.79907582957E+02 0.  0.
          6    2    1    2  501    0 -0.54141538078E+01 -0.10624634074E+01  0.98720225142E+02  0.19905005185E+03  0.17275647137E+03 0.  0.
         24    2    5    5    0    0 -0.10022869059E+02 -0.13253854608E+02 -0.16236749415E+02  0.83261165184E+02  0.79954155802E+02 0.  0.
          5    1    5    5  501    0  0.46087152511E+01  0.12191391200E+02  0.11495697456E+03  0.11578888666E+03  0.47000000000E+01 0. -1.
        -13    1    6    6    0    0  0.31164816139E+02  0.11947748257E+02 -0.66114930379E+01  0.34025083300E+02  0.00000000000E+00 0.  1.
         14    1    6    6    0    0 -0.41187685198E+02 -0.25201602864E+02 -0.96252563773E+01  0.49236081883E+02  0.00000000000E+00 0. -1.
         -5    1    3    3    0  503 -0.51170667535E+02  0.15673764026E+02 -0.12230872673E+03  0.13358749466E+03  0.47000000000E+01 0.  1.
         13    1    4    4    0    0  0.10849751083E+02 -0.80174386839E+01  0.20064679470E+02  0.24178250223E+02  0.00000000000E+00 0. -1.
        -14    1    4    4    0    0  0.45735070259E+02 -0.65938619350E+01 -0.77624360131E+02  0.90336686637E+02  0.00000000000E+00 0.  1.
</event>
<event>
12    1  0.8344842E-002  0.2087691E+03  0.7818608E-02  0.1143892E+00
         21   -1    0    0  501  502  0.00000000000E+00  0.00000000000E+00  0.92514934700E+03  0.92514934700E+03  0.00000000000E+00 0. -1.
         21   -1    0    0  502  503 -0.00000000000E+00 -0.00000000000E+00 -0.81643402123E+02  0.81643402123E+02  0.00000000000E+00 0.  1.
         -6    2    1    2    0  503 -0.11308994668E+03 -0.15159702825E+02  0.83612937192E+02  0.21874330234E+03  0.16684830363E+03 0.  0.
        -24    2    3    3    0    0 -0.13298682834E+02 -0.13346504837E+02  0.85079160295E+02  0.11881420830E+03  0.80767372248E+02 0.  0.
          6    2    1    2  501    0  0.11308994668E+03  0.15159702825E+02  0.75989300768E+03  0.78804944678E+03  0.17482961655E+03 0.  0.
         24    2    5    5    0    0  0.16950137305E+02  0.42230453654E+02  0.21279560914E+03  0.23188998944E+03  0.80126634554E+02 0.  0.
          5    1    5    5  501    0  0.96139809370E+02 -0.27070750829E+02  0.54709739854E+03  0.55615945734E+03  0.47000000000E+01 0. -1.
        -13    1    6    6    0    0  0.13483612990E+02 -0.21708366386E+02  0.38547988440E+02  0.46249415166E+02  0.00000000000E+00 0.  1.
         14    1    6    6    0    0  0.34665243156E+01  0.63938820040E+02  0.17424762070E+03  0.18564057428E+03  0.00000000000E+00 0. -1.
         -5    1    3    3    0  503 -0.99791263841E+02 -0.18131979873E+01 -0.14662231024E+01  0.99929094042E+02  0.47000000000E+01 0.  1.
         11    1    4    4    0    0 -0.42671281437E+01  0.34208597551E+02  0.33228009637E+02  0.47880446462E+02  0.00000000000E+00 0. -1.
        -12    1    4    4    0    0 -0.90315546906E+01 -0.47555102388E+02  0.51851150658E+02  0.70933761833E+02  0.00000000000E+00 0.  1.
</event>
<event>
12    1  0.8344842E-002  0.1926932E+03  0.7818608E-02  0.1156787E+00
         21   -1    0    0  501  502  0.00000000000E+00  0.00000000000E+00  0.79131572551E+03  0.79131572551E+03  0.00000000000E+00 0. -1.
         21   -1    0    0  502  503 -0.00000000000E+00 -0.00000000000E+00 -0.76449063484E+02  0.76449063484E+02  0.00000000000E+00 0.  1.
         -6    2    1    2    0  503 -0.22100299348E+02 -0.77346511425E+02  0.86040800567E+02  0.21103003812E+03  0.17509926204E+03 0.  0.
        -24    2    3    3    0    0 -0.81764888883E+02 -0.65261312124E+02  0.60863159452E+02  0.14498521320E+03  0.79823880854E+02 0.  0.
          6    2    1    2  501    0  0.22100299348E+02  0.77346511425E+02  0.62882586146E+03  0.65673475087E+03  0.17148662602E+03 0.  0.
         24    2    5    5    0    0  0.47581128428E+01  0.40360056984E+02  0.13690513339E+03  0.16309840501E+03  0.78781345084E+02 0.  0.
          5    1    5    5  501    0  0.17342186506E+02  0.36986454442E+02  0.49192072807E+03  0.49363634586E+03  0.47000000000E+01 0. -1.
        -13    1    6    6    0    0 -0.31460765362E+02  0.13849342023E+02  0.97460426123E+02  0.10334465972E+03  0.00000000000E+00 0.  1.
         14    1    6    6    0    0  0.36218878205E+02  0.26510714960E+02  0.39444707262E+02  0.59753745298E+02  0.00000000000E+00 0. -1.
         -5    1    3    3    0  503  0.59664589535E+02 -0.12085199301E+02  0.25177641115E+02  0.66044824919E+02  0.47000000000E+01 0.  1.
         13    1    4    4    0    0  0.10966117518E+02 -0.23254647005E+02  0.27992789699E+02  0.38008296671E+02  0.00000000000E+00 0. -1.
        -14    1    4    4    0    0 -0.92731006402E+02 -0.42006665119E+02  0.32870369753E+02  0.10697691653E+03  0.00000000000E+00 0.  1.
</event>
<event>
12    1  0.8344842E-002  0.2152775E+03  0.7818608E-02  0.1137789E+00
         21   -1    0    0  503  502  0.00000000000E+00  0.00000000000E+00  0.25233520092E+03  0.25233520092E+03  0.00000000000E+00 0. -1.
         21   -1    0    0  501  503 -0.00000000000E+00 -0.00000000000E+00 -0.18328622912E+03  0.18328622912E+03  0.00000000000E+00 0. -1.
          6    2    1    2  501    0 -0.12609154542E+03 -0.13237838574E+02  0.17737266463E+02  0.21600698785E+03  0.17398301637E+03 0.  0.
         24    2    3    3    0    0 -0.11613402905E+02  0.37606677106E+02  0.14336024863E+02  0.90611340668E+02  0.80347745201E+02 0.  0.
         -6    2    1    2    0  502  0.12609154542E+03  0.13237838574E+02  0.51311705333E+02  0.21961444219E+03  0.17182343820E+03 0.  0.
        -24    2    5    5    0    0  0.15937437683E+03  0.75238509715E+01  0.47904327126E+02  0.18534934702E+03  0.81257341567E+02 0.  0.
          5    1    3    3  501    0 -0.11447814252E+03 -0.50844515681E+02  0.34012416004E+01  0.12539564719E+03  0.47000000000E+01 0. -1.
        -13    1    4    4    0    0  0.24273568642E+02  0.21462240511E+02  0.33703651398E+02  0.46752219412E+02  0.00000000000E+00 0.  1.
         14    1    4    4    0    0 -0.35886971547E+02  0.16144436596E+02 -0.19367626535E+02  0.43859121257E+02  0.00000000000E+00 0. -1.
         -5    1    5    5    0  502 -0.33282831408E+02  0.57139876027E+01  0.34073782067E+01  0.34265095172E+02  0.47000000000E+01 0.  1.
         13    1    6    6    0    0  0.71421855557E+02 -0.36329809419E+02  0.13733000959E+02  0.81299027171E+02  0.00000000000E+00 0. -1.
        -14    1    6    6    0    0  0.87952521272E+02  0.43853660390E+02  0.34171326167E+02  0.10405031984E+03  0.00000000000E+00 0.  1.
</event>
<event>
12    1  0.8344842E-002  0.2179295E+03  0.7818608E-02  0.1135907E+00
         21   -1    0    0  501  502  0.00000000000E+00  0.00000000000E+00  0.99676721279E+02  0.99676721279E+02  0.00000000000E+00 0.  1.
         21   -1    0    0  502  503 -0.00000000000E+00 -0.00000000000E+00 -0.68418913410E+03  0.68418913410E+03  0.00000000000E+00 0. -1.
         -6    2    1    2    0  503 -0.35376956844E+02 -0.12637671160E+03 -0.50984634335E+03  0.55350026001E+03  0.17087024814E+03 0.  0.
        -24    2    3    3    0    0  0.34509476638E+02 -0.89445312783E+02 -0.34620970140E+03  0.37171169494E+03  0.95483290971E+02 0.  0.
          6    2    1    2  501    0  0.35376956844E+02  0.12637671160E+03 -0.74666069473E+02  0.23036559537E+03  0.17398472142E+03 0.  0.
         24    2    5    5    0    0  0.35097141950E+02  0.25996077731E+02  0.18429609827E+02  0.93379298764E+02  0.80451460452E+02 0.  0.
          5    1    5    5  501    0  0.27981489355E+00  0.10038063387E+03 -0.93095679300E+02  0.13698629660E+03  0.47000000000E+01 0. -1.
        -11    1    6    6    0    0  0.49624537704E+02  0.33043293789E+02 -0.10223978646E+02  0.60489534187E+02  0.00000000000E+00 0.  1.
         12    1    6    6    0    0 -0.14527395754E+02 -0.70472160587E+01  0.28653588473E+02  0.32889764577E+02  0.00000000000E+00 0. -1.
         -5    1    3    3    0  503 -0.69886433481E+02 -0.36931398817E+02 -0.16363664194E+03  0.18178856507E+03  0.47000000000E+01 0.  1.
         11    1    4    4    0    0  0.39545445062E+02 -0.41831147256E+02 -0.29893122154E+03  0.30442332749E+03  0.00000000000E+00 0. -1.
        -12    1    4    4    0    0 -0.50359684243E+01 -0.47614165527E+02 -0.47278479862E+02  0.67288367456E+02  0.00000000000E+00 0.  1.
</event>
<event>
12    1  0.8344842E-002  0.1968792E+03  0.7818608E-02  0.1152621E+00
         21   -1    0    0  501  502  0.00000000000E+00  0.00000000000E+00  0.42236893784E+03  0.42236893784E+03  0.00000000000E+00 0.  1.
         21   -1    0    0  502  503 -0.00000000000E+00 -0.00000000000E+00 -0.44734903690E+03  0.44734903690E+03  0.00000000000E+00 0.  1.
         -6    2    1    2    0  503  0.70238205310E+02 -0.63884892788E+02 -0.40044066839E+03  0.44576978053E+03  0.17129881296E+03 0.  0.
        -24    2    3    3    0    0  0.55171286937E+01 -0.94837812040E+02 -0.25844276990E+03  0.28660824578E+03  0.79542265074E+02 0.  0.
          6    2    1    2  501    0 -0.70238205310E+02  0.63884892788E+02  0.37546056933E+03  0.42394819422E+03  0.17247245357E+03 0.  0.
         24    2    5    5    0    0 -0.78840818906E+02  0.46093959248E+02  0.38349980076E+03  0.40210233605E+03  0.79206462296E+02 0.  0.
          5    1    5    5  501    0  0.86026135960E+01  0.17790933541E+02 -0.80392314275E+01  0.21845858163E+02  0.47000000000E+01 0. -1.
        -11    1    6    6    0    0 -0.20758199225E+02  0.30826799147E+02  0.45217289067E+02  0.58530313610E+02  0.00000000000E+00 0.  1.
         12    1    6    6    0    0 -0.58082619682E+02  0.15267160100E+02  0.33828251169E+03  0.34357202244E+03  0.00000000000E+00 0. -1.
         -5    1    3    3    0  503  0.64721076616E+02  0.30952919252E+02 -0.14199789849E+03  0.15916153475E+03  0.47000000000E+01 0.  1.
         13    1    4    4    0    0 -0.14930968879E+02 -0.24613040983E+02 -0.15092902430E+02  0.32504327741E+02  0.00000000000E+00 0. -1.
        -14    1    4    4    0    0  0.20448097573E+02 -0.70224771057E+02 -0.24334986747E+03  0.25410391804E+03  0.00000000000E+00 0.  1.
</event>
<event>
12    1  0.8344842E-002  0.1975200E+03  0.7818608E-02  0.1152013E+00
         21   -1    0    0  501  502  0.00000000000E+00  0.00000000000E+00  0.48938653632E+02  0.48938653632E+02  0.00000000000E+00 0. -1.
         21   -1    0    0  502  503 -0.00000000000E+00 -0.00000000000E+00 -0.93636102977E+03  0.93636102977E+03  0.00000000000E+00 0.  1.
         -6    2    1    2    0  503 -0.66743674172E+02  0.68360042809E+02 -0.63646294973E+03  0.66640770616E+03  0.17287663510E+03 0.  0.
        -24    2    3    3    0    0 -0.74208390015E+02  0.10251723801E+03 -0.41081300931E+03  0.43801676594E+03  0.84111172783E+02 0.  0.
          6    2    1    2  501    0  0.66743674172E+02 -0.68360042809E+02 -0.25095942641E+03  0.31889197724E+03  0.17199897078E+03 0.  0.
         24    2    5    5    0    0  0.72747358467E+02 -0.95908637818E+02 -0.25228572398E+03  0.29027697458E+03  0.78243149705E+02 0.  0.
          5    1    5    5  501    0 -0.60036842944E+01  0.27548595009E+02  0.13262975651E+01  0.28615002661E+02  0.47000000000E+01 0. -1.
        -11    1    6    6    0    0 -0.10752548733E+02 -0.49575530836E+01 -0.64227681694E+02  0.65309951253E+02  0.00000000000E+00 0.  1.
         12    1    6    6    0    0  0.83499907200E+02 -0.90951084735E+02 -0.18805804228E+03  0.22496702332E+03  0.00000000000E+00 0. -1.
         -5    1    3    3    0  503  0.74647158426E+01 -0.34157195200E+02 -0.22564994041E+03  0.22839094022E+03  0.47000000000E+01 0.  1.
         13    1    4    4    0    0 -0.13028098113E+02  0.14756145239E+02 -0.80144603557E+01  0.21253393554E+02  0.00000000000E+00 0. -1.
        -14    1    4    4    0    0 -0.61180291902E+02  0.87761092770E+02 -0.40279854896E+03  0.41676337239E+03  0.00000000000E+00 0.  1.
</event>
<event>
12    1  0.8344842E-002  0.1753745E+03  0.7818608E-02  0.1172513E+00
         21   -1    0    0  503  502  0.00000000000E+00  0.00000000000E+00  0.14091743676E+03  0.14091743676E+03  0.00000000000E+00 0. -1.
         21   -1    0    0  501  503 -0.00000000000E+00 -0.00000000000E+00 -0.21869824439E+03  0.21869824439E+03  0.00000000000E+00 0. -1.
          6    2    1    2  501    0 -0.46854992802E+01  0.32235909536E+02 -0.52249359159E+02  0.18239250317E+03  0.17168553205E+03 0.  0.
         24    2    3    3    0    0  0.23433106244E+02 -0.13840089670E+02  0.24412127608E+02  0.88516376108E+02  0.80613511985E+02 0.  0.
         -6    2    1    2    0  502  0.46854992802E+01 -0.32235909536E+02 -0.25531448475E+02  0.17722317797E+03  0.17232263979E+03 0.  0.
        -24    2    5    5    0    0  0.16713528714E+02  0.16865114912E+02 -0.70287839702E+02  0.10954150653E+03  0.80592723614E+02 0.  0.
          5    1    3    3  501    0 -0.28118605524E+02  0.46075999205E+02 -0.76661486766E+02  0.93876127064E+02  0.47000000000E+01 0. -1.
        -11    1    4    4    0    0  0.24531877606E+02  0.26368424091E+02 -0.79595543164E+01  0.36884431849E+02  0.00000000000E+00 0.  1.
         12    1    4    4    0    0 -0.10987713619E+01 -0.40208513761E+02  0.32371681924E+02  0.51631944259E+02  0.00000000000E+00 0. -1.
         -5    1    5    5    0  502 -0.12028029434E+02 -0.49101024447E+02  0.44756391227E+02  0.67681671445E+02  0.47000000000E+01 0.  1.
         13    1    6    6    0    0  0.36848351922E+02 -0.18948241833E+02 -0.45582246318E+02  0.61600146812E+02  0.00000000000E+00 0. -1.
        -14    1    6    6    0    0 -0.20134823208E+02  0.35813356745E+02 -0.24705593384E+02  0.47941359716E+02  0.00000000000E+00 0.  1.
</event>
<event>
12    1  0.8344842E-002  0.2231853E+03  0.7818608E-02  0.1131665E+00
         21   -1    0    0  501  502  0.00000000000E+00  0.00000000000E+00  0.11526705145E+04  0.11526705145E+04  0.00000000000E+00 0.  1.
         21   -1    0    0  502  503 -0.00000000000E+00 -0.00000000000E+00 -0.43163715414E+02  0.43163715414E+02  0.00000000000E+00 0. -1.
         -6    2    1    2    0  503 -0.11722570262E+02 -0.14102686842E+03  0.52629650348E+03  0.57137771593E+03  0.17163475294E+03 0.  0.
        -24    2    3    3    0    0  0.39855392800E+02 -0.12336926649E+03  0.46451476477E+03  0.48884802177E+03  0.79937434611E+02 0.  0.
          6    2    1    2  501    0  0.11722570262E+02  0.14102686842E+03  0.58321029556E+03  0.62445651394E+03  0.17258532002E+03 0.  0.
         24    2    5    5    0    0 -0.52442301305E+01  0.58458368097E+02  0.48417771773E+03  0.49432207948E+03  0.80506975877E+02 0.  0.
          5    1    5    5  501    0  0.16966800393E+02  0.82568500319E+02  0.99032577829E+02  0.13013443446E+03  0.47000000000E+01 0. -1.
        -11    1    6    6    0    0 -0.14403499508E+02 -0.16991271276E+02  0.14748414744E+03  0.14915675595E+03  0.00000000000E+00 0.  1.
         12    1    6    6    0    0  0.91592693771E+01  0.75449639373E+02  0.33669357028E+03  0.34516532353E+03  0.00000000000E+00 0. -1.
         -5    1    3    3    0  503 -0.51577963062E+02 -0.17657601929E+02  0.61781738709E+02  0.82529694156E+02  0.47000000000E+01 0.  1.
         11    1    4    4    0    0  0.22543769604E+02 -0.93882539919E+02  0.19949149296E+03  0.22162808624E+03  0.00000000000E+00 0. -1.
        -12    1    4    4    0    0  0.17311623196E+02 -0.29486726568E+02  0.26502327182E+03  0.26721993553E+03  0.00000000000E+00 0.  1.
</event>
<event>
12    1  0.8344842E-002  0.1962880E+03  0.7818608E-02  0.1152928E+00
         21   -1    0    0  503  502  0.00000000000E+00  0.00000000000E+00  0.38240730218E+03  0.38240730218E+03  0.00000000000E+00 0.  1.
         21   -1    0    0  501  503 -0.00000000000E+00 -0.00000000000E+00 -0.10088240690E+03  0.10088240690E+03  0.00000000000E+00 0.  1.
          6    2    1    2  501    0  0.46514143356E+02  0.82026986790E+02  0.15076707182E+03  0.24743680545E+03  0.17205310416E+03 0.  0.
         24    2    3    3    0    0 -0.18904460944E+02  0.77104258846E+02  0.43896536673E+02  0.12194884459E+03  0.81499505452E+02 0.  0.
         -6    2    1    2    0  502 -0.46514143356E+02 -0.82026986790E+02  0.13075782347E+03  0.23585290364E+03  0.17215397661E+03 0.  0.
        -24    2    5    5    0    0 -0.21271924904E+02 -0.49037256484E+02 -0.38321021177E+01  0.94920189313E+02  0.78345453091E+02 0.  0.
          5    1    3    3  501    0  0.65418604300E+02  0.49227279444E+01  0.10687053514E+03  0.12548796086E+03  0.47000000000E+01 0. -1.
        -11    1    4    4    0    0  0.89497200840E+01  0.19203023545E+02 -0.21559551377E+02  0.30226939283E+02  0.00000000000E+00 0.  1.
         12    1    4    4    0    0 -0.27854181028E+02  0.57901235301E+02  0.65456088050E+02  0.91721905306E+02  0.00000000000E+00 0. -1.
         -5    1    5    5    0  502 -0.25242218452E+02 -0.32989730306E+02  0.13458992558E+03  0.14093271432E+03  0.47000000000E+01 0.  1.
         13    1    6    6    0    0  0.98625050276E+00  0.14646788380E+02  0.18719338631E+02  0.23788962539E+02  0.00000000000E+00 0. -1.
        -14    1    6    6    0    0 -0.22258175406E+02 -0.63684044864E+02 -0.22551440748E+02  0.71131226774E+02  0.00000000000E+00 0.  1.
</event>
<event>
12    1  0.8344842E-002  0.1897366E+03  0.7818608E-02  0.1158871E+00
         21   -1    0    0  501  502  0.00000000000E+00  0.00000000000E+00  0.17698274070E+03  0.17698274070E+03  0.00000000000E+00 0. -1.
         21   -1    0    0  502  503 -0.00000000000E+00 -0.00000000000E+00 -0.24386203091E+03  0.24386203091E+03  0.00000000000E+00 0. -1.
         -6    2    1    2    0  503  0.75291564416E+02 -0.29847014007E+02 -0.11994232389E+03  0.22382787163E+03  0.17074276306E+03 0.  0.
        -24    2    3    3    0    0  0.28553545883E+02  0.42907794738E+02 -0.31929225009E+02  0.10035277233E+03  0.79967616399E+02 0.  0.
          6    2    1    2  501    0 -0.75291564416E+02  0.29847014007E+02  0.53063033685E+02  0.19701689998E+03  0.17158178638E+03 0.  0.
         24    2    5    5    0    0 -0.11650904375E+03  0.37019169145E+02  0.33747533298E+02  0.15069736881E+03  0.81400398049E+02 0.  0.
          5    1    5    5  501    0  0.41217479339E+02 -0.71721551373E+01  0.19315500387E+02  0.46319531168E+02  0.47000000000E+01 0. -1.
        -13    1    6    6    0    0  0.50055814786E+01  0.40740625910E+01 -0.14497118257E+02  0.15868845884E+02  0.00000000000E+00 0.  1.
         14    1    6    6    0    0 -0.12151462523E+03  0.32945106554E+02  0.48244651555E+02  0.13482852293E+03  0.00000000000E+00 0. -1.
         -5    1    3    3    0  503  0.46738018533E+02 -0.72754808745E+02 -0.88013098880E+02  0.12347509930E+03  0.47000000000E+01 0.  1.
         13    1    4    4    0    0 -0.26529131183E+02  0.65679170806E+01 -0.18520367310E+02  0.33014183943E+02  0.00000000000E+00 0. -1.
        -14    1    4    4    0    0  0.55082677066E+02  0.36339877657E+02 -0.13408857699E+02  0.67338588385E+02  0.00000000000E+00 0.  1.
</event>
<event>
12    1  0.8344842E-002  0.2147475E+03  0.7818608E-02  0.1139381E+00
         21   -1    0    0  503  502  0.00000000000E+00  0.00000000000E+00  0.14682455033E+03  0.14682455033E+03  0.00000000000E+00 0. -1.
         21   -1    0    0  501  503 -0.00000000000E+00 -0.00000000000E+00 -0.31380392738E+03  0.31380392738E+03  0.00000000000E+00 0. -1.
          6    2    1    2  501    0  0.11473158382E+03  0.21919629311E+02 -0.41956590148E+02  0.21880776802E+03  0.18020176862E+03 0.  0.
         24    2    3    3    0    0  0.47817451168E+02  0.41527965347E+02  0.41402896546E+02  0.11002871667E+03  0.79881400262E+02 0.  0.
         -6    2    1    2    0  502 -0.11473158382E+03 -0.21919629311E+02 -0.12502278690E+03  0.24182070969E+03  0.17088812690E+03 0.  0.
        -24    2    5    5    0    0 -0.92506752850E+02 -0.11259558503E+02 -0.66905469026E+01  0.12085712325E+03  0.76664227922E+02 0.  0.
          5    1    3    3  501    0  0.66914132653E+02 -0.19608336036E+02 -0.83359486694E+02  0.10877905135E+03  0.47000000000E+01 0. -1.
        -11    1    4    4    0    0 -0.11729590488E+02 -0.14310153756E+02  0.16205970285E+02  0.24596692184E+02  0.00000000000E+00 0.  1.
         12    1    4    4    0    0  0.59547041656E+02  0.55838119103E+02  0.25196926262E+02  0.85432024487E+02  0.00000000000E+00 0. -1.
         -5    1    5    5    0  502 -0.22224830971E+02 -0.10660070808E+02 -0.11833223999E+03  0.12096358643E+03  0.47000000000E+01 0.  1.
         11    1    6    6    0    0 -0.67400102236E+02 -0.36500945165E+02 -0.25259436236E+02  0.80703976967E+02  0.00000000000E+00 0. -1.
        -12    1    6    6    0    0 -0.25106650614E+02  0.25241386662E+02  0.18568889333E+02  0.40153146287E+02  0.00000000000E+00 0.  1.
</event>
<event>
12    1  0.8344842E-002  0.2342106E+03  0.7818608E-02  0.1123727E+00
         21   -1    0    0  501  502  0.00000000000E+00  0.00000000000E+00  0.17432231382E+04  0.17432231382E+04  0.00000000000E+00 0.  1.
         21   -1    0    0  502  503 -0.00000000000E+00 -0.00000000000E+00 -0.32082061178E+02  0.32082061178E+02  0.00000000000E+00 0.  1.
         -6    2    1    2    0  503 -0.15983732613E+03 -0.21490668330E+02  0.97983664601E+03  0.10074395502E+04  0.16983749516E+03 0.  0.
        -24    2    3    3    0    0 -0.79389094673E+02 -0.38196197998E+02  0.80972419423E+03  0.81846513679E+03  0.80438371012E+02 0.  0.
          6    2    1    2  501    0  0.15983732613E+03  0.21490668330E+02  0.73130443102E+03  0.76786564920E+03  0.16971053222E+03 0.  0.
         24    2    5    5    0    0  0.41931951827E+02  0.42037028071E+02  0.18890586893E+03  0.21239997038E+03  0.76830461339E+02 0.  0.
          5    1    5    5  501    0  0.11790537430E+03 -0.20546359741E+02  0.54239856209E+03  0.55546567882E+03  0.47000000000E+01 0. -1.
        -13    1    6    6    0    0  0.32763047062E+02  0.31113197461E+00  0.15337068397E+03  0.15683137683E+03  0.00000000000E+00 0.  1.
         14    1    6    6    0    0  0.91689047647E+01  0.41725896096E+02  0.35535184957E+02  0.55568593554E+02  0.00000000000E+00 0. -1.
         -5    1    3    3    0  503 -0.80448231457E+02  0.16705529668E+02  0.17011245179E+03  0.18897441340E+03  0.47000000000E+01 0.  1.
         11    1    4    4    0    0 -0.30493283293E+02  0.72569577581E+00  0.56715330338E+03  0.56797291881E+03  0.00000000000E+00 0. -1.
        -12    1    4    4    0    0 -0.48895811380E+02 -0.38921893774E+02  0.24257089084E+03  0.25049221798E+03  0.00000000000E+00 0.  1.
</event>
<event>
12    1  0.8344842E-002  0.1780771E+03  0.7818608E-02  0.1170381E+00
         21   -1    0    0  501  502  0.00000000000E+00  0.00000000000E+00  0.33332741408E+03  0.33332741408E+03  0.00000000000E+00 0.  1.
         21   -1    0    0  502  503 -0.00000000000E+00 -0.00000000000E+00 -0.18410943763E+03  0.18410943763E+03  0.00000000000E+00 0.  1.
         -6    2    1    2    0  503 -0.25585754706E+01 -0.50096169778E+02 -0.10706990752E+03  0.20535523326E+03  0.16790066765E+03 0.  0.
        -24    2    3    3    0    0 -0.60981664684E+02 -0.50343719069E+02 -0.47831678443E+02  0.12202110810E+03  0.79674512116E+02 0.  0.
          6    2    1    2  501    0  0.25585754706E+01  0.50096169778E+02  0.25628788397E+03  0.31208161845E+03  0.17086627686E+03 0.  0.
         24    2    5    5    0    0 -0.13555408056E+02  0.70231704904E+02  0.26397291319E+03  0.28476404327E+03  0.79326035946E+02 0.  0.
          5    1    5    5  501    0  0.16113983526E+02 -0.20135535127E+02 -0.76850292159E+01  0.27317575185E+02  0.47000000000E+01 0. -1.
        -13    1    6    6    0    0  0.84885212342E+01  0.79893152157E+02  0.22547730489E+03  0.23936371023E+03  0.00000000000E+00 0.  1.
         14    1    6    6    0    0 -0.22043929290E+02 -0.96614472527E+01  0.38495608294E+02  0.45400333032E+02  0.00000000000E+00 0. -1.
         -5    1    3    3    0  503  0.58423089214E+02  0.24754929100E+00 -0.59238229074E+02  0.83334125169E+02  0.47000000000E+01 0.  1.
         13    1    4    4    0    0 -0.45701205529E+02  0.83912140989E+01 -0.39057438161E+02  0.60700050548E+02  0.00000000000E+00 0. -1.
        -14    1    4    4    0    0 -0.15280459156E+02 -0.58734933168E+02 -0.87742402812E+01  0.61321057547E+02  0.00000000000E+00 0.  1.
</event>
<event>
12    1  0.8344842E-002  0.2058359E+03  0.7818608E-02  0.1144923E+00
         21   -1    0    0  501  502  0.00000000000E+00  0.00000000000E+00  0.92703440906E+02  0.92703440906E+02  0.00000000000E+00 0. -1.
         21   -1    0    0  502  503 -0.00000000000E+00 -0.00000000000E+00 -0.49522287764E+03  0.49522287764E+03  0.00000000000E+00 0. -1.
         -6    2    1    2    0  503  0.11293004098E+03 -0.29868036217E+01 -0.11947235482E+03  0.23799589279E+03  0.17206477345E+03 0.  0.
        -24    2    3    3    0    0  0.73441540087E+02  0.39603776943E+02 -0.13170598216E+02  0.11677109040E+03  0.80621981725E+02 0.  0.
          6    2    1    2  501    0 -0.11293004098E+03  0.29868036217E+01 -0.28304708191E+03  0.34993042576E+03  0.17196958203E+03 0.  0.
         24    2    5    5    0    0 -0.12437872050E+03  0.25854570636E+02 -0.13951207286E+03  0.20405926393E+03  0.77704824730E+02 0.  0.
          5    1    5    5  501    0  0.11448679512E+02 -0.22867767015E+02 -0.14353500905E+03  0.14587116183E+03  0.47000000000E+01 0. -1.
        -13    1    6    6    0    0 -0.90597917303E+02 -0.18377456590E+02 -0.76539899792E+02  0.12001695626E+03  0.00000000000E+00 0.  1.
         14    1    6    6    0    0 -0.33780803193E+02  0.44232027226E+02 -0.62972173066E+02  0.84042307664E+02  0.00000000000E+00 0. -1.
         -5    1    3    3    0  503  0.39488500897E+02 -0.42590580565E+02 -0.10630175661E+03  0.12122480239E+03  0.47000000000E+01 0.  1.
         11    1    4    4    0    0  0.23120256911E+02 -0.23539703721E+02  0.65882390179E+01  0.33646230461E+02  0.00000000000E+00 0. -1.
        -12    1    4    4    0    0  0.50321283176E+02  0.63143480664E+02 -0.19758837234E+02  0.83124859938E+02  0.00000000000E+00 0.  1.
</event>
<event>
12    1  0.8344842E-002  0.1859467E+03  0.7818608E-02  0.1162916E+00
         21   -1    0    0  503  502  0.00000000000E+00  0.00000000000E+00  0.22589102872E+03  0.22589102872E+03  0.00000000000E+00 0. -1.
         21   -1    0    0  501  503 -0.00000000000E+00 -0.00000000000E+00 -0.16352490208E+03  0.16352490208E+03  0.00000000000E+00 0. -1.
          6    2    1    2  501    0 -0.68718861294E+02  0.38795599156E+01  0.86490954620E+02  0.20507771970E+03  0.17273926306E+03 0.  0.
         24    2    3    3    0    0 -0.10936086911E+03  0.13502547809E+02  0.39324279384E+02  0.14190209190E+03  0.80297485929E+02 0.  0.
         -6    2    1    2    0  502  0.68718861294E+02 -0.38795599156E+01 -0.24124827977E+02  0.18433821110E+03  0.16929629607E+03 0.  0.
        -24    2    5    5    0    0  0.56222056649E+02  0.44741498790E+02 -0.59211306691E+02  0.12291078673E+03  0.80239399838E+02 0.  0.
          5    1    3    3  501    0  0.40642007815E+02 -0.96229878939E+01  0.47166675236E+02  0.63175627801E+02  0.47000000000E+01 0. -1.
        -13    1    4    4    0    0 -0.39089018748E+02 -0.34569175620E+01 -0.23830767808E+02  0.45910861025E+02  0.00000000000E+00 0.  1.
         14    1    4    4    0    0 -0.70271850360E+02  0.16959465371E+02  0.63155047192E+02  0.95991230874E+02  0.00000000000E+00 0. -1.
         -5    1    5    5    0  502  0.12496804645E+02 -0.48621058706E+02  0.35086478715E+02  0.61427424369E+02  0.47000000000E+01 0.  1.
         11    1    6    6    0    0  0.41580092118E+02 -0.16496536766E+02 -0.23721963222E+02  0.50633697523E+02  0.00000000000E+00 0. -1.
        -12    1    6    6    0    0  0.14641964530E+02  0.61238035556E+02 -0.35489343470E+02  0.72277089205E+02  0.00000000000E+00 0.  1.
</event>
<event>
12    1  0.8344842E-002  0.2305643E+03  0.7818608E-02  0.1126478E+00
         21   -1    0    0  501  502  0.00000000000E+00  0.00000000000E+00  0.38324137295E+03  0.38324137295E+03  0.00000000000E+00 0. -1.
         21   -1    0    0  502  503 -0.00000000000E+00 -0.00000000000E+00 -0.24711958727E+03  0.24711958727E+03  0.00000000000E+00 0.  1.
         -6    2    1    2    0  503 -0.17547914734E+02  0.14973854347E+03 -0.14135424743E+03  0.27044579268E+03  0.17444294999E+03 0.  0.
        -24    2    3    3    0    0 -0.35451112843E+02  0.11680165158E+02 -0.76567104369E+02  0.11682253848E+03  0.79948585770E+02 0.  0.
          6    2    1    2  501    0  0.17547914734E+02 -0.14973854347E+03  0.27747603311E+03  0.35991516754E+03  0.17267431241E+03 0.  0.
         24    2    5    5    0    0 -0.22823988000E+02 -0.10391228707E+03  0.86304644826E+02  0.15917023983E+03  0.81043048413E+02 0.  0.
          5    1    5    5  501    0  0.40371902733E+02 -0.45826256402E+02  0.19117138828E+03  0.20074492772E+03  0.47000000000E+01 0. -1.
        -11    1    6    6    0    0  0.91284202144E+01  0.73797292893E+01 -0.39248180990E+01  0.12377102129E+02  0.00000000000E+00 0.  1.
         12    1    6    6    0    0 -0.31952408214E+02 -0.11129201636E+03  0.90229462925E+02  0.14679313770E+03  0.00000000000E+00 0. -1.
         -5    1    3    3    0  503  0.17903198109E+02  0.13805837831E+03 -0.64787143061E+02  0.15362325420E+03  0.47000000000E+01 0.  1.
         11    1    4    4    0    0 -0.21632064154E+02 -0.31649124360E+01  0.12697952839E+02  0.25282422285E+02  0.00000000000E+00 0. -1.
        -12    1    4    4    0    0 -0.13819048689E+02  0.14845077594E+02 -0.89265057208E+02  0.91540116200E+02  0.00000000000E+00 0.  1.
</event>
<event>
12    1  0.8344842E-002  0.1744045E+03  0.7818608E-02  0.1173414E+00
         21   -1    0    0  503  502  0.00000000000E+00  0.00000000000E+00  0.38890663629E+02  0.38890663629E+02  0.00000000000E+00 0.  1.
         21   -1    0    0  501  503 -0.00000000000E+00 -0.00000000000E+00 -0.11152761729E+04  0.11152761729E+04  0.00000000000E+00 0.  1.
          6    2    1    2  501    0  0.18457189987E+02  0.28269951357E+02 -0.85465647846E+03  0.87226981795E+03  0.17110546781E+03 0.  0.
         24    2    3    3    0    0  0.62575909713E+02  0.48527958621E+02 -0.72672888042E+03  0.73535959689E+03  0.79675365464E+02 0.  0.
         -6    2    1    2    0  502 -0.18457189987E+02 -0.28269951357E+02 -0.22172903078E+03  0.28189701855E+03  0.17076975132E+03 0.  0.
        -24    2    5    5    0    0 -0.25703885769E+02 -0.45458604632E+02 -0.57562029185E+02  0.11660679254E+03  0.86928605100E+02 0.  0.
          5    1    3    3  501    0 -0.44118719726E+02 -0.20258007264E+02 -0.12792759804E+03  0.13691022106E+03  0.47000000000E+01 0. -1.
        -11    1    4    4    0    0  0.34192678375E+02  0.22261352483E+02 -0.62804318767E+03  0.62936710484E+03  0.00000000000E+00 0.  1.
         12    1    4    4    0    0  0.28383231338E+02  0.26266606138E+02 -0.98685692747E+02  0.10599249206E+03  0.00000000000E+00 0. -1.
         -5    1    5    5    0  502  0.72466957815E+01  0.17188653275E+02 -0.16416700160E+03  0.16529022601E+03  0.47000000000E+01 0.  1.
         13    1    6    6    0    0  0.89508057002E+01 -0.20283142561E+02 -0.68832520206E+02  0.72314857622E+02  0.00000000000E+00 0. -1.
        -14    1    6    6    0    0 -0.34654691469E+02 -0.25175462070E+02  0.11270491022E+02  0.44291934922E+02  0.00000000000E+00 0.  1.
</event>
<event>
12    1  0.8344842E-002  0.2064597E+03  0.7818608E-02  0.1144515E+00
         21   -1    0    0  503  502  0.00000000000E+00  0.00000000000E+00  0.17387436182E+03  0.17387436182E+03  0.00000000000E+00 0.  1.
         21   -1    0    0  501  503 -0.00000000000E+00 -0.00000000000E+00 -0.25738374738E+03  0.25738374738E+03  0.00000000000E+00 0.  1.
          6    2    1    2  501    0 -0.11290469623E+03  0.14750476727E+02  0.64721866984E+01  0.20656114779E+03  0.17222244797E+03 0.  0.
         24    2    3    3    0    0 -0.13187577818E+03  0.42936808496E+02  0.31757154032E+02  0.16394905066E+03  0.81461549132E+02 0.  0.
         -6    2    1    2    0  502  0.11290469623E+03 -0.14750476727E+02 -0.89981572256E+02  0.22469696141E+03  0.17154298040E+03 0.  0.
        -24    2    5    5    0    0  0.22371168318E+02 -0.48583331261E+02 -0.84217934683E+02  0.12776249262E+03  0.79810931260E+02 0.  0.
          5    1    3    3  501    0  0.18971081950E+02 -0.28186331769E+02 -0.25284967334E+02  0.42612097133E+02  0.47000000000E+01 0. -1.
        -11    1    4    4    0    0 -0.20558416612E+02  0.44553980027E+02  0.15376948443E+02  0.51421359115E+02  0.00000000000E+00 0.  1.
         12    1    4    4    0    0 -0.11131736157E+03 -0.16171715311E+01  0.16380205590E+02  0.11252769155E+03  0.00000000000E+00 0. -1.
         -5    1    5    5    0  502  0.90533527909E+02  0.33832854534E+02 -0.57636375722E+01  0.96934468790E+02  0.47000000000E+01 0.  1.
         13    1    6    6    0    0 -0.71170396970E+01  0.11619245392E+02 -0.51302200394E+02  0.53080833479E+02  0.00000000000E+00 0. -1.
        -14    1    6    6    0    0  0.29488208015E+02 -0.60202576653E+02 -0.32915734289E+02  0.74681659136E+02  0.00000000000E+00 0.  1.
</event>
<event>
12    1  0.8344842E-002  0.2228839E+03  0.7818608E-02  0.1131914E+00
         21   -1    0    0  501  502  0.00000000000E+00  0.00000000000E+00  0.74035232885E+02  0.74035232885E+02  0.00000000000E+00 0.  1.
         21   -1    0    0  502  503 -0.00000000000E+00 -0.00000000000E+00 -0.67689297827E+03  0.67689297827E+03  0.00000000000E+00 0.  1.
         -6    2    1    2    0  503 -0.85105546413E+02 -0.11253946367E+03 -0.25858812497E+03  0.34080771583E+03  0.17138843568E+03 0.  0.
        -24    2    3    3    0    0 -0.61047123066E+02  0.50408235642E+01 -0.13783028854E+03  0.17048896543E+03  0.79480423741E+02 0.  0.
          6    2    1    2  501    0  0.85105546413E+02  0.11253946367E+03 -0.34426962042E+03  0.41012049533E+03  0.17253742848E+03 0.  0.
         24    2    5    5    0    0  0.94922599899E+02  0.14185407140E+03 -0.26698078019E+03  0.32674558549E+03  0.79693557456E+02 0.  0.
          5    1    5    5  501    0 -0.98170534860E+01 -0.29314607733E+02 -0.77288840234E+02  0.83374909838E+02  0.47000000000E+01 0. -1.
        -11    1    6    6    0    0  0.27398589925E+02  0.87077892620E+02 -0.18925777595E+03  0.21012317309E+03  0.00000000000E+00 0.  1.
         12    1    6    6    0    0  0.67524009974E+02  0.54776178784E+02 -0.77723004243E+02  0.11662241240E+03  0.00000000000E+00 0. -1.
         -5    1    3    3    0  503 -0.24058423346E+02 -0.11758028724E+03 -0.12075783642E+03  0.17031875040E+03  0.47000000000E+01 0.  1.
         13    1    4    4    0    0 -0.39660146819E+02 -0.32446087361E+02 -0.10295065842E+03  0.11499788650E+03  0.00000000000E+00 0. -1.
        -14    1    4    4    0    0 -0.21386976248E+02  0.37486910925E+02 -0.34879630127E+02  0.55491078936E+02  0.00000000000E+00 0.  1.
</event>
<event>
12    1  0.8344842E-002  0.1952003E+03  0.7818608E-02  0.1154361E+00
         21   -1    0    0  503  502  0.00000000000E+00  0.00000000000E+00  0.76203115388E+02  0.76203115388E+02  0.00000000000E+00 0. -1.
         21   -1    0    0  501  503 -0.00000000000E+00 -0.00000000000E+00 -0.55439794815E+03  0.55439794815E+03  0.00000000000E+00 0.  1.
          6    2    1    2  501    0  0.65847855480E+02 -0.57982792588E+02 -0.13638705960E+03  0.23812724953E+03  0.17437090536E+03 0.  0.
         24    2    3    3    0    0  0.96041466394E+02 -0.11498352415E+02 -0.47984678271E+02  0.13367856193E+03  0.78811504200E+02 0.  0.
         -6    2    1    2    0  502 -0.65847855480E+02  0.57982792588E+02 -0.34180777317E+03  0.39247381401E+03  0.17177076753E+03 0.  0.
        -24    2    5    5    0    0 -0.89065169788E+02 -0.83597089710E+01 -0.20248441086E+03  0.23635379453E+03  0.82829284347E+02 0.  0.
          5    1    3    3  501    0 -0.30193610914E+02 -0.46484440173E+02 -0.88402381326E+02  0.10444868760E+03  0.47000000000E+01 0. -1.
        -11    1    4    4    0    0  0.29730211859E+02 -0.28787139661E+01 -0.58789399838E+02  0.65942141492E+02  0.00000000000E+00 0.  1.
         12    1    4    4    0    0  0.66311254534E+02 -0.86196384490E+01  0.10804721567E+02  0.67736420433E+02  0.00000000000E+00 0. -1.
         -5    1    5    5    0  502  0.23217314308E+02  0.66342501559E+02 -0.13932336231E+03  0.15612001948E+03  0.47000000000E+01 0.  1.
         11    1    6    6    0    0 -0.62307193006E+02 -0.35800288315E+02 -0.77787814179E+02  0.10589991019E+03  0.00000000000E+00 0. -1.
        -12    1    6    6    0    0 -0.26757976782E+02  0.27440579343E+02 -0.12469659668E+03  0.13045388434E+03  0.00000000000E+00 0.  1.
</event>
<event>
12    1  0.8344842E-002  0.2095313E+03  0.7818608E-02  0.1142757E+00
         21   -1    0    0  501  502  0.00000000000E+00  0.00000000000E+00  0.79697940043E+03  0.79697940043E+03  0.00000000000E+00 0.  1.
         21   -1    0    0  502  503 -0.00000000000E+00 -0.00000000000E+00 -0.83517641210E+02  0.83517641210E+02  0.00000000000E+00 0.  1.
         -6    2    1    2    0  503  0.10344520020E+03 -0.66579790440E+02  0.92827061781E+02  0.22544681194E+03  0.16454672186E+03 0.  0.
        -24    2    3    3    0    0  0.24545709808E+02 -0.90394560222E+02  0.59408119060E+02  0.13638959114E+03  0.79367043375E+02 0.  0.
          6    2    1    2  501    0 -0.10344520020E+03  0.66579790440E+02  0.62063469744E+03  0.65505022970E+03  0.16961603056E+03 0.  0.
         24    2    5    5    0    0 -0.48886064402E+02  0.90636739682E+02  0.27483769189E+03  0.30411847686E+03  0.79670729942E+02 0.  0.
          5    1    5    5  501    0 -0.54559135797E+02 -0.24056949242E+02  0.34579700555E+03  0.35093175284E+03  0.47000000000E+01 0. -1.
        -13    1    6    6    0    0 -0.68787705177E+02  0.68588624892E+02  0.23611543454E+03  0.25531675675E+03  0.00000000000E+00 0.  1.
         14    1    6    6    0    0  0.19901640775E+02  0.22048114791E+02  0.38722257349E+02  0.48801720109E+02  0.00000000000E+00 0. -1.
         -5    1    3    3    0  503  0.78899490391E+02  0.23814769782E+02  0.33418942720E+02  0.89057220797E+02  0.47000000000E+01 0.  1.
         13    1    4    4    0    0  0.19333286354E+02  0.99513798882E+01  0.58094947594E+01  0.22506802356E+02  0.00000000000E+00 0. -1.
        -14    1    4    4    0    0  0.52124234534E+01 -0.10034594011E+03  0.53598624301E+02  0.11388278879E+03  0.00000000000E+00 0.  1.
</event>
<event>
12    1  0.8344842E-002  0.1860103E+03  0.7818608E-02  0.1162625E+00
         21   -1    0    0  503  502  0.00000000000E+00  0.00000000000E+00  0.11853934469E+04  0.11853934469E+04  0.00000000000E+00 0. -1.
         21   -1    0    0  501  503 -0.00000000000E+00 -0.00000000000E+00 -0.46548818061E+02  0.46548818061E+02  0.00000000000E+00 0. -1.
          6    2    1    2  501    0  0.61487601364E+02  0.36602756932E+02  0.19163664962E+03  0.26706634388E+03  0.17169548514E+03 0.  0.
         24    2    3    3    0    0 -0.25778257695E+02  0.16475421806E+02  0.48942088710E+02  0.98530687446E+02  0.79856184655E+02 0.  0.
         -6    2    1    2    0  502 -0.61487601364E+02 -0.36602756932E+02  0.94720797918E+03  0.96487592104E+03  0.16929884892E+03 0.  0.
        -24    2    5    5    0    0 -0.45307232890E+02 -0.60054351930E+02  0.91824497257E+03  0.92397693103E+03  0.70001920603E+02 0.  0.
          5    1    3    3  501    0  0.87265859059E+02  0.20127335126E+02  0.14269456090E+03  0.16853565643E+03  0.47000000000E+01 0. -1.
        -11    1    4    4    0    0  0.18750987191E+02 -0.10346911889E+02  0.40572107376E+02  0.45877598054E+02  0.00000000000E+00 0.  1.
         12    1    4    4    0    0 -0.44529244886E+02  0.26822333695E+02  0.83699813346E+01  0.52653089392E+02  0.00000000000E+00 0. -1.
         -5    1    5    5    0  502 -0.16180368474E+02  0.23451594998E+02  0.28963006607E+02  0.40898990007E+02  0.47000000000E+01 0.  1.
         11    1    6    6    0    0  0.42427636087E+01 -0.46057709485E+02  0.57928885675E+03  0.58113242312E+03  0.00000000000E+00 0. -1.
        -12    1    6    6    0    0 -0.49549996499E+02 -0.13996642445E+02  0.33895611582E+03  0.34284450791E+03  0.00000000000E+00 0.  1.
</event>
<event>
12    1  0.8344842E-002  0.4111166E+03  0.7818608E-02  0.1040041E+00
         21   -1    0    0  501  502  0.00000000000E+00  0.00000000000E+00  0.90410135089E+02  0.90410135089E+02  0.00000000000E+00 0. -1.
         21   -1    0    0  502  503 -0.00000000000E+00 -0.00000000000E+00 -0.18678806667E+04  0.18678806667E+04  0.00000000000E+00 0. -1.
         -6    2    1    2    0  503 -0.26113586329E+03 -0.26588564913E+03 -0.86836468341E+03  0.96076743955E+03  0.17357918074E+03 0.  0.
        -24    2    3    3    0    0 -0.15722899525E+03 -0.95402457886E+02 -0.54756138424E+03  0.58288121000E+03  0.78130976830E+02 0.  0.
          6    2    1    2  501    0  0.26113586329E+03  0.26588564913E+03 -0.90910584823E+03  0.99752336228E+03  0.17231453068E+03 0.  0.
         24    2    5    5    0    0  0.25383668941E+03  0.23938344500E+03 -0.89914498554E+03  0.96790996077E+03  0.81550527297E+02 0.  0.
          5    1    5    5  501    0  0.72991738860E+01  0.26502204134E+02 -0.99608626942E+01  0.29613401510E+02  0.47000000000E+01 0. -1.
        -13    1    6    6    0    0  0.49635303385E+01  0.13024756301E+02 -0.97340350603E+01  0.17000951405E+02  0.00000000000E+00 0.  1.
         14    1    6    6    0    0  0.24887315907E+03  0.22635868870E+03 -0.88941095048E+03  0.95090900936E+03  0.00000000000E+00 0. -1.
         -5    1    3    3    0  503 -0.10390686804E+03 -0.17048319125E+03 -0.32080329917E+03  0.37788622955E+03  0.47000000000E+01 0.  1.
         11    1    4    4    0    0 -0.78148668330E+02 -0.12738086827E+02 -0.15590675872E+03  0.17486106094E+03  0.00000000000E+00 0. -1.
        -12    1    4    4    0    0 -0.79080326920E+02 -0.82664371059E+02 -0.39165462552E+03  0.40802014906E+03  0.00000000000E+00 0.  1.
</event>
<event>
12    1  0.8344842E-002  0.2056127E+03  0.7818608E-02  0.1145124E+00
         21   -1    0    0  503  502  0.00000000000E+00  0.00000000000E+00  0.15667794142E+03  0.15667794142E+03  0.00000000000E+00 0. -1.
         21   -1    0    0  501  503 -0.00000000000E+00 -0.00000000000E+00 -0.27551225758E+03  0.27551225758E+03  0.00000000000E+00 0.  1.
          6    2    1    2  501    0  0.49999669366E+02  0.98088288660E+02 -0.27739262411E+02  0.20730154287E+03  0.17344504516E+03 0.  0.
         24    2    3    3    0    0  0.90096189785E+02  0.49101050684E+02  0.14677701431E+02  0.13095516604E+03  0.80034892396E+02 0.  0.
         -6    2    1    2    0  502 -0.49999669366E+02 -0.98088288660E+02 -0.91095053743E+02  0.22488865612E+03  0.17365287077E+03 0.  0.
        -24    2    5    5    0    0 -0.17370765497E+02 -0.97881120735E+02 -0.12437698767E+03  0.17804353458E+03  0.79670621021E+02 0.  0.
          5    1    3    3  501    0 -0.40096520419E+02  0.48987237977E+02 -0.42416963842E+02  0.76346376835E+02  0.47000000000E+01 0. -1.
        -11    1    4    4    0    0  0.98432655576E+02  0.54137524889E+02 -0.11810358521E+01  0.11234435513E+03  0.00000000000E+00 0.  1.
         12    1    4    4    0    0 -0.83364657905E+01 -0.50364742050E+01  0.15858737284E+02  0.18610810904E+02  0.00000000000E+00 0. -1.
         -5    1    5    5    0  502 -0.32628903870E+02 -0.20716792552E+00  0.33281933928E+02  0.46845121542E+02  0.47000000000E+01 0.  1.
         11    1    6    6    0    0 -0.34291311083E+02 -0.88700479241E+02 -0.63889926169E+02  0.11456697473E+03  0.00000000000E+00 0. -1.
        -12    1    6    6    0    0  0.16920545586E+02 -0.91806414935E+01 -0.60487061502E+02  0.63476559849E+02  0.00000000000E+00 0.  1.
</event>
<event>
12    1  0.8344842E-002  0.1848396E+03  0.7818608E-02  0.1163496E+00
         21   -1    0    0  503  502  0.00000000000E+00  0.00000000000E+00  0.63677186288E+02  0.63677186288E+02  0.00000000000E+00 0. -1.
         21   -1    0    0  501  503 -0.00000000000E+00 -0.00000000000E+00 -0.82077124573E+03  0.82077124573E+03  0.00000000000E+00 0. -1.
          6    2    1    2  501    0  0.26083580325E+02  0.61153540787E+02 -0.64128889505E+03  0.66739579016E+03  0.17246908446E+03 0.  0.
         24    2    3    3    0    0 -0.19826463299E+02  0.65831934400E+01 -0.52184896798E+03  0.52820656251E+03  0.78989874121E+02 0.  0.
         -6    2    1    2    0  502 -0.26083580325E+02 -0.61153540787E+02 -0.11580516439E+03  0.21705264186E+03  0.17111664011E+03 0.  0.
        -24    2    5    5    0    0 -0.33802918237E+02 -0.17936679828E+01  0.64788475640E+00  0.86031325527E+02  0.79089283036E+02 0.  0.
          5    1    3    3  501    0  0.45910043625E+02  0.54570347347E+02 -0.11943992707E+03  0.13918922765E+03  0.47000000000E+01 0. -1.
        -11    1    4    4    0    0 -0.22590086131E+02  0.19602297219E+02 -0.69507963650E+02  0.75669802818E+02  0.00000000000E+00 0.  1.
         12    1    4    4    0    0  0.27636228316E+01 -0.13019103779E+02 -0.45234100433E+03  0.45253675969E+03  0.00000000000E+00 0. -1.
         -5    1    5    5    0  502  0.77193379116E+01 -0.59359872804E+02 -0.11645304915E+03  0.13102131633E+03  0.47000000000E+01 0.  1.
         11    1    6    6    0    0 -0.51573438879E+02  0.12795516135E+02 -0.18339261212E+02  0.56212750625E+02  0.00000000000E+00 0. -1.
        -12    1    6    6    0    0  0.17770520643E+02 -0.14589184118E+02  0.18987145969E+02  0.29818574902E+02  0.00000000000E+00 0.  1.
</event>
<event>
12    1  0.8344842E-002  0.2785436E+03  0.7818608E-02  0.1096865E+00
         21   -1    0    0  503  502  0.00000000000E+00  0.00000000000E+00  0.32043435115E+03  0.32043435115E+03  0.00000000000E+00 0.  1.
         21   -1    0    0  501  503 -0.00000000000E+00 -0.00000000000E+00 -0.33126379843E+03  0.33126379843E+03  0.00000000000E+00 0.  1.
          6    2    1    2  501    0 -0.13938514935E+03  0.16492942097E+03 -0.17668946228E+03  0.32985710350E+03  0.17594490298E+03 0.  0.
         24    2    3    3    0    0 -0.12320907789E+03  0.41708375149E+02 -0.79850767780E+02  0.17223440788E+03  0.79802761285E+02 0.  0.
         -6    2    1    2    0  502  0.13938514935E+03 -0.16492942097E+03  0.16586001501E+03  0.32184104608E+03  0.17158723904E+03 0.  0.
        -24    2    5    5    0    0  0.14929787755E+03 -0.13530326374E+03  0.81391241200E+02  0.23165770438E+03  0.80274083197E+02 0.  0.
          5    1    3    3  501    0 -0.16176071458E+02  0.12322104583E+03 -0.96838694503E+02  0.15762269562E+03  0.47000000000E+01 0. -1.
        -13    1    4    4    0    0 -0.10068574965E+03  0.65054114923E+02 -0.67126506169E+02  0.13738859443E+03  0.00000000000E+00 0.  1.
         14    1    4    4    0    0 -0.22523328245E+02 -0.23345739774E+02 -0.12724261611E+02  0.34845813441E+02  0.00000000000E+00 0. -1.
         -5    1    5    5    0  502 -0.99127282022E+01 -0.29626157238E+02  0.84468773806E+02  0.90183341707E+02  0.47000000000E+01 0.  1.
         13    1    6    6    0    0 -0.89563279356E+01 -0.17238333036E+02  0.64051418525E+01  0.20454871745E+02  0.00000000000E+00 0. -1.
        -14    1    6    6    0    0  0.15825420549E+03 -0.11806493070E+03  0.74986099347E+02  0.21120283263E+03  0.00000000000E+00 0.  1.
</event>
<event>
12    1  0.8344842E-002  0.2296728E+03  0.7818608E-02  0.1128661E+00
         21   -1    0    0  503  502  0.00000000000E+00  0.00000000000E+00  0.17338761382E+03  0.17338761382E+03  0.00000000000E+00 0.  1.
         21   -1    0    0  501  503 -0.00000000000E+00 -0.00000000000E+00 -0.68942287947E+03  0.68942287947E+03  0.00000000000E+00 0. -1.
          6    2    1    2  501    0 -0.80733514012E+02 -0.10846705367E+03 -0.58825147671E+03  0.63149772400E+03  0.18565175343E+03 0.  0.
         24    2    3    3    0    0 -0.11685971700E+03 -0.50648046035E+02 -0.30352695067E+03  0.33868671684E+03  0.79741233723E+02 0.  0.
         -6    2    1    2    0  502  0.80733514012E+02  0.10846705367E+03  0.72216211062E+02  0.23131276929E+03  0.17322648204E+03 0.  0.
        -24    2    5    5    0    0  0.40101987184E+02  0.46988041993E+02  0.10900460987E+03  0.14881388362E+03  0.80296460185E+02 0.  0.
          5    1    3    3  501    0  0.36126202989E+02 -0.57819007631E+02 -0.28472452604E+03  0.29281100716E+03  0.47000000000E+01 0. -1.
        -13    1    4    4    0    0 -0.30611006516E+02 -0.50269252113E+02 -0.81783611083E+02  0.10076006386E+03  0.00000000000E+00 0.  1.
         14    1    4    4    0    0 -0.86248710485E+02 -0.37879392151E+00 -0.22174333959E+03  0.23792665298E+03  0.00000000000E+00 0. -1.
         -5    1    5    5    0  502  0.40631526828E+02  0.61479011673E+02 -0.36788398812E+02  0.82498885664E+02  0.47000000000E+01 0.  1.
         11    1    6    6    0    0  0.52373685373E+02 -0.98935590465E-01  0.51013298766E+02  0.73112032928E+02  0.00000000000E+00 0. -1.
        -12    1    6    6    0    0 -0.12271698189E+02  0.47086977583E+02  0.57991311108E+02  0.75701850694E+02  0.00000000000E+00 0.  1.
</event>
<event>
12    1  0.8344842E-002  0.3110538E+03  0.7818608E-02  0.1079844E+00
         21   -1    0    0  503  502  0.00000000000E+00  0.00000000000E+00  0.19488565616E+03  0.19488565616E+03  0.00000000000E+00 0. -1.
         21   -1    0    0  501  503 -0.00000000000E+00 -0.00000000000E+00 -0.14491609295E+04  0.14491609295E+04  0.00000000000E+00 0. -1.
          6    2    1    2  501    0  0.18116260943E+03  0.18570265019E+03 -0.12936454372E+04  0.13305111681E+04  0.17156947824E+03 0.  0.
         24    2    3    3    0    0  0.86320405824E+02  0.17953948315E+03 -0.81622144232E+03  0.84369622470E+03  0.76943084172E+02 0.  0.
         -6    2    1    2    0  502 -0.18116260943E+03 -0.18570265019E+03  0.39370163945E+02  0.31353541749E+03  0.17160735086E+03 0.  0.
        -24    2    5    5    0    0 -0.16433866940E+03 -0.18853291409E+03  0.76615546650E+02  0.27229994872E+03  0.75666783530E+02 0.  0.
          5    1    3    3  501    0  0.94842203608E+02  0.61631670438E+01 -0.47742399493E+03  0.48681494343E+03  0.47000000000E+01 0. -1.
        -13    1    4    4    0    0 -0.68647052132E+01  0.14555737471E+02 -0.22448822304E+02  0.27621428164E+02  0.00000000000E+00 0.  1.
         14    1    4    4    0    0  0.93185111037E+02  0.16498374568E+03 -0.79377262001E+03  0.81607479653E+03  0.00000000000E+00 0. -1.
         -5    1    5    5    0  502 -0.16823940034E+02  0.28302639020E+01 -0.37245382705E+02  0.41235468773E+02  0.47000000000E+01 0.  1.
         13    1    6    6    0    0 -0.85016287956E+02 -0.14802334651E+03  0.36225328375E+02  0.17450201932E+03  0.00000000000E+00 0. -1.
        -14    1    6    6    0    0 -0.79322381442E+02 -0.40509567579E+02  0.40390218275E+02  0.97797929402E+02  0.00000000000E+00 0.  1.
</event>
<event>
12    1  0.8344842E-002  0.2219351E+03  0.7818608E-02  0.1132782E+00
         21   -1    0    0  503  502  0.00000000000E+00  0.00000000000E+00  0.76611287798E+02  0.76611287798E+02  0.00000000000E+00 0.  1.
         21   -1    0    0  501  503 -0.00000000000E+00 -0.00000000000E+00 -0.88675347571E+03  0.88675347571E+03  0.00000000000E+00 0.  1.
          6    2    1    2  501    0  0.96914781145E+02  0.99868555707E+02 -0.14862046176E+03  0.26560678046E+03  0.17056587276E+03 0.  0.
         24    2    3    3    0    0  0.89923300881E+02  0.10204318783E+03 -0.40218851741E+02  0.15685656724E+03  0.66988166313E+02 0.  0.
         -6    2    1    2    0  502 -0.96914781145E+02 -0.99868555707E+02 -0.66152172615E+03  0.69775798304E+03  0.17288437036E+03 0.  0.
        -24    2    5    5    0    0 -0.12779472562E+03 -0.84079077194E+02 -0.42459943935E+03  0.45826447878E+03  0.79503870968E+02 0.  0.
          5    1    3    3  501    0  0.69914802640E+01 -0.21746321238E+01 -0.10840161002E+03  0.10875021322E+03  0.47000000000E+01 0. -1.
        -13    1    4    4    0    0  0.72330700884E+02  0.57407875823E+02 -0.53955820172E+02  0.10695150783E+03  0.00000000000E+00 0.  1.
         14    1    4    4    0    0  0.17592599997E+02  0.44635312007E+02  0.13736968431E+02  0.49905059406E+02  0.00000000000E+00 0. -1.
         -5    1    5    5    0  502  0.30879944475E+02 -0.15789478513E+02 -0.23692228680E+03  0.23949350426E+03  0.47000000000E+01 0.  1.
         11    1    6    6    0    0  0.41633691013E+01 -0.29179348079E+02 -0.73435141667E+02  0.79129564818E+02  0.00000000000E+00 0. -1.
        -12    1    6    6    0    0 -0.13195809472E+03 -0.54899729114E+02 -0.35116429768E+03  0.37913491396E+03  0.00000000000E+00 0.  1.
</event>
<event>
12    1  0.8344842E-002  0.1767907E+03  0.7818608E-02  0.1171338E+00
         21   -1    0    0  503  502  0.00000000000E+00  0.00000000000E+00  0.13308107675E+04  0.13308107675E+04  0.00000000000E+00 0.  1.
         21   -1    0    0  501  503 -0.00000000000E+00 -0.00000000000E+00 -0.12688393566E+03  0.12688393566E+03  0.00000000000E+00 0.  1.
          6    2    1    2  501    0  0.26771603359E+01  0.36830371671E+02 -0.57140481866E+02  0.18429543070E+03  0.17127792515E+03 0.  0.
         24    2    3    3    0    0 -0.61167955827E+02  0.91720367549E+00 -0.26438547595E+02  0.10473002829E+03  0.80789986655E+02 0.  0.
         -6    2    1    2    0  502 -0.26771603359E+01 -0.36830371671E+02  0.12610673137E+04  0.12733992725E+04  0.17289098858E+03 0.  0.
        -24    2    5    5    0    0 -0.23273991198E+02  0.40050739839E+02  0.50054986642E+03  0.50871383884E+03  0.78063183596E+02 0.  0.
          5    1    3    3  501    0  0.63845116163E+02  0.35913167996E+02 -0.30701934271E+02  0.79565402414E+02  0.47000000000E+01 0. -1.
        -13    1    4    4    0    0 -0.94884958888E+01  0.10732255221E+02 -0.46327984663E+02  0.48492216070E+02  0.00000000000E+00 0.  1.
         14    1    4    4    0    0 -0.51679459938E+02 -0.98150515452E+01  0.19889437068E+02  0.56237812219E+02  0.00000000000E+00 0. -1.
         -5    1    5    5    0  502  0.20596830862E+02 -0.76881111510E+02  0.76051744733E+03  0.76468543366E+03  0.47000000000E+01 0.  1.
         11    1    6    6    0    0 -0.13215530828E+02 -0.45870786452E+01  0.13242017857E+02  0.19262465639E+02  0.00000000000E+00 0. -1.
        -12    1    6    6    0    0 -0.10058460370E+02  0.44637818484E+02  0.48730784856E+03  0.48945137320E+03  0.00000000000E+00 0.  1.
</event>
<event>
12    1  0.8344842E-002  0.2977804E+03  0.7818608E-02  0.1086489E+00
         21   -1    0    0  503  502  0.00000000000E+00  0.00000000000E+00  0.48510062530E+02  0.48510062530E+02  0.00000000000E+00 0.  1.
         21   -1    0    0  501  503 -0.00000000000E+00 -0.00000000000E+00 -0.18610281473E+04  0.18610281473E+04  0.00000000000E+00 0. -1.
          6    2    1    2  501    0 -0.14129070574E+03 -0.19736076985E+03 -0.76545794314E+03  0.82095743387E+03  0.17067779148E+03 0.  0.
         24    2    3    3    0    0 -0.44778673923E+02 -0.96286521414E+02 -0.53634441310E+03  0.55254417855E+03  0.79771648746E+02 0.  0.
         -6    2    1    2    0  502  0.14129070574E+03  0.19736076985E+03 -0.10470601416E+04  0.10885807759E+04  0.17250747402E+03 0.  0.
        -24    2    5    5    0    0  0.77819233464E+02  0.67435866149E+02 -0.69446610812E+03  0.70745907511E+03  0.87245277690E+02 0.  0.
          5    1    3    3  501    0 -0.96512031822E+02 -0.10107424843E+03 -0.22911353004E+03  0.26841325532E+03  0.47000000000E+01 0. -1.
        -13    1    4    4    0    0  0.15918706582E+02 -0.27788005983E+01 -0.30025743618E+02  0.34097979879E+02  0.00000000000E+00 0.  1.
         14    1    4    4    0    0 -0.60697380505E+02 -0.93507720816E+02 -0.50631866948E+03  0.51844619867E+03  0.00000000000E+00 0. -1.
         -5    1    5    5    0  502  0.63471472281E+02  0.12992490370E+03 -0.35259403347E+03  0.38112170081E+03  0.47000000000E+01 0.  1.
         11    1    6    6    0    0  0.50136070575E+02 -0.11309470076E+02 -0.25167577260E+03  0.25687005314E+03  0.00000000000E+00 0. -1.
        -12    1    6    6    0    0  0.27683162889E+02  0.78745336225E+02 -0.44279033552E+03  0.45058902196E+03  0.00000000000E+00 0.  1.
</event>
<event>
12    1  0.8344842E-002  0.1991863E+03  0.7818608E-02  0.1150576E+00
         21   -1    0    0  503  502  0.00000000000E+00  0.00000000000E+00  0.33580855960E+03  0.33580855960E+03  0.00000000000E+00 0. -1.
         21   -1    0    0  501  503 -0.00000000000E+00 -0.00000000000E+00 -0.11926663020E+03  0.11926663020E+03  0.00000000000E+00 0. -1.
          6    2    1    2  501    0 -0.69969177003E+02  0.71497240541E+02  0.82658534761E+02  0.21565627864E+03  0.17224301440E+03 0.  0.
         24    2    3    3    0    0 -0.11157337525E+03  0.33124895933E+02  0.49732152990E+02  0.15000886620E+03  0.80520159606E+02 0.  0.
         -6    2    1    2    0  502  0.69969177003E+02 -0.71497240541E+02  0.13388339465E+03  0.23941891116E+03  0.17143252470E+03 0.  0.
        -24    2    5    5    0    0  0.11463257006E+03 -0.57282560811E+02  0.10207475144E+03  0.18257917523E+03  0.80585249600E+02 0.  0.
          5    1    3    3  501    0  0.41604198248E+02  0.38372344609E+02  0.32926381772E+02  0.65647412433E+02  0.47000000000E+01 0. -1.
        -13    1    4    4    0    0  0.36814753677E+01  0.11610752193E+02  0.28314229881E+02  0.30823018040E+02  0.00000000000E+00 0.  1.
         14    1    4    4    0    0 -0.11525485062E+03  0.21514143740E+02  0.21417923109E+02  0.11918584816E+03  0.00000000000E+00 0. -1.
         -5    1    5    5    0  502 -0.44663393054E+02 -0.14214679731E+02  0.31808643204E+02  0.56839735937E+02  0.47000000000E+01 0.  1.
         11    1    6    6    0    0  0.40747211555E+02 -0.18187253009E+02  0.86808362752E+02  0.97605344450E+02  0.00000000000E+00 0. -1.
        -12    1    6    6    0    0  0.73885358501E+02 -0.39095307802E+02  0.15266388691E+02  0.84973830776E+02  0.00000000000E+00 0.  1.
</event>
<event>
12    1  0.8344842E-002  0.3090402E+03  0.7818608E-02  0.1080831E+00
         21   -1    0    0  501  502  0.00000000000E+00  0.00000000000E+00  0.19548745474E+03  0.19548745474E+03  0.00000000000E+00 0.  1.
         21   -1    0    0  502  503 -0.00000000000E+00 -0.00000000000E+00 -0.49869288760E+03  0.49869288760E+03  0.00000000000E+00 0. -1.
         -6    2    1    2    0  503 -0.25249363404E+03  0.46784901630E+02 -0.10138313259E+03  0.32524507290E+03  0.17194172158E+03 0.  0.
        -24    2    3    3    0    0 -0.22810078178E+03  0.48105991838E+02 -0.13875744048E+03  0.28034868762E+03  0.70693749821E+02 0.  0.
          6    2    1    2  501    0  0.25249363404E+03 -0.46784901630E+02 -0.20182230027E+03  0.36893526943E+03  0.17157834914E+03 0.  0.
         24    2    5    5    0    0  0.14656699700E+03  0.37739042972E+02 -0.12983627410E+03  0.21541384549E+03  0.81483414154E+02 0.  0.
          5    1    5    5  501    0  0.10592663705E+03 -0.84523944603E+02 -0.71986026172E+02  0.15352142395E+03  0.47000000000E+01 0. -1.
        -11    1    6    6    0    0  0.75114163479E+01 -0.19119431867E+02 -0.82151367545E+01  0.22123799908E+02  0.00000000000E+00 0.  1.
         12    1    6    6    0    0  0.13905558065E+03  0.56858474840E+02 -0.12162113735E+03  0.19329004558E+03  0.00000000000E+00 0. -1.
         -5    1    3    3    0  503 -0.24392852263E+02 -0.13210902071E+01  0.37374307889E+02  0.44896385279E+02  0.47000000000E+01 0.  1.
         11    1    4    4    0    0 -0.15968177382E+03  0.40041980676E+02 -0.13221614713E+03  0.21114624948E+03  0.00000000000E+00 0. -1.
        -12    1    4    4    0    0 -0.68419007962E+02  0.80640111620E+01 -0.65412933477E+01  0.69202438144E+02  0.00000000000E+00 0.  1.
</event>
<event>
12    1  0.8344842E-002  0.1896630E+03  0.7818608E-02  0.1159159E+00
         21   -1    0    0  501  502  0.00000000000E+00  0.00000000000E+00  0.34715384125E+03  0.34715384125E+03  0.00000000000E+00 0. -1.
         21   -1    0    0  502  503 -0.00000000000E+00 -0.00000000000E+00 -0.61959101937E+03  0.61959101937E+03  0.00000000000E+00 0. -1.
         -6    2    1    2    0  503  0.75070346455E+02  0.17647206382E+02 -0.57782914200E+03  0.60815999486E+03  0.17327746881E+03 0.  0.
        -24    2    3    3    0    0  0.34038516600E+02  0.58872364535E+02 -0.20435770575E+03  0.23015717950E+03  0.81152199343E+02 0.  0.
          6    2    1    2  501    0 -0.75070346455E+02 -0.17647206382E+02  0.30539196388E+03  0.35858486576E+03  0.17138224395E+03 0.  0.
         24    2    5    5    0    0 -0.28355725016E+02 -0.59516696773E+02  0.10049103876E+03  0.14424450746E+03  0.79760546167E+02 0.  0.
          5    1    5    5  501    0 -0.46714621439E+02  0.41869490391E+02  0.20490092512E+03  0.21434035830E+03  0.47000000000E+01 0. -1.
        -11    1    6    6    0    0  0.19718620519E+02 -0.40477679331E+02  0.21649265308E+02  0.49959555718E+02  0.00000000000E+00 0.  1.
         12    1    6    6    0    0 -0.48074345535E+02 -0.19039017442E+02  0.78841773447E+02  0.94284951737E+02  0.00000000000E+00 0. -1.
         -5    1    3    3    0  503  0.41031829855E+02 -0.41225158153E+02 -0.37347143625E+03  0.37800281536E+03  0.47000000000E+01 0.  1.
         11    1    4    4    0    0  0.46528315022E+02  0.40064190596E+02 -0.19709927097E+03  0.20644162876E+03  0.00000000000E+00 0. -1.
        -12    1    4    4    0    0 -0.12489798422E+02  0.18808173940E+02 -0.72584347771E+01  0.23715550742E+02  0.00000000000E+00 0.  1.
</event>
<event>
12    1  0.8344842E-002  0.1758055E+03  0.7818608E-02  0.1172274E+00
         21   -1    0    0  503  502  0.00000000000E+00  0.00000000000E+00  0.72353557456E+02  0.72353557456E+02  0.00000000000E+00 0.  1.
         21   -1    0    0  501  503 -0.00000000000E+00 -0.00000000000E+00 -0.75096565742E+03  0.75096565742E+03  0.00000000000E+00 0.  1.
          6    2    1    2  501    0 -0.26510635547E+02 -0.18946377238E+02 -0.61025833763E+03  0.63469308846E+03  0.17134263595E+03 0.  0.
         24    2    3    3    0    0  0.32991890845E+02 -0.64761838104E+01 -0.51041022530E+03  0.51769825137E+03  0.79765127491E+02 0.  0.
         -6    2    1    2    0  502  0.26510635547E+02  0.18946377238E+02 -0.68353762335E+02  0.18862612641E+03  0.17275936945E+03 0.  0.
        -24    2    5    5    0    0  0.96140781055E+01 -0.22116717252E+02 -0.10043396295E+03  0.13364521468E+03  0.84808506730E+02 0.  0.
          5    1    3    3  501    0 -0.59502526391E+02 -0.12470193427E+02 -0.99848112324E+02  0.11699483709E+03  0.47000000000E+01 0. -1.
        -11    1    4    4    0    0 -0.25600092799E+02  0.32194881938E+01 -0.11545945766E+03  0.11830729571E+03  0.00000000000E+00 0.  1.
         12    1    4    4    0    0  0.58591983644E+02 -0.96956720042E+01 -0.39495076764E+03  0.39939095566E+03  0.00000000000E+00 0. -1.
         -5    1    5    5    0  502  0.16896557441E+02  0.41063094489E+02  0.32080200618E+02  0.54980911725E+02  0.47000000000E+01 0.  1.
         11    1    6    6    0    0  0.16791608551E+02 -0.29254943091E+02 -0.10507521987E+01  0.33747798345E+02  0.00000000000E+00 0. -1.
        -12    1    6    6    0    0 -0.71775304453E+01  0.71382258392E+01 -0.99383210754E+02  0.99897416339E+02  0.00000000000E+00 0.  1.
</event>
<event>
12    1  0.8344842E-002  0.1956174E+03  0.7818608E-02  0.1153498E+00
         21   -1    0    0  503  502  0.00000000000E+00  0.00000000000E+00  0.18147499209E+03  0.18147499209E+03  0.00000000000E+00 0.  1.
         21   -1    0    0  501  503 -0.00000000000E+00 -0.00000000000E+00 -0.31527397255E+03  0.31527397255E+03  0.00000000000E+00 0. -1.
          6    2    1    2  501    0 -0.91696812836E+02 -0.15731694596E+02 -0.20985570293E+03  0.28686613384E+03  0.17203770224E+03 0.  0.
         24    2    3    3    0    0 -0.38035457185E+02 -0.64678437493E+00 -0.23667201749E+02  0.92455888280E+02  0.80875462940E+02 0.  0.
         -6    2    1    2    0  502  0.91696812836E+02  0.15731694596E+02  0.76056722476E+02  0.20988283080E+03  0.17207668619E+03 0.  0.
        -24    2    5    5    0    0  0.16404137681E+02  0.15824327289E+02 -0.10789657049E+02  0.94846405480E+02  0.91432591925E+02 0.  0.
          5    1    3    3  501    0 -0.53661355651E+02 -0.15084910221E+02 -0.18618850118E+03  0.19441024556E+03  0.47000000000E+01 0. -1.
        -11    1    4    4    0    0  0.68700611341E+01 -0.28181069520E+02 -0.27064095294E+02  0.39671597817E+02  0.00000000000E+00 0.  1.
         12    1    4    4    0    0 -0.44905518319E+02  0.27534285145E+02  0.33968935453E+01  0.52784290463E+02  0.00000000000E+00 0. -1.
         -5    1    5    5    0  502  0.75292675155E+02 -0.92632693110E-01  0.86846379525E+02  0.11503642532E+03  0.47000000000E+01 0.  1.
         13    1    6    6    0    0  0.47258556237E+02  0.31627214154E+02 -0.17582136523E+02  0.59521284743E+02  0.00000000000E+00 0. -1.
        -14    1    6    6    0    0 -0.30854418556E+02 -0.15802886865E+02  0.67924794745E+01  0.35325120738E+02  0.00000000000E+00 0.  1.
</event>
<event>
12    1  0.8344842E-002  0.2111323E+03  0.7818608E-02  0.1141111E+00
         21   -1    0    0  501  502  0.00000000000E+00  0.00000000000E+00  0.23619910697E+03  0.23619910697E+03  0.00000000000E+00 0.  1.
         21   -1    0    0  502  503 -0.00000000000E+00 -0.00000000000E+00 -0.19250533815E+03  0.19250533815E+03  0.00000000000E+00 0.  1.
         -6    2    1    2    0  503 -0.61793479525E+02 -0.10569148785E+03 -0.15327820386E+02  0.20947761686E+03  0.16928320995E+03 0.  0.
        -24    2    3    3    0    0 -0.39102799446E+02 -0.10287820477E+03 -0.62910405491E+02  0.15647786281E+03  0.91731393154E+02 0.  0.
          6    2    1    2  501    0  0.61793479525E+02  0.10569148785E+03  0.59021589200E+02  0.21922682826E+03  0.17201084129E+03 0.  0.
         24    2    5    5    0    0  0.39710478246E+02  0.13932638382E+03  0.26078822990E+02  0.16701302723E+03  0.78895392436E+02 0.  0.
          5    1    5    5  501    0  0.22083001278E+02 -0.33634895964E+02  0.32942766210E+02  0.52213801025E+02  0.47000000000E+01 0. -1.
        -13    1    6    6    0    0 -0.12880944434E+02  0.81852499179E+02 -0.52939475150E+01  0.83028767495E+02  0.00000000000E+00 0.  1.
         14    1    6    6    0    0  0.52591422681E+02  0.57473884637E+02  0.31372770505E+02  0.83984259740E+02  0.00000000000E+00 0. -1.
         -5    1    3    3    0  503 -0.22690680078E+02 -0.28132830858E+01  0.47582585105E+02  0.52999754051E+02  0.47000000000E+01 0.  1.
         11    1    4    4    0    0 -0.66218554974E+02 -0.54475320243E+02 -0.25122784760E+02  0.89351059605E+02  0.00000000000E+00 0. -1.
        -12    1    4    4    0    0  0.27115755528E+02 -0.48402884523E+02 -0.37787620731E+02  0.67126803205E+02  0.00000000000E+00 0.  1.
</event>
<event>
12    1  0.8344842E-002  0.2133053E+03  0.7818608E-02  0.1139522E+00
         21   -1    0    0  503  502  0.00000000000E+00  0.00000000000E+00  0.82520478056E+02  0.82520478056E+02  0.00000000000E+00 0. -1.
         21   -1    0    0  501  503 -0.00000000000E+00 -0.00000000000E+00 -0.97716543906E+03  0.97716543906E+03  0.00000000000E+00 0.  1.
          6    2    1    2  501    0 -0.11420095781E+03 -0.53357042347E+02 -0.79837874431E+03  0.82566386568E+03  0.16859230999E+03 0.  0.
         24    2    3    3    0    0 -0.40179540307E+02  0.31691562304E+02 -0.30418607688E+03  0.31875073906E+03  0.80337498710E+02 0.  0.
         -6    2    1    2    0  502  0.11420095781E+03  0.53357042347E+02 -0.96266216686E+02  0.23402205143E+03  0.17207644623E+03 0.  0.
        -24    2    5    5    0    0  0.11367683912E+03  0.84001304433E+02 -0.35748337130E+02  0.16602315993E+03  0.79417272224E+02 0.  0.
          5    1    3    3  501    0 -0.74021417504E+02 -0.85048604651E+02 -0.49419266743E+03  0.50691312662E+03  0.47000000000E+01 0. -1.
        -13    1    4    4    0    0 -0.40487216987E+02  0.13055452181E+02 -0.58358307227E+02  0.72217391212E+02  0.00000000000E+00 0.  1.
         14    1    4    4    0    0  0.30767668089E+00  0.18636110123E+02 -0.24582776965E+03  0.24653334784E+03  0.00000000000E+00 0. -1.
         -5    1    5    5    0  502  0.52411869053E+00 -0.30644262085E+02 -0.60517879556E+02  0.67998891499E+02  0.47000000000E+01 0.  1.
         13    1    6    6    0    0  0.10354335206E+03  0.30970885486E+02 -0.26013671570E+02  0.11116264036E+03  0.00000000000E+00 0. -1.
        -14    1    6    6    0    0  0.10133487057E+02  0.53030418947E+02 -0.97346655606E+01  0.54860519567E+02  0.00000000000E+00 0.  1.
</event>
<event>
12    1  0.8344842E-002  0.2958646E+03  0.7818608E-02  0.1088109E+00
         21   -1    0    0  501  502  0.00000000000E+00  0.00000000000E+00  0.19245608733E+03  0.19245608733E+03  0.00000000000E+00 0. -1.
         21   -1    0    0  502  503 -0.00000000000E+00 -0.00000000000E+00 -0.45961035450E+03  0.45961035450E+03  0.00000000000E+00 0.  1.
         -6    2    1    2    0  503  0.24149398767E+03  0.15805542030E+02 -0.19199526316E+03  0.35270103785E+03  0.17019600401E+03 0.  0.
        -24    2    3    3    0    0  0.12403534265E+03  0.30537927691E+02 -0.34996974112E+02  0.15601822405E+03  0.82459485719E+02 0.  0.
          6    2    1    2  501    0 -0.24149398767E+03 -0.15805542030E+02 -0.75159004000E+02  0.29936540398E+03  0.15937881911E+03 0.  0.
         24    2    5    5    0    0 -0.60746007202E+02  0.16760805293E+02 -0.35804217229E+02  0.11147903231E+03  0.84703191720E+02 0.  0.
          5    1    5    5  501    0 -0.18074798046E+03 -0.32566347323E+02 -0.39354786771E+02  0.18788637168E+03  0.47000000000E+01 0. -1.
        -13    1    6    6    0    0 -0.26213262990E+02  0.29215687134E+02 -0.56910502685E+02  0.69133905193E+02  0.00000000000E+00 0.  1.
         14    1    6    6    0    0 -0.34532744212E+02 -0.12454881841E+02  0.21106285456E+02  0.42345127113E+02  0.00000000000E+00 0. -1.
         -5    1    3    3    0  503  0.11745864501E+03 -0.14732385661E+02 -0.15699828905E+03  0.19668281379E+03  0.47000000000E+01 0.  1.
         11    1    4    4    0    0  0.12464332427E+03  0.17228414120E+02 -0.50493511287E+02  0.13558160355E+03  0.00000000000E+00 0. -1.
        -12    1    4    4    0    0 -0.60798162076E+00  0.13309513571E+02  0.15496537175E+02  0.20436620503E+02  0.00000000000E+00 0.  1.
</event>
<event>
12    1  0.8344842E-002  0.1809407E+03  0.7818608E-02  0.1169413E+00
         21   -1    0    0  503  502  0.00000000000E+00  0.00000000000E+00  0.21713436636E+03  0.21713436636E+03  0.00000000000E+00 0. -1.
         21   -1    0    0  501  503 -0.00000000000E+00 -0.00000000000E+00 -0.16495260765E+03  0.16495260765E+03  0.00000000000E+00 0. -1.
          6    2    1    2  501    0 -0.42114557709E+02 -0.37451345047E+02 -0.43814871820E+02  0.18617001012E+03  0.17193978730E+03 0.  0.
         24    2    3    3    0    0 -0.89852253471E+02 -0.40547171125E+00 -0.27086183233E+02  0.12329534630E+03  0.79965550314E+02 0.  0.
         -6    2    1    2    0  502  0.42114557709E+02  0.37451345047E+02  0.95996630529E+02  0.19591696389E+03  0.16121992572E+03 0.  0.
        -24    2    5    5    0    0 -0.36313827579E+02  0.18292584483E+02  0.33247685065E+02  0.93556864813E+02  0.77421997332E+02 0.  0.
          5    1    3    3  501    0  0.47737695762E+02 -0.37045873335E+02 -0.16728688588E+02  0.62874663814E+02  0.47000000000E+01 0. -1.
        -13    1    4    4    0    0 -0.19522548163E+01  0.21247607172E+02 -0.24831577833E+02  0.32739568829E+02  0.00000000000E+00 0.  1.
         14    1    4    4    0    0 -0.87899998655E+02 -0.21653078883E+02 -0.22546053996E+01  0.90555777475E+02  0.00000000000E+00 0. -1.
         -5    1    5    5    0  502  0.78428385288E+02  0.19158760563E+02  0.62748945465E+02  0.10236009907E+03  0.47000000000E+01 0.  1.
         11    1    6    6    0    0  0.13332887505E+02  0.28046755146E+02  0.29483323415E+02  0.42821171435E+02  0.00000000000E+00 0. -1.
        -12    1    6    6    0    0 -0.49646715084E+02 -0.97541706630E+01  0.37643616497E+01  0.50735693378E+02  0.00000000000E+00 0.  1.
</event>
<event>
12    1  0.8344842E-002  0.1831151E+03  0.7818608E-02  0.1166993E+00
         21   -1    0    0  503  502  0.00000000000E+00  0.00000000000E+00  0.12309852818E+03  0.12309852818E+03  0.00000000000E+00 0. -1.
         21   -1    0    0  501  503 -0.00000000000E+00 -0.00000000000E+00 -0.48414927680E+03  0.48414927680E+03  0.00000000000E+00 0. -1.
          6    2    1    2  501    0 -0.58572574891E+02 -0.11697929863E+01 -0.38983792650E+03  0.43070260502E+03  0.17349066282E+03 0.  0.
         24    2    3    3    0    0 -0.46211618173E+01  0.40972598474E+00 -0.42910015719E+02  0.79569702638E+02  0.66847177330E+02 0.  0.
         -6    2    1    2    0  502  0.58572574891E+02  0.11697929863E+01  0.28787177889E+02  0.17654519996E+03  0.16403472521E+03 0.  0.
        -24    2    5    5    0    0  0.30902308064E+02 -0.17172614308E+02  0.79837498669E+02  0.11546891305E+03  0.75559197722E+02 0.  0.
          5    1    3    3  501    0 -0.53951413074E+02 -0.15795189710E+01 -0.34692791078E+03  0.35113290238E+03  0.47000000000E+01 0. -1.
        -13    1    4    4    0    0 -0.22213122974E+02  0.20564003338E+02 -0.15476408521E+01  0.30310002603E+02  0.00000000000E+00 0.  1.
         14    1    4    4    0    0  0.17591961157E+02 -0.20154277354E+02 -0.41362374866E+02  0.49259700036E+02  0.00000000000E+00 0. -1.
         -5    1    5    5    0  502  0.27670266828E+02  0.18342407294E+02 -0.51050320780E+02  0.61076286916E+02  0.47000000000E+01 0.  1.
         13    1    6    6    0    0  0.24778215331E+02 -0.19050432658E+02 -0.38904817034E+01  0.31496266244E+02  0.00000000000E+00 0. -1.
        -14    1    6    6    0    0  0.61240927330E+01  0.18778183502E+01  0.83727980372E+02  0.83972646801E+02  0.00000000000E+00 0.  1.
</event>
<event>
12    1  0.8344842E-002  0.1892851E+03  0.7818608E-02  0.1159124E+00
         21   -1    0    0  503  502  0.00000000000E+00  0.00000000000E+00  0.17174775494E+04  0.17174775494E+04  0.00000000000E+00 0. -1.
         21   -1    0    0  501  503 -0.00000000000E+00 -0.00000000000E+00 -0.25742516554E+02  0.25742516554E+02  0.00000000000E+00 0. -1.
          6    2    1    2  501    0 -0.37664062162E+02  0.73097312646E+02  0.46614572094E+03  0.50311100462E+03  0.17049061886E+03 0.  0.
         24    2    3    3    0    0  0.34231054699E+02  0.75300300529E+02  0.25315600849E+03  0.27825445347E+03  0.80595755938E+02 0.  0.
         -6    2    1    2    0  502  0.37664062162E+02 -0.73097312646E+02  0.12255893119E+04  0.12401090613E+04  0.17040987020E+03 0.  0.
        -24    2    5    5    0    0  0.25317842516E+02  0.23133169640E+02  0.70746078006E+03  0.71295443471E+03  0.81407210769E+02 0.  0.
          5    1    3    3  501    0 -0.71895116861E+02 -0.22029878828E+01  0.21298971245E+03  0.22485655115E+03  0.47000000000E+01 0. -1.
        -11    1    4    4    0    0  0.11181625868E+02  0.48055006838E+02  0.23108539704E+03  0.23629382803E+03  0.00000000000E+00 0.  1.
         12    1    4    4    0    0  0.23049428831E+02  0.27245293691E+02  0.22070611454E+02  0.41960625444E+02  0.00000000000E+00 0. -1.
         -5    1    5    5    0  502  0.12346219646E+02 -0.96230482286E+02  0.51812853183E+03  0.52715462661E+03  0.47000000000E+01 0.  1.
         13    1    6    6    0    0  0.34516733633E+02 -0.17841149548E+02  0.48575810830E+03  0.48730960518E+03  0.00000000000E+00 0. -1.
        -14    1    6    6    0    0 -0.91988911170E+01  0.40974319188E+02  0.22170267176E+03  0.22564482953E+03  0.00000000000E+00 0.  1.
</event>
<event>
12    1  0.8344842E-002  0.1971218E+03  0.7818608E-02  0.1152222E+00
         21   -1    0    0  503  502  0.00000000000E+00  0.00000000000E+00  0.12000271514E+04  0.12000271514E+04  0.00000000000E+00 0. -1.
         21   -1    0    0  501  503 -0.00000000000E+00 -0.00000000000E+00 -0.34469964065E+02  0.34469964065E+02  0.00000000000E+00 0.  1.
          6    2    1    2  501    0  0.67700224825E+02 -0.67497880090E+02  0.73544361214E+03  0.76136428748E+03  0.17221784854E+03 0.  0.
         24    2    3    3    0    0  0.19119929382E+02  0.31391511725E+02  0.35816738263E+03  0.36830118787E+03  0.77529944547E+02 0.  0.
         -6    2    1    2    0  502 -0.67700224825E+02  0.67497880090E+02  0.43011357519E+03  0.47313282797E+03  0.17238822782E+03 0.  0.
        -24    2    5    5    0    0 -0.74444344995E+02  0.10715880826E+03  0.37355524469E+03  0.40356698055E+03  0.79358781899E+02 0.  0.
          5    1    3    3  501    0  0.48580295443E+02 -0.98889391815E+02  0.37727622952E+03  0.39306309961E+03  0.47000000000E+01 0. -1.
        -11    1    4    4    0    0  0.39011122829E+02  0.85710664393E+01  0.90433257495E+02  0.98861038562E+02  0.00000000000E+00 0.  1.
         12    1    4    4    0    0 -0.19891193447E+02  0.22820445285E+02  0.26773412513E+03  0.26944014931E+03  0.00000000000E+00 0. -1.
         -5    1    5    5    0  502  0.67441201697E+01 -0.39660928165E+02  0.56558330495E+02  0.69565847427E+02  0.47000000000E+01 0.  1.
         11    1    6    6    0    0 -0.87766011134E+01 -0.10924776316E+02  0.68647987642E+02  0.70063725793E+02  0.00000000000E+00 0. -1.
        -12    1    6    6    0    0 -0.65667743882E+02  0.11808358457E+03  0.30490725705E+03  0.33350325476E+03  0.00000000000E+00 0.  1.
</event>
<event>
12    1  0.8344842E-002  0.1869659E+03  0.7818608E-02  0.1161486E+00
         21   -1    0    0  503  502  0.00000000000E+00  0.00000000000E+00  0.45888216152E+03  0.45888216152E+03  0.00000000000E+00 0. -1.
         21   -1    0    0  501  503 -0.00000000000E+00 -0.00000000000E+00 -0.78831286302E+02  0.78831286302E+02  0.00000000000E+00 0. -1.
          6    2    1    2  501    0 -0.56300998258E+02  0.45188547981E+02  0.24288897514E+03  0.30583065379E+03  0.17124697743E+03 0.  0.
         24    2    3    3    0    0 -0.28660873488E+02  0.66231478759E+02  0.24823302717E+03  0.27037038975E+03  0.79198847393E+02 0.  0.
         -6    2    1    2    0  502  0.56300998258E+02 -0.45188547981E+02  0.13716190008E+03  0.23188279404E+03  0.17246575330E+03 0.  0.
        -24    2    5    5    0    0  0.98398197825E+02 -0.27449446293E+02  0.62208319943E+02  0.14397955680E+03  0.80153354704E+02 0.  0.
          5    1    3    3  501    0 -0.27640124770E+02 -0.21042930778E+02 -0.53440520377E+01  0.35460264032E+02  0.47000000000E+01 0. -1.
        -13    1    4    4    0    0 -0.43648305350E+02  0.66852646281E+02  0.24067758779E+03  0.25357474665E+03  0.00000000000E+00 0.  1.
         14    1    4    4    0    0  0.14987431862E+02 -0.62116752220E+00  0.75554393803E+01  0.16795643100E+02  0.00000000000E+00 0. -1.
         -5    1    5    5    0  502 -0.42097199567E+02 -0.17739101688E+02  0.74953580141E+02  0.87903237233E+02  0.47000000000E+01 0.  1.
         11    1    6    6    0    0  0.21596007027E+02  0.27664828446E+02  0.13169104982E+02  0.37485404873E+02  0.00000000000E+00 0. -1.
        -12    1    6    6    0    0  0.76802190798E+02 -0.55114274740E+02  0.49039214961E+02  0.10649415193E+03  0.00000000000E+00 0.  1.
</event>
<event>
12    1  0.8344842E-002  0.1887287E+03  0.7818608E-02  0.1163123E+00
         21   -1    0    0  501  502  0.00000000000E+00  0.00000000000E+00  0.70075950065E+02  0.70075950065E+02  0.00000000000E+00 0. -1.
         21   -1    0    0  502  503 -0.00000000000E+00 -0.00000000000E+00 -0.59122636643E+03  0.59122636643E+03  0.00000000000E+00 0. -1.
         -6    2    1    2    0  503 -0.17392307054E-01 -0.10468823984E+02 -0.40222287424E+03  0.43822772379E+03  0.17363957142E+03 0.  0.
        -24    2    3    3    0    0  0.62159318000E+02 -0.30381549065E+02 -0.20189989971E+03  0.22748180082E+03  0.78724715726E+02 0.  0.
          6    2    1    2  501    0  0.17392307054E-01  0.10468823984E+02 -0.11892754213E+03  0.22307459270E+03  0.18843809873E+03 0.  0.
         24    2    5    5    0    0  0.31957806191E+02  0.50093092712E+02 -0.13702861543E+03  0.16885271920E+03  0.78764078231E+02 0.  0.
          5    1    5    5  501    0 -0.31940413884E+02 -0.39624268728E+02  0.18101073303E+02  0.54221873502E+02  0.47000000000E+01 0. -1.
        -13    1    6    6    0    0  0.41812934258E+02  0.34824054406E+02 -0.33847619261E+02  0.64083520238E+02  0.00000000000E+00 0.  1.
         14    1    6    6    0    0 -0.98551280669E+01  0.15269038307E+02 -0.10318099617E+03  0.10476919896E+03  0.00000000000E+00 0. -1.
         -5    1    3    3    0  503 -0.62176710307E+02  0.19912725081E+02 -0.20032297453E+03  0.21074592297E+03  0.47000000000E+01 0.  1.
         13    1    4    4    0    0  0.77176494258E+01 -0.41486513578E+02 -0.12960658768E+03  0.13630319326E+03  0.00000000000E+00 0. -1.
        -14    1    4    4    0    0  0.54441668574E+02  0.11104964514E+02 -0.72293312023E+02  0.91178607563E+02  0.00000000000E+00 0.  1.
</event>
<event>
12    1  0.8344842E-002  0.2389285E+03  0.7818608E-02  0.1120858E+00
         21   -1    0    0  501  502  0.00000000000E+00  0.00000000000E+00  0.28769777907E+03  0.28769777907E+03  0.00000000000E+00 0. -1.
         21   -1    0    0  502  503 -0.00000000000E+00 -0.00000000000E+00 -0.19686001846E+03  0.19686001846E+03  0.00000000000E+00 0. -1.
         -6    2    1    2    0  503  0.12221344286E+03 -0.11390885654E+03  0.38489139156E+02  0.23996180675E+03  0.16789550813E+03 0.  0.
        -24    2    3    3    0    0  0.13018017518E+03 -0.73356164630E+02 -0.15970487823E+02  0.17143494620E+03  0.82503814449E+02 0.  0.
          6    2    1    2  501    0 -0.12221344286E+03  0.11390885654E+03  0.52348621453E+02  0.24459599078E+03  0.17080827652E+03 0.  0.
         24    2    5    5    0    0 -0.55233329915E+02 -0.82718167966E+00  0.55024826975E+02  0.11163003246E+03  0.79888219415E+02 0.  0.
          5    1    5    5  501    0 -0.66980112942E+02  0.11473603822E+03 -0.26762055220E+01  0.13296595832E+03  0.47000000000E+01 0. -1.
        -13    1    6    6    0    0 -0.30138388552E+01 -0.79602149154E-01 -0.19995602412E+02  0.20221614104E+02  0.00000000000E+00 0.  1.
         14    1    6    6    0    0 -0.52219491060E+02 -0.74757953050E+00  0.75020429387E+02  0.91408418360E+02  0.00000000000E+00 0. -1.
         -5    1    3    3    0  503 -0.79667323249E+01 -0.40552691909E+02  0.54459626980E+02  0.68526860542E+02  0.47000000000E+01 0.  1.
         13    1    4    4    0    0  0.36817164441E+02 -0.38156530103E+02 -0.42767533586E+02  0.68121115052E+02  0.00000000000E+00 0. -1.
        -14    1    4    4    0    0  0.93363010742E+02 -0.35199634527E+02  0.26797045762E+02  0.10331383115E+03  0.00000000000E+00 0.  1.
</event>
<event>
12    1  0.8344842E-002  0.2476730E+03  0.7818608E-02  0.1114934E+00
         21   -1    0    0  503  502  0.00000000000E+00  0.00000000000E+00  0.19679464603E+03  0.19679464603E+03  0.00000000000E+00 0. -1.
         21   -1    0    0  501  503 -0.00000000000E+00 -0.00000000000E+00 -0.50639504536E+03  0.50639504536E+03  0.00000000000E+00 0. -1.
          6    2    1    2  501    0  0.84121614681E+02  0.15647283971E+03 -0.37328439195E+03  0.44746018591E+03  0.17122845873E+03 0.  0.
         24    2    3    3    0    0  0.89334743526E+02  0.78949376591E+02 -0.13636378249E+03  0.19807989553E+03  0.80167720259E+02 0.  0.
         -6    2    1    2    0  502 -0.84121614681E+02 -0.15647283971E+03  0.63683992621E+02  0.25572950548E+03  0.17257384921E+03 0.  0.
        -24    2    5    5    0    0 -0.48358772588E+02 -0.18039760396E+03  0.64053825541E+02  0.21244438107E+03  0.78408265376E+02 0.  0.
          5    1    3    3  501    0 -0.52131288454E+01  0.77523463122E+02 -0.23692060946E+03  0.24938029039E+03  0.47000000000E+01 0. -1.
        -11    1    4    4    0    0  0.82290228704E+02  0.90231937089E+02 -0.95268590625E+02  0.15488572746E+03  0.00000000000E+00 0.  1.
         12    1    4    4    0    0  0.70445148224E+01 -0.11282560498E+02 -0.41095191867E+02  0.43194168067E+02  0.00000000000E+00 0. -1.
         -5    1    5    5    0  502 -0.35762842093E+02  0.23924764247E+02 -0.36983292056E+00  0.43285124411E+02  0.47000000000E+01 0.  1.
         11    1    6    6    0    0 -0.39315865454E+02 -0.72561660701E+02 -0.72565682874E+01  0.82846784267E+02  0.00000000000E+00 0. -1.
        -12    1    6    6    0    0 -0.90429071334E+01 -0.10783594326E+03  0.71310393829E+02  0.12959759680E+03  0.00000000000E+00 0.  1.
</event>
<event>
12    1  0.8344842E-002  0.1919726E+03  0.7818608E-02  0.1157166E+00
         21   -1    0    0  503  502  0.00000000000E+00  0.00000000000E+00  0.61825525441E+03  0.61825525441E+03  0.00000000000E+00 0. -1.
         21   -1    0    0  501  503 -0.00000000000E+00 -0.00000000000E+00 -0.92616626135E+02  0.92616626135E+02  0.00000000000E+00 0. -1.
          6    2    1    2  501    0 -0.36754293009E+02 -0.73118262486E+02  0.49466466786E+02  0.19824327596E+03  0.17365571330E+03 0.  0.
         24    2    3    3    0    0 -0.90182154550E+02 -0.33404568062E+02  0.23606706873E+02  0.12667141629E+03  0.78991676322E+02 0.  0.
         -6    2    1    2    0  502  0.36754293009E+02  0.73118262486E+02  0.47617216149E+03  0.51262860459E+03  0.17132133697E+03 0.  0.
        -24    2    5    5    0    0 -0.36482253430E+02  0.56832453036E+00  0.21822286180E+03  0.23480309021E+03  0.78612950271E+02 0.  0.
          5    1    3    3  501    0  0.53427861541E+02 -0.39713694424E+02  0.25859759913E+02  0.71571859668E+02  0.47000000000E+01 0. -1.
        -11    1    4    4    0    0 -0.74185418384E+02  0.12065846941E+02  0.22502657540E+02  0.78456552050E+02  0.00000000000E+00 0.  1.
         12    1    4    4    0    0 -0.15996736167E+02 -0.45470415003E+02  0.11040493332E+01  0.48214864238E+02  0.00000000000E+00 0. -1.
         -5    1    5    5    0  502  0.73236546439E+02  0.72549937955E+02  0.25794929969E+03  0.27782551438E+03  0.47000000000E+01 0.  1.
         11    1    6    6    0    0 -0.18265081304E+02 -0.13359884070E+01  0.21551011035E+03  0.21628685980E+03  0.00000000000E+00 0. -1.
        -12    1    6    6    0    0 -0.18217172125E+02  0.19043129374E+01  0.27127514519E+01  0.18516230406E+02  0.00000000000E+00 0.  1.
</event>
<event>
12    1  0.8344842E-002  0.1750312E+03  0.7818608E-02  0.1172782E+00
         21   -1    0    0  501  502  0.00000000000E+00  0.00000000000E+00  0.40914998530E+02  0.40914998530E+02  0.00000000000E+00 0.  1.
         21   -1    0    0  502  503 -0.00000000000E+00 -0.00000000000E+00 -0.79817579389E+03  0.79817579389E+03  0.00000000000E+00 0.  1.
         -6    2    1    2    0  503  0.14514584709E+02  0.23805951310E+02 -0.48479621443E+03  0.51542536068E+03  0.17279622802E+03 0.  0.
        -24    2    3    3    0    0  0.96588345389E+01 -0.52881401833E+02 -0.26869075993E+03  0.28601702189E+03  0.81983392178E+02 0.  0.
          6    2    1    2  501    0 -0.14514584709E+02 -0.23805951310E+02 -0.27246458093E+03  0.32366543174E+03  0.17246729358E+03 0.  0.
         24    2    5    5    0    0 -0.53926035636E+01 -0.54481717528E+02 -0.12302543957E+03  0.17076559477E+03  0.10501567436E+03 0.  0.
          5    1    5    5  501    0 -0.91219811450E+01  0.30675766218E+02 -0.14943914136E+03  0.15289983696E+03  0.47000000000E+01 0. -1.
        -11    1    6    6    0    0 -0.29780206469E+02 -0.48002025234E+02 -0.13232065119E+03  0.14387428490E+03  0.00000000000E+00 0.  1.
         12    1    6    6    0    0  0.24387602905E+02 -0.64796922940E+01  0.92952116240E+01  0.26891309875E+02  0.00000000000E+00 0. -1.
         -5    1    3    3    0  503  0.48557501697E+01  0.76687353143E+02 -0.21610545450E+03  0.22940833879E+03  0.47000000000E+01 0.  1.
         13    1    4    4    0    0  0.12429901212E+02 -0.41369770403E+02 -0.27059781106E+03  0.27402396920E+03  0.00000000000E+00 0. -1.
        -14    1    4    4    0    0 -0.27710666728E+01 -0.11511631430E+02  0.19070511296E+01  0.11993052685E+02  0.00000000000E+00 0.  1.
</event>
<event>
12    1  0.8344842E-002  0.2090355E+03  0.7818608E-02  0.1142719E+00
         21   -1    0    0  501  502  0.00000000000E+00  0.00000000000E+00  0.27678013124E+03  0.27678013124E+03  0.00000000000E+00 0. -1.
         21   -1    0    0  502  503 -0.00000000000E+00 -0.00000000000E+00 -0.15683561715E+03  0.15683561715E+03  0.00000000000E+00 0.  1.
         -6    2    1    2    0  503  0.11094575481E+03 -0.32421045571E+02  0.49022180199E+02  0.21470678794E+03  0.17417159910E+03 0.  0.
        -24    2    3    3    0    0  0.13737112469E+03 -0.50825402235E+02  0.64268405802E+02  0.17876853656E+03  0.79835545143E+02 0.  0.
          6    2    1    2  501    0 -0.11094575481E+03  0.32421045571E+02  0.70922333888E+02  0.21890896044E+03  0.17184606720E+03 0.  0.
         24    2    5    5    0    0 -0.37007735558E+01  0.35387179363E+02 -0.57100520235E+01  0.86981341938E+02  0.79165655199E+02 0.  0.
          5    1    5    5  501    0 -0.10724498125E+03 -0.29661337912E+01  0.76632385911E+02  0.13192761850E+03  0.47000000000E+01 0. -1.
        -11    1    6    6    0    0 -0.27693679192E+02  0.11189808183E+02 -0.32125591421E+02  0.43865764538E+02  0.00000000000E+00 0.  1.
         12    1    6    6    0    0  0.23992905636E+02  0.24197371179E+02  0.26415539397E+02  0.43115577400E+02  0.00000000000E+00 0. -1.
         -5    1    3    3    0  503 -0.26425369882E+02  0.18404356664E+02 -0.15246225603E+02  0.35938251387E+02  0.47000000000E+01 0.  1.
         11    1    4    4    0    0  0.12915655536E+03 -0.23984700809E+02  0.71799927311E+02  0.14970608280E+03  0.00000000000E+00 0. -1.
        -12    1    4    4    0    0  0.82145693299E+01 -0.26840701426E+02 -0.75315215088E+01  0.29062453760E+02  0.00000000000E+00 0.  1.
</event>
<event>
12    1  0.8344842E-002  0.1994200E+03  0.7818608E-02  0.1150534E+00
         21   -1    0    0  501  502  0.00000000000E+00  0.00000000000E+00  0.10749168770E+03  0.10749168770E+03  0.00000000000E+00 0.  1.
         21   -1    0    0  502  503 -0.00000000000E+00 -0.00000000000E+00 -0.36917996288E+03  0.36917996288E+03  0.00000000000E+00 0.  1.
         -6    2    1    2    0  503 -0.27457593926E+02  0.95364323401E+02 -0.14826539996E+03  0.24849742564E+03  0.17297418329E+03 0.  0.
        -24    2    3    3    0    0 -0.70669751596E+02  0.10431668986E+03 -0.89267481181E+02  0.17467141494E+03  0.81640886976E+02 0.  0.
          6    2    1    2  501    0  0.27457593926E+02 -0.95364323401E+02 -0.11342287522E+03  0.22817422494E+03  0.17131974393E+03 0.  0.
         24    2    5    5    0    0  0.76499312846E+02 -0.54785381379E+02 -0.10832314437E+03  0.16414424770E+03  0.79723569721E+02 0.  0.
          5    1    5    5  501    0 -0.49041718920E+02 -0.40578942022E+02 -0.50997308508E+01  0.64029977237E+02  0.47000000000E+01 0. -1.
        -11    1    6    6    0    0  0.91520346089E+02 -0.39999505929E+02 -0.75788105897E+02  0.12537851179E+03  0.00000000000E+00 0.  1.
         12    1    6    6    0    0 -0.15021033244E+02 -0.14785875450E+02 -0.32535038475E+02  0.38765735916E+02  0.00000000000E+00 0. -1.
         -5    1    3    3    0  503  0.43212157670E+02 -0.89523664634E+01 -0.58997918776E+02  0.73826010699E+02  0.47000000000E+01 0.  1.
         13    1    4    4    0    0  0.88571053154E+01  0.56212831131E+02 -0.39190995394E+02  0.69096055013E+02  0.00000000000E+00 0. -1.
        -14    1    4    4    0    0 -0.79526856911E+02  0.48103858733E+02 -0.50076485787E+02  0.10557535993E+03  0.00000000000E+00 0.  1.
</event>
<event>
12    1  0.8344842E-002  0.1758107E+03  0.7818608E-02  0.1172567E+00
         21   -1    0    0  501  502  0.00000000000E+00  0.00000000000E+00  0.29408587522E+02  0.29408587522E+02  0.00000000000E+00 0. -1.
         21   -1    0    0  502  503 -0.00000000000E+00 -0.00000000000E+00 -0.10609285248E+04  0.10609285248E+04  0.00000000000E+00 0. -1.
         -6    2    1    2    0  503  0.23116919886E+02  0.29314180118E+02 -0.59610381190E+03  0.62076646613E+03  0.16916718880E+03 0.  0.
        -24    2    3    3    0    0  0.33447265239E+02 -0.30540857806E+02 -0.20886996893E+03  0.22876967949E+03  0.81593129500E+02 0.  0.
          6    2    1    2  501    0 -0.23116919886E+02 -0.29314180118E+02 -0.43541612541E+03  0.46957064623E+03  0.17180127005E+03 0.  0.
         24    2    5    5    0    0 -0.44654460943E+02 -0.51869918991E+01 -0.11056283244E+03  0.14307755466E+03  0.78905772691E+02 0.  0.
          5    1    5    5  501    0  0.21537541057E+02 -0.24127188219E+02 -0.32485329297E+03  0.32649309156E+03  0.47000000000E+01 0. -1.
        -11    1    6    6    0    0  0.12977713990E+02  0.23185173659E+02 -0.33080354383E+02  0.42429744096E+02  0.00000000000E+00 0.  1.
         12    1    6    6    0    0 -0.57632174933E+02 -0.28372165558E+02 -0.77482478059E+02  0.10064781057E+03  0.00000000000E+00 0. -1.
         -5    1    3    3    0  503 -0.10330345353E+02  0.59855037924E+02 -0.38723384296E+03  0.39199678664E+03  0.47000000000E+01 0.  1.
         13    1    4    4    0    0  0.34409880578E+02  0.21898844726E+02 -0.86533854835E+02  0.95664556208E+02  0.00000000000E+00 0. -1.
        -14    1    4    4    0    0 -0.96261533948E+00 -0.52439702532E+02 -0.12233611410E+03  0.13310512328E+03  0.00000000000E+00 0.  1.
</event>
<event>
12    1  0.8344842E-002  0.1949556E+03  0.7818608E-02  0.1154744E+00
         21   -1    0    0  501  502  0.00000000000E+00  0.00000000000E+00  0.13374264060E+04  0.13374264060E+04  0.00000000000E+00 0. -1.
         21   -1    0    0  502  503 -0.00000000000E+00 -0.00000000000E+00 -0.39733601468E+02  0.39733601468E+02  0.00000000000E+00 0. -1.
         -6    2    1    2    0  503 -0.46321315337E+02 -0.71630256676E+02  0.27784309792E+03  0.33941785034E+03  0.17530297242E+03 0.  0.
        -24    2    3    3    0    0  0.19403498951E+02 -0.97189575395E-01  0.19782424120E+03  0.21347405997E+03  0.77847534671E+02 0.  0.
          6    2    1    2  501    0  0.46321315337E+02  0.71630256676E+02  0.10198497066E+04  0.10377421571E+04  0.17186856225E+03 0.  0.
         24    2    5    5    0    0  0.37853318842E+02  0.10878884358E+03  0.92121225248E+03  0.93189365736E+03  0.80782970255E+02 0.  0.
          5    1    5    5  501    0  0.84679964945E+01 -0.37158586907E+02  0.98637454144E+02  0.10584849978E+03  0.47000000000E+01 0. -1.
        -11    1    6    6    0    0  0.78201670653E+01  0.25903121639E+01  0.63569743883E+01  0.10405568385E+02  0.00000000000E+00 0.  1.
         12    1    6    6    0    0  0.30033151777E+02  0.10619853142E+03  0.91485527809E+03  0.92148808898E+03  0.00000000000E+00 0. -1.
         -5    1    3    3    0  503 -0.65724814287E+02 -0.71533067101E+02  0.80018856722E+02  0.12594379037E+03  0.47000000000E+01 0.  1.
         13    1    4    4    0    0  0.20979510495E+02 -0.31687820639E+02  0.52884415708E+02  0.65123108512E+02  0.00000000000E+00 0. -1.
        -14    1    4    4    0    0 -0.15760115447E+01  0.31590631064E+02  0.14493982549E+03  0.14835095145E+03  0.00000000000E+00 0.  1.
</event>
<event>
12    1  0.8344842E-002  0.1899597E+03  0.7818608E-02  0.1158504E+00
         21   -1    0    0  501  502  0.00000000000E+00  0.00000000000E+00  0.78460675873E+03  0.78460675873E+03  0.00000000000E+00 0.  1.
         21   -1    0    0  502  503 -0.00000000000E+00 -0.00000000000E+00 -0.66527189923E+02  0.66527189923E+02  0.00000000000E+00 0.  1.
         -6    2    1    2    0  503  0.64743160328E+02  0.51985726041E+02  0.12253898157E+03  0.22603132849E+03  0.17082203292E+03 0.  0.
        -24    2    3    3    0    0  0.25201647773E+02 -0.16967048967E+02  0.11832096689E+03  0.14629489990E+03  0.80494364578E+02 0.  0.
          6    2    1    2  501    0 -0.64743160328E+02 -0.51985726041E+02  0.59554058723E+03  0.62510262016E+03  0.17085228173E+03 0.  0.
         24    2    5    5    0    0 -0.77331077883E+02 -0.42761659686E+02  0.59716649376E+03  0.60872358965E+03  0.78281110026E+02 0.  0.
          5    1    5    5  501    0  0.12587917555E+02 -0.92240663544E+01 -0.16259065231E+01  0.16379030512E+02  0.47000000000E+01 0. -1.
        -13    1    6    6    0    0 -0.46708303307E+02 -0.64040508876E+02  0.44858561974E+03  0.45553475236E+03  0.00000000000E+00 0.  1.
         14    1    6    6    0    0 -0.30622774576E+02  0.21278849190E+02  0.14858087402E+03  0.15318883729E+03  0.00000000000E+00 0. -1.
         -5    1    3    3    0  503  0.39541512555E+02  0.68952775007E+02  0.42180146780E+01  0.79736428589E+02  0.47000000000E+01 0.  1.
         13    1    4    4    0    0  0.35499093632E+02 -0.28369010606E+02  0.12226199447E+03  0.13043382116E+03  0.00000000000E+00 0. -1.
        -14    1    4    4    0    0 -0.10297445859E+02  0.11401961639E+02 -0.39410275730E+01  0.15861078739E+02  0.00000000000E+00 0.  1.
</event>
<event>
12    1  0.8344842E-002  0.2806266E+03  0.7818608E-02  0.1095375E+00
         21   -1    0    0  501  502  0.00000000000E+00  0.00000000000E+00  0.66972390518E+02  0.66972390518E+02  0.00000000000E+00 0. -1.
         21   -1    0    0  502  503 -0.00000000000E+00 -0.00000000000E+00 -0.13114971616E+04  0.13114971616E+04  0.00000000000E+00 0.  1.
         -6    2    1    2    0  503  0.10106437910E+03  0.19702902888E+03 -0.84480030372E+03  0.89019035159E+03  0.17238579398E+03 0.  0.
        -24    2    3    3    0    0  0.51826401278E+02  0.48567585309E+02 -0.27157063375E+03  0.29598540108E+03  0.93872052945E+02 0.  0.
          6    2    1    2  501    0 -0.10106437910E+03 -0.19702902888E+03 -0.39972446737E+03  0.48827920053E+03  0.17205371519E+03 0.  0.
         24    2    5    5    0    0 -0.13178045029E+02 -0.14856552041E+03 -0.18085827289E+03  0.24745307973E+03  0.79233434064E+02 0.  0.
          5    1    5    5  501    0 -0.87886334071E+02 -0.48463508471E+02 -0.21886619448E+03  0.24082612079E+03  0.47000000000E+01 0. -1.
        -13    1    6    6    0    0 -0.42322058265E+00 -0.49232088181E+02 -0.12135235925E+03  0.13095943157E+03  0.00000000000E+00 0.  1.
         14    1    6    6    0    0 -0.12754824446E+02 -0.99333432226E+02 -0.59505913640E+02  0.11649364816E+03  0.00000000000E+00 0. -1.
         -5    1    3    3    0  503  0.49237977822E+02  0.14846144357E+03 -0.57322966996E+03  0.59420495051E+03  0.47000000000E+01 0.  1.
         11    1    4    4    0    0  0.28745540037E+02  0.71699434123E+02 -0.23279610928E+03  0.24527768635E+03  0.00000000000E+00 0. -1.
        -12    1    4    4    0    0  0.23080861241E+02 -0.23131848814E+02 -0.38774524477E+02  0.50707714734E+02  0.00000000000E+00 0.  1.
</event>
<event>
12    1  0.8344842E-002  0.3079554E+03  0.7818608E-02  0.1081477E+00
         21   -1    0    0  503  502  0.00000000000E+00  0.00000000000E+00  0.80101081034E+03  0.80101081034E+03  0.00000000000E+00 0.  1.
         21   -1    0    0  501  503 -0.00000000000E+00 -0.00000000000E+00 -0.14452331772E+03  0.14452331772E+03  0.00000000000E+00 0. -1.
          6    2    1    2  501    0 -0.10884280414E+03 -0.23191115681E+03  0.12491782221E+03  0.33120292846E+03  0.16870499947E+03 0.  0.
         24    2    3    3    0    0 -0.34286146109E+02 -0.70059517486E+02 -0.65060637580E+01  0.10973289389E+03  0.76909708946E+02 0.  0.
         -6    2    1    2    0  502  0.10884280414E+03  0.23191115681E+03  0.53156967041E+03  0.61433119960E+03  0.17090046117E+03 0.  0.
        -24    2    5    5    0    0  0.67602351284E+02  0.10035753612E+03  0.39241084864E+03  0.41838631514E+03  0.80119420917E+02 0.  0.
          5    1    3    3  501    0 -0.74556658034E+02 -0.16185163933E+03  0.13142388596E+03  0.22147003457E+03  0.47000000000E+01 0. -1.
        -11    1    4    4    0    0 -0.90207802127E+01  0.43220458514E+01  0.23579447731E+02  0.25613373681E+02  0.00000000000E+00 0.  1.
         12    1    4    4    0    0 -0.25265365896E+02 -0.74381563338E+02 -0.30085511489E+02  0.84119520208E+02  0.00000000000E+00 0. -1.
         -5    1    5    5    0  502  0.41240452859E+02  0.13155362069E+03  0.13915882178E+03  0.19594488446E+03  0.47000000000E+01 0.  1.
         13    1    6    6    0    0  0.34507224697E+02  0.57035369314E+02  0.95212188996E+02  0.11622883826E+03  0.00000000000E+00 0. -1.
        -14    1    6    6    0    0  0.33095126587E+02  0.43322166810E+02  0.29719865964E+03  0.30215747688E+03  0.00000000000E+00 0.  1.
</event>
<event>
12    1  0.8344842E-002  0.3470890E+03  0.7818608E-02  0.1063864E+00
         21   -1    0    0  501  502  0.00000000000E+00  0.00000000000E+00  0.29526394887E+03  0.29526394887E+03  0.00000000000E+00 0. -1.
         21   -1    0    0  502  503 -0.00000000000E+00 -0.00000000000E+00 -0.45953827107E+03  0.45953827107E+03  0.00000000000E+00 0.  1.
         -6    2    1    2    0  503  0.12713400222E+03  0.27341684375E+03 -0.20911992150E+03  0.40482805249E+03  0.17098182813E+03 0.  0.
        -24    2    3    3    0    0  0.34129655305E+01  0.47490777908E+02 -0.58947470569E+02  0.10662788957E+03  0.75017866059E+02 0.  0.
          6    2    1    2  501    0 -0.12713400222E+03 -0.27341684375E+03  0.44845599304E+02  0.34997416744E+03  0.17190394159E+03 0.  0.
         24    2    5    5    0    0 -0.97017135393E+02 -0.22485416357E+03 -0.26118674041E+02  0.25874162026E+03  0.79330457505E+02 0.  0.
          5    1    5    5  501    0 -0.30116866831E+02 -0.48562680183E+02  0.70964273346E+02  0.91232547184E+02  0.47000000000E+01 0. -1.
        -11    1    6    6    0    0 -0.59566445454E+02 -0.50413029396E+02  0.23347604581E+01  0.78071032165E+02  0.00000000000E+00 0.  1.
         12    1    6    6    0    0 -0.37450689939E+02 -0.17444113417E+03 -0.28453434499E+02  0.18067058810E+03  0.00000000000E+00 0. -1.
         -5    1    3    3    0  503  0.12372103669E+03  0.22592606584E+03 -0.15017245093E+03  0.29820016292E+03  0.47000000000E+01 0.  1.
         11    1    4    4    0    0 -0.27750211375E+02  0.32857328992E+01 -0.41049233468E+02  0.49657928273E+02  0.00000000000E+00 0. -1.
        -12    1    4    4    0    0  0.31163176906E+02  0.44205045008E+02 -0.17898237101E+02  0.56969961299E+02  0.00000000000E+00 0.  1.
</event>
<event>
12    1  0.8344842E-002  0.1964333E+03  0.7818608E-02  0.1152953E+00
         21   -1    0    0  501  502  0.00000000000E+00  0.00000000000E+00  0.48777862745E+03  0.48777862745E+03  0.00000000000E+00 0.  1.
         21   -1    0    0  502  503 -0.00000000000E+00 -0.00000000000E+00 -0.80631111085E+02  0.80631111085E+02  0.00000000000E+00 0.  1.
         -6    2    1    2    0  503  0.16439397626E+02 -0.93138051397E+02  0.16023653633E+03  0.25289258261E+03  0.17127159822E+03 0.  0.
        -24    2    3    3    0    0  0.61404773630E+02 -0.38671566489E+02  0.43574810710E+02  0.11643551522E+03  0.79952665982E+02 0.  0.
          6    2    1    2  501    0 -0.16439397626E+02  0.93138051397E+02  0.24691098004E+03  0.31551715592E+03  0.17216588862E+03 0.  0.
         24    2    5    5    0    0 -0.13037286822E+02  0.52437964290E+02  0.38631613745E+02  0.10321912043E+03  0.79006799047E+02 0.  0.
          5    1    5    5  501    0 -0.34021108042E+01  0.40700087107E+02  0.20827936629E+03  0.21229803549E+03  0.47000000000E+01 0. -1.
        -11    1    6    6    0    0 -0.42460609785E+02  0.22316078112E+02  0.30048494646E+01  0.48061833568E+02  0.00000000000E+00 0.  1.
         12    1    6    6    0    0  0.29423322963E+02  0.30121886178E+02  0.35626764280E+02  0.55157286864E+02  0.00000000000E+00 0. -1.
         -5    1    3    3    0  503 -0.44965376005E+02 -0.54466484908E+02  0.11666172562E+03  0.13645706739E+03  0.47000000000E+01 0.  1.
         13    1    4    4    0    0  0.64247959680E+01  0.22117440508E+02 -0.11550981081E+01  0.23060646771E+02  0.00000000000E+00 0. -1.
        -14    1    4    4    0    0  0.54979977662E+02 -0.60789006998E+02  0.44729908819E+02  0.93374868452E+02  0.00000000000E+00 0.  1.
</event>
<event>
12    1  0.8344842E-002  0.2199584E+03  0.7818608E-02  0.1134139E+00
         21   -1    0    0  503  502  0.00000000000E+00  0.00000000000E+00  0.76855981202E+02  0.76855981202E+02  0.00000000000E+00 0.  1.
         21   -1    0    0  501  503 -0.00000000000E+00 -0.00000000000E+00 -0.11324818960E+04  0.11324818960E+04  0.00000000000E+00 0.  1.
          6    2    1    2  501    0  0.76441493523E+02  0.11176941618E+03 -0.93296158345E+03  0.95854004936E+03  0.17333783697E+03 0.  0.
         24    2    3    3    0    0 -0.63551102620E+01  0.29434980877E+00 -0.38721142085E+03  0.39538172527E+03  0.79709159918E+02 0.  0.
         -6    2    1    2    0  502 -0.76441493523E+02 -0.11176941618E+03 -0.12266433131E+03  0.25079782780E+03  0.17180601831E+03 0.  0.
        -24    2    5    5    0    0  0.26348615391E+01 -0.34838283321E+01 -0.69680472769E+02  0.10654728974E+03  0.80485260200E+02 0.  0.
          5    1    3    3  501    0  0.82796603785E+02  0.11147506637E+03 -0.54575016260E+03  0.56315832410E+03  0.47000000000E+01 0. -1.
        -11    1    4    4    0    0  0.93655932379E+00 -0.18871385803E+01 -0.38774623380E+03  0.38775195713E+03  0.00000000000E+00 0.  1.
         12    1    4    4    0    0 -0.72916695858E+01  0.21814883890E+01  0.53481295106E+00  0.76297681375E+01  0.00000000000E+00 0. -1.
         -5    1    5    5    0  502 -0.79076355062E+02 -0.10828558785E+03 -0.52983858544E+02  0.14425053806E+03  0.47000000000E+01 0.  1.
         13    1    6    6    0    0 -0.36615240780E+02  0.11343000397E+02 -0.37976505741E+02  0.53958822297E+02  0.00000000000E+00 0. -1.
        -14    1    6    6    0    0  0.39250102319E+02 -0.14826828729E+02 -0.31703967028E+02  0.52588467438E+02  0.00000000000E+00 0.  1.
</event>
<event>
12    1  0.8344842E-002  0.1934078E+03  0.7818608E-02  0.1155511E+00
         21   -1    0    0  503  502  0.00000000000E+00  0.00000000000E+00  0.24542062679E+03  0.24542062679E+03  0.00000000000E+00 0. -1.
         21   -1    0    0  501  503 -0.00000000000E+00 -0.00000000000E+00 -0.42454007078E+03  0.42454007078E+03  0.00000000000E+00 0. -1.
          6    2    1    2  501    0 -0.52862016458E+02  0.71294726278E+02 -0.35787041517E+03  0.40660073712E+03  0.17139309961E+03 0.  0.
         24    2    3    3    0    0 -0.30343894370E+02  0.66689959429E+02 -0.10227583974E+03  0.14993179336E+03  0.81553005172E+02 0.  0.
         -6    2    1    2    0  502  0.52862016458E+02 -0.71294726278E+02  0.17875097118E+03  0.26335996045E+03  0.17184070615E+03 0.  0.
        -24    2    5    5    0    0  0.92509219630E+02 -0.32960412285E+02  0.16217361717E+03  0.20558177240E+03  0.79493638376E+02 0.  0.
          5    1    3    3  501    0 -0.22518122088E+02  0.46047668496E+01 -0.25559457543E+03  0.25666894376E+03  0.47000000000E+01 0. -1.
        -13    1    4    4    0    0  0.93853716915E+01  0.92863103485E+01  0.10789399555E+02  0.17050862278E+02  0.00000000000E+00 0.  1.
         14    1    4    4    0    0 -0.39729266062E+02  0.57403649080E+02 -0.11306523929E+03  0.13288093108E+03  0.00000000000E+00 0. -1.
         -5    1    5    5    0  502 -0.39647203172E+02 -0.38334313993E+02  0.16577354015E+02  0.57778188054E+02  0.47000000000E+01 0.  1.
         11    1    6    6    0    0  0.10479121804E+03 -0.24194221565E+02  0.12183122311E+03  0.16250971251E+03  0.00000000000E+00 0. -1.
        -12    1    6    6    0    0 -0.12281998410E+02 -0.87661907206E+01  0.40342394057E+02  0.43072059888E+02  0.00000000000E+00 0.  1.
</event>
<event>
12    1  0.8344842E-002  0.3476801E+03  0.7818608E-02  0.1063757E+00
         21   -1    0    0  501  502  0.00000000000E+00  0.00000000000E+00  0.10070525154E+04  0.10070525154E+04  0.00000000000E+00 0. -1.
         21   -1    0    0  502  503 -0.00000000000E+00 -0.00000000000E+00 -0.12180913549E+03  0.12180913549E+03  0.00000000000E+00 0.  1.
         -6    2    1    2    0  503  0.29374257884E+03 -0.68184450203E+02  0.52059992396E+03  0.62503000096E+03  0.16942372740E+03 0.  0.
        -24    2    3    3    0    0  0.20218619143E+03  0.89256979414E+01  0.39937507487E+03  0.45460083368E+03  0.78756228148E+02 0.  0.
          6    2    1    2  501    0 -0.29374257884E+03  0.68184450203E+02  0.36464345600E+03  0.50383164998E+03  0.17305392121E+03 0.  0.
         24    2    5    5    0    0 -0.59840655492E+02  0.16055655653E+02  0.15537361091E+03  0.18564384533E+03  0.80523227779E+02 0.  0.
          5    1    5    5  501    0 -0.23390192334E+03  0.52128794550E+02  0.20926984508E+03  0.31818780465E+03  0.47000000000E+01 0. -1.
        -13    1    6    6    0    0 -0.19716278852E+02 -0.42914502285E+01 -0.35388764664E+01  0.20485893768E+02  0.00000000000E+00 0.  1.
         14    1    6    6    0    0 -0.40124376640E+02  0.20347105882E+02  0.15891248738E+03  0.16515795156E+03  0.00000000000E+00 0. -1.
         -5    1    3    3    0  503  0.91556387409E+02 -0.77110148145E+02  0.12122484909E+03  0.17042916728E+03  0.47000000000E+01 0.  1.
         11    1    4    4    0    0  0.68725013955E+02  0.40219250120E+02  0.13275126669E+03  0.15480185538E+03  0.00000000000E+00 0. -1.
        -12    1    4    4    0    0  0.13346117747E+03 -0.31293552179E+02  0.26662380818E+03  0.29979897830E+03  0.00000000000E+00 0.  1.
</event>
<event>
12    1  0.8344842E-002  0.1747597E+03  0.7818608E-02  0.1173052E+00
         21   -1    0    0  501  502  0.00000000000E+00  0.00000000000E+00  0.19787551950E+03  0.19787551950E+03  0.00000000000E+00 0. -1.
         21   -1    0    0  502  503 -0.00000000000E+00 -0.00000000000E+00 -0.31309452712E+03  0.31309452712E+03  0.00000000000E+00 0. -1.
         -6    2    1    2    0  503 -0.43836112437E+01  0.31187326038E+02 -0.23966356596E+03  0.29643005669E+03  0.17158172487E+03 0.  0.
        -24    2    3    3    0    0 -0.50460630248E+02  0.34120595495E+02 -0.22739732041E+03  0.24842748874E+03  0.79348507180E+02 0.  0.
          6    2    1    2  501    0  0.43836112437E+01 -0.31187326038E+02  0.12444455835E+03  0.21453998993E+03  0.17189849860E+03 0.  0.
         24    2    5    5    0    0  0.31665552361E+02  0.41749004927E+02  0.80014228209E+02  0.12476161323E+03  0.80109280368E+02 0.  0.
          5    1    5    5  501    0 -0.27281941117E+02 -0.72936330964E+02  0.44430330143E+02  0.89778376696E+02  0.47000000000E+01 0. -1.
        -13    1    6    6    0    0  0.53977463298E+02  0.20480012447E+02  0.27682051115E+02  0.64025724579E+02  0.00000000000E+00 0.  1.
         14    1    6    6    0    0 -0.22311910937E+02  0.21268992480E+02  0.52332177094E+02  0.60735888650E+02  0.00000000000E+00 0. -1.
         -5    1    3    3    0  503  0.46077019005E+02 -0.29332694572E+01 -0.12266245557E+02  0.48002567953E+02  0.47000000000E+01 0.  1.
         13    1    4    4    0    0  0.10367808500E+02  0.15677181033E+02 -0.13485464604E+03  0.13615814708E+03  0.00000000000E+00 0. -1.
        -14    1    4    4    0    0 -0.60828438748E+02  0.18443414462E+02 -0.92542674370E+02  0.11226934166E+03  0.00000000000E+00 0.  1.
</event>
<event>
12    1  0.8344842E-002  0.1961558E+03  0.7818608E-02  0.1153061E+00
         21   -1    0    0  501  502  0.00000000000E+00  0.00000000000E+00  0.52137764843E+02  0.52137764843E+02  0.00000000000E+00 0.  1.
         21   -1    0    0  502  503 -0.00000000000E+00 -0.00000000000E+00 -0.74396183931E+03  0.74396183931E+03  0.00000000000E+00 0.  1.
         -6    2    1    2    0  503  0.26092605243E+02  0.88811783370E+02 -0.38334122741E+03  0.43053324835E+03  0.17274265364E+03 0.  0.
        -24    2    3    3    0    0  0.22141423707E+02  0.29410391061E+02 -0.72353524329E+02  0.11386373811E+03  0.79841747403E+02 0.  0.
          6    2    1    2  501    0 -0.26092605243E+02 -0.88811783370E+02 -0.30848284706E+03  0.36556635581E+03  0.17294142551E+03 0.  0.
         24    2    5    5    0    0 -0.36284002600E+02 -0.11825355787E+03 -0.29521311607E+03  0.33137778423E+03  0.85790554208E+02 0.  0.
          5    1    5    5  501    0  0.10191397357E+02  0.29441774501E+02 -0.13269730993E+02  0.34188571577E+02  0.47000000000E+01 0. -1.
        -13    1    6    6    0    0  0.73618347324E+01 -0.35097039636E+02 -0.21065901397E+02  0.41590515788E+02  0.00000000000E+00 0.  1.
         14    1    6    6    0    0 -0.43645837332E+02 -0.83156518234E+02 -0.27414721467E+03  0.28978726845E+03  0.00000000000E+00 0. -1.
         -5    1    3    3    0  503  0.39511815364E+01  0.59401392309E+02 -0.31098770308E+03  0.31666951023E+03  0.47000000000E+01 0.  1.
         13    1    4    4    0    0  0.32798082258E+02  0.50826474565E+02 -0.65104140025E+02  0.88868407012E+02  0.00000000000E+00 0. -1.
        -14    1    4    4    0    0 -0.10656658551E+02 -0.21416083504E+02 -0.72493843044E+01  0.24995331102E+02  0.00000000000E+00 0.  1.
</event>
<event>
12    1  0.8344842E-002  0.1964834E+03  0.7818608E-02  0.1152773E+00
         21   -1    0    0  501  502  0.00000000000E+00  0.00000000000E+00  0.30837826446E+03  0.30837826446E+03  0.00000000000E+00 0. -1.
         21   -1    0    0  502  503 -0.00000000000E+00 -0.00000000000E+00 -0.24466281749E+03  0.24466281749E+03  0.00000000000E+00 0.  1.
         -6    2    1    2    0  503  0.80414531740E+02  0.50409457806E+02 -0.16145759543E+03  0.25419558681E+03  0.17186980793E+03 0.  0.
        -24    2    3    3    0    0  0.77965078235E+02 -0.25752253162E+02 -0.68509346341E+02  0.13391228352E+03  0.80605441352E+02 0.  0.
          6    2    1    2  501    0 -0.80414531740E+02 -0.50409457806E+02  0.22517304239E+03  0.29884549515E+03  0.17204104335E+03 0.  0.
         24    2    5    5    0    0 -0.20749596814E+02  0.32068214599E+02  0.65815035732E+02  0.10969070353E+03  0.79003261686E+02 0.  0.
          5    1    5    5  501    0 -0.59664934926E+02 -0.82477672405E+02  0.15935800666E+03  0.18915479162E+03  0.47000000000E+01 0. -1.
        -11    1    6    6    0    0  0.60970682586E+01  0.27341854551E+02 -0.95109883876E+01  0.29583950915E+02  0.00000000000E+00 0.  1.
         12    1    6    6    0    0 -0.26846665072E+02  0.47263600475E+01  0.75326024120E+02  0.80106752615E+02  0.00000000000E+00 0. -1.
         -5    1    3    3    0  503  0.24494535049E+01  0.76161710968E+02 -0.92948249086E+02  0.12028330328E+03  0.47000000000E+01 0.  1.
         11    1    4    4    0    0  0.81167193314E+02 -0.55412859106E+01 -0.23837174422E+02  0.84776352861E+02  0.00000000000E+00 0. -1.
        -12    1    4    4    0    0 -0.32021150785E+01 -0.20210967251E+02 -0.44672171920E+02  0.49135930664E+02  0.00000000000E+00 0.  1.
</event>
<event>
12    1  0.8344842E-002  0.1926900E+03  0.7818608E-02  0.1158975E+00
         21   -1    0    0  503  502  0.00000000000E+00  0.00000000000E+00  0.24234564635E+04  0.24234564635E+04  0.00000000000E+00 0. -1.
         21   -1    0    0  501  503 -0.00000000000E+00 -0.00000000000E+00 -0.22267020394E+02  0.22267020394E+02  0.00000000000E+00 0. -1.
          6    2    1    2  501    0 -0.28400077081E+00 -0.57010972649E+02  0.44431117225E+03  0.47938119310E+03  0.17071490519E+03 0.  0.
         24    2    3    3    0    0  0.10865823788E+02 -0.24141233017E+02  0.43574978209E+03  0.44332393624E+03  0.77184030662E+02 0.  0.
         -6    2    1    2    0  502  0.28400077081E+00  0.57010972649E+02  0.19568782708E+04  0.19663422908E+04  0.18406277721E+03 0.  0.
        -24    2    5    5    0    0  0.54057252996E+01 -0.36175905029E+02  0.12960011549E+04  0.12988914098E+04  0.78498298097E+02 0.  0.
          5    1    3    3  501    0 -0.11149824559E+02 -0.32869739632E+02  0.85613901589E+01  0.36057256865E+02  0.47000000000E+01 0. -1.
        -11    1    4    4    0    0 -0.21774189375E+02 -0.39802229835E+02  0.24795026267E+03  0.25206678793E+03  0.00000000000E+00 0.  1.
         12    1    4    4    0    0  0.32640013164E+02  0.15660996818E+02  0.18779951943E+03  0.19125714830E+03  0.00000000000E+00 0. -1.
         -5    1    5    5    0  502 -0.51217245288E+01  0.93186877678E+02  0.66087711589E+03  0.66745088100E+03  0.47000000000E+01 0.  1.
         13    1    6    6    0    0  0.16664127040E+02 -0.21442460804E+02  0.12309396709E+04  0.12312391911E+04  0.00000000000E+00 0. -1.
        -14    1    6    6    0    0 -0.11258401740E+02 -0.14733444225E+02  0.65061484025E+02  0.67652218677E+02  0.00000000000E+00 0.  1.
</event>
<event>
12    1  0.8344842E-002  0.2297603E+03  0.7818608E-02  0.1127168E+00
         21   -1    0    0  503  502  0.00000000000E+00  0.00000000000E+00  0.48414724485E+03  0.48414724485E+03  0.00000000000E+00 0. -1.
         21   -1    0    0  501  503 -0.00000000000E+00 -0.00000000000E+00 -0.16834949259E+03  0.16834949259E+03  0.00000000000E+00 0.  1.
          6    2    1    2  501    0 -0.15025890232E+03 -0.19591711295E+02 -0.37762425475E+02  0.23083977040E+03  0.16999831159E+03 0.  0.
         24    2    3    3    0    0 -0.17691304433E+03 -0.13087552563E+01 -0.36641393339E+02  0.19815863700E+03  0.81389898756E+02 0.  0.
         -6    2    1    2    0  502  0.15025890232E+03  0.19591711295E+02  0.35356017774E+03  0.42165696704E+03  0.17270849919E+03 0.  0.
        -24    2    5    5    0    0  0.17492659606E+03  0.13200514122E+02  0.34431596760E+03  0.39414537063E+03  0.77611339798E+02 0.  0.
          5    1    3    3  501    0  0.26654142000E+02 -0.18282956039E+02 -0.11210321362E+01  0.32681133401E+02  0.47000000000E+01 0. -1.
        -11    1    4    4    0    0 -0.10788403844E+03  0.22675074122E+02 -0.54432541885E+02  0.12294725029E+03  0.00000000000E+00 0.  1.
         12    1    4    4    0    0 -0.69029005884E+02 -0.23983829378E+02  0.17791148546E+02  0.75211386715E+02  0.00000000000E+00 0. -1.
         -5    1    5    5    0  502 -0.24667693740E+02  0.63911971732E+01  0.92442101386E+01  0.27511596406E+02  0.47000000000E+01 0.  1.
         13    1    6    6    0    0  0.61757384154E+02 -0.12273204710E+02  0.19592727844E+03  0.20579626937E+03  0.00000000000E+00 0. -1.
        -14    1    6    6    0    0  0.11316921191E+03  0.25473718832E+02  0.14838868916E+03  0.18834910126E+03  0.00000000000E+00 0.  1.
</event>
<event>
12    1  0.8344842E-002  0.2764546E+03  0.7818608E-02  0.1097778E+00
         21   -1    0    0  503  502  0.00000000000E+00  0.00000000000E+00  0.73471690503E+02  0.73471690503E+02  0.00000000000E+00 0.  1.
         21   -1    0    0  501  503 -0.00000000000E+00 -0.00000000000E+00 -0.10428178513E+04  0.10428178513E+04  0.00000000000E+00 0. -1.
          6    2    1    2  501    0 -0.66992042246E+02  0.20493218625E+03 -0.52715096706E+03  0.59478811129E+03  0.17146317555E+03 0.  0.
         24    2    3    3    0    0  0.20393080653E+02  0.51510035100E+02 -0.15674144953E+03  0.18442264387E+03  0.79841518764E+02 0.  0.
         -6    2    1    2    0  502  0.66992042246E+02 -0.20493218625E+03 -0.44219519370E+03  0.52150143048E+03  0.17303762010E+03 0.  0.
        -24    2    5    5    0    0  0.50972034252E+02 -0.34170226324E+02 -0.20240873299E+03  0.22665244480E+03  0.81463383799E+02 0.  0.
          5    1    3    3  501    0 -0.87385122898E+02  0.15342215115E+03 -0.37040951754E+03  0.41036546742E+03  0.47000000000E+01 0. -1.
        -13    1    4    4    0    0 -0.68271875961E+01  0.42994744175E+02 -0.26216497493E+02  0.50817942284E+02  0.00000000000E+00 0.  1.
         14    1    4    4    0    0  0.27220268249E+02  0.85152909243E+01 -0.13052495203E+03  0.13360470159E+03  0.00000000000E+00 0. -1.
         -5    1    5    5    0  502  0.16020007993E+02 -0.17076195993E+03 -0.23978646071E+03  0.29484898568E+03  0.47000000000E+01 0.  1.
         13    1    6    6    0    0  0.47204777154E+02 -0.59444935897E+02 -0.14088988700E+03  0.16003734455E+03  0.00000000000E+00 0. -1.
        -14    1    6    6    0    0  0.37672570980E+01  0.25274709573E+02 -0.61518845988E+02  0.66615100253E+02  0.00000000000E+00 0.  1.
</event>
<event>
12    1  0.8344842E-002  0.1817424E+03  0.7818608E-02  0.1166195E+00
         21   -1    0    0  501  502  0.00000000000E+00  0.00000000000E+00  0.39243577860E+03  0.39243577860E+03  0.00000000000E+00 0.  1.
         21   -1    0    0  502  503 -0.00000000000E+00 -0.00000000000E+00 -0.95705683156E+02  0.95705683156E+02  0.00000000000E+00 0.  1.
         -6    2    1    2    0  503 -0.34324562620E+02 -0.44726259188E+02  0.23348965718E+03  0.29571051643E+03  0.17247804399E+03 0.  0.
        -24    2    3    3    0    0 -0.56552123910E+02  0.41245229685E+02  0.11173889410E+03  0.14494414190E+03  0.60198937903E+02 0.  0.
          6    2    1    2  501    0  0.34324562620E+02  0.44726259188E+02  0.63240438269E+02  0.19243094533E+03  0.17277645044E+03 0.  0.
         24    2    5    5    0    0  0.96349981355E+00  0.26773939941E+02  0.10610205798E+03  0.13503360461E+03  0.79111664591E+02 0.  0.
          5    1    5    5  501    0  0.33361062806E+02  0.17952319247E+02 -0.42861619707E+02  0.57397340721E+02  0.47000000000E+01 0. -1.
        -11    1    6    6    0    0 -0.17183560841E+02 -0.21368235107E+02  0.59927228840E+02  0.65902571962E+02  0.00000000000E+00 0.  1.
         12    1    6    6    0    0  0.18147060654E+02  0.48142175048E+02  0.46174829136E+02  0.69131032645E+02  0.00000000000E+00 0. -1.
         -5    1    3    3    0  503  0.22227561290E+02 -0.85971488874E+02  0.12175076307E+03  0.15076637453E+03  0.47000000000E+01 0.  1.
         13    1    4    4    0    0 -0.13137853826E+02 -0.14907943994E+02  0.36167657232E+02  0.41266807811E+02  0.00000000000E+00 0. -1.
        -14    1    4    4    0    0 -0.43414270084E+02  0.56153173679E+02  0.75571236869E+02  0.10367733409E+03  0.00000000000E+00 0.  1.
</event>
<event>
12    1  0.8344842E-002  0.1983649E+03  0.7818608E-02  0.1151254E+00
         21   -1    0    0  503  502  0.00000000000E+00  0.00000000000E+00  0.15988544938E+03  0.15988544938E+03  0.00000000000E+00 0. -1.
         21   -1    0    0  501  503 -0.00000000000E+00 -0.00000000000E+00 -0.25611216977E+03  0.25611216977E+03  0.00000000000E+00 0. -1.
          6    2    1    2  501    0 -0.84691609389E+02 -0.48634102465E+02 -0.90796660150E+02  0.21815742316E+03  0.17265770519E+03 0.  0.
         24    2    3    3    0    0 -0.15869837895E+02  0.95183442722E-01  0.14234144173E+02  0.83381537361E+02  0.80610229485E+02 0.  0.
         -6    2    1    2    0  502  0.84691609389E+02  0.48634102465E+02 -0.54300602388E+01  0.19784019599E+03  0.17196893025E+03 0.  0.
        -24    2    5    5    0    0  0.63666785305E+02 -0.15446262648E+02  0.46299243819E+02  0.11271471614E+03  0.79176642238E+02 0.  0.
          5    1    3    3  501    0 -0.68821771494E+02 -0.48729285908E+02 -0.10503080432E+03  0.13477588580E+03  0.47000000000E+01 0. -1.
        -13    1    4    4    0    0 -0.17891612536E+02  0.38654379826E+02  0.13776166006E+02  0.44766657556E+02  0.00000000000E+00 0.  1.
         14    1    4    4    0    0  0.20217746410E+01 -0.38559196383E+02  0.45797816656E+00  0.38614879806E+02  0.00000000000E+00 0. -1.
         -5    1    5    5    0  502  0.21024824085E+02  0.64080365113E+02 -0.51729304058E+02  0.85125479847E+02  0.47000000000E+01 0.  1.
         13    1    6    6    0    0  0.51323418671E+02  0.27334759859E+02  0.23855572162E+02  0.62851974701E+02  0.00000000000E+00 0. -1.
        -14    1    6    6    0    0  0.12343366633E+02 -0.42781022507E+02  0.22443671656E+02  0.49862741441E+02  0.00000000000E+00 0.  1.
</event>
<event>
12    1  0.8344842E-002  0.1880945E+03  0.7818608E-02  0.1160620E+00
         21   -1    0    0  501  502  0.00000000000E+00  0.00000000000E+00  0.80851665042E+03  0.80851665042E+03  0.00000000000E+00 0. -1.
         21   -1    0    0  502  503 -0.00000000000E+00 -0.00000000000E+00 -0.93002236020E+02  0.93002236020E+02  0.00000000000E+00 0. -1.
         -6    2    1    2    0  503  0.69819191852E+02  0.11047216046E+01  0.29151570934E+02  0.19034014701E+03  0.17465284857E+03 0.  0.
        -24    2    3    3    0    0  0.38043981102E+02  0.15942021820E+02 -0.50912395521E+02  0.10280650650E+03  0.79218767999E+02 0.  0.
          6    2    1    2  501    0 -0.69819191852E+02 -0.11047216046E+01  0.68636284347E+03  0.71117873943E+03  0.17264213439E+03 0.  0.
         24    2    5    5    0    0  0.29562757387E+02  0.15168115126E+02  0.29356433670E+03  0.30564904388E+03  0.78340857200E+02 0.  0.
          5    1    5    5  501    0 -0.99381949239E+02 -0.16272836731E+02  0.39279850677E+03  0.40552969555E+03  0.47000000000E+01 0. -1.
        -13    1    6    6    0    0 -0.78143344157E+01  0.27792728928E+02  0.22252583068E+03  0.22439083074E+03  0.00000000000E+00 0.  1.
         14    1    6    6    0    0  0.37377091803E+02 -0.12624613802E+02  0.71038506018E+02  0.81258213139E+02  0.00000000000E+00 0. -1.
         -5    1    3    3    0  503  0.31775210751E+02 -0.14837300215E+02  0.80063966455E+02  0.87533640507E+02  0.47000000000E+01 0.  1.
         11    1    4    4    0    0  0.30607318644E+02  0.47598273309E+02 -0.28934299717E+02  0.63557826242E+02  0.00000000000E+00 0. -1.
        -12    1    4    4    0    0  0.74366624579E+01 -0.31656251489E+02 -0.21978095805E+02  0.39248680258E+02  0.00000000000E+00 0.  1.
</event>
<event>
12    1  0.8344842E-002  0.2190062E+03  0.7818608E-02  0.1134966E+00
         21   -1    0    0  501  502  0.00000000000E+00  0.00000000000E+00  0.19505125888E+03  0.19505125888E+03  0.00000000000E+00 0.  1.
         21   -1    0    0  502  503 -0.00000000000E+00 -0.00000000000E+00 -0.24566910903E+03  0.24566910903E+03  0.00000000000E+00 0. -1.
         -6    2    1    2    0  503  0.50018950741E+02  0.12176281141E+03 -0.66200881706E+01  0.21910625430E+03  0.17503041859E+03 0.  0.
        -24    2    3    3    0    0 -0.15685444428E+02  0.50456125368E+02  0.41872126057E+02  0.11059221899E+03  0.87667041734E+02 0.  0.
          6    2    1    2  501    0 -0.50018950741E+02 -0.12176281141E+03 -0.43997761975E+02  0.22161411360E+03  0.17276844218E+03 0.  0.
         24    2    5    5    0    0 -0.53098873189E+02 -0.25051624850E+02 -0.64887738396E+02  0.12251305083E+03  0.85743540793E+02 0.  0.
          5    1    5    5  501    0  0.30799224477E+01 -0.96711186562E+02  0.20889976421E+02  0.99101062776E+02  0.47000000000E+01 0. -1.
        -11    1    6    6    0    0 -0.39011907949E+02 -0.16155058111E+02  0.11955373386E+02  0.43884459860E+02  0.00000000000E+00 0.  1.
         12    1    6    6    0    0 -0.14086965240E+02 -0.88965667387E+01 -0.76843111782E+02  0.78628590969E+02  0.00000000000E+00 0. -1.
         -5    1    3    3    0  503  0.65704395169E+02  0.71306686043E+02 -0.48492214228E+02  0.10851403531E+03  0.47000000000E+01 0.  1.
         11    1    4    4    0    0 -0.38082130760E+02 -0.52491026521E+01  0.19494862809E+01  0.38491586856E+02  0.00000000000E+00 0. -1.
        -12    1    4    4    0    0  0.22396686332E+02  0.55705228020E+02  0.39922639776E+02  0.72100632134E+02  0.00000000000E+00 0.  1.
</event>
<event>
12    1  0.8344842E-002  0.1751673E+03  0.7818608E-02  0.1173590E+00
         21   -1    0    0  501  502  0.00000000000E+00  0.00000000000E+00  0.41804093315E+03  0.41804093315E+03  0.00000000000E+00 0. -1.
         21   -1    0    0  502  503 -0.00000000000E+00 -0.00000000000E+00 -0.95298280752E+02  0.95298280752E+02  0.00000000000E+00 0. -1.
         -6    2    1    2    0  503 -0.16942638772E+02 -0.28181945075E+02  0.35111484721E+02  0.17865165810E+03  0.17205325787E+03 0.  0.
        -24    2    3    3    0    0  0.22332516314E+02 -0.35815005385E+02  0.78047965221E+02  0.11977523859E+03  0.80455994230E+02 0.  0.
          6    2    1    2  501    0  0.16942638772E+02  0.28181945075E+02  0.28763116768E+03  0.33468755581E+03  0.16793688206E+03 0.  0.
         24    2    5    5    0    0  0.58914158667E+02  0.63319538706E+02  0.20825599161E+03  0.23815379205E+03  0.76592614231E+02 0.  0.
          5    1    5    5  501    0 -0.41971519895E+02 -0.35137593631E+02  0.79375176071E+02  0.96533763755E+02  0.47000000000E+01 0. -1.
        -11    1    6    6    0    0  0.63711328586E+02  0.26569308565E+02  0.85292606083E+02  0.10972643346E+03  0.00000000000E+00 0.  1.
         12    1    6    6    0    0 -0.47971699196E+01  0.36750230141E+02  0.12296338552E+03  0.12842735859E+03  0.00000000000E+00 0. -1.
         -5    1    3    3    0  503 -0.39275155086E+02  0.76330603095E+01 -0.42936480500E+02  0.58876419511E+02  0.47000000000E+01 0.  1.
         13    1    4    4    0    0  0.27170089860E+02  0.30738828012E+01 -0.51367644370E+01  0.27821734083E+02  0.00000000000E+00 0. -1.
        -14    1    4    4    0    0 -0.48375735461E+01 -0.38888888186E+02  0.83184729658E+02  0.91953504503E+02  0.00000000000E+00 0.  1.
</event>
<event>
12    1  0.8344842E-002  0.1888465E+03  0.7818608E-02  0.1159743E+00
         21   -1    0    0  503  502  0.00000000000E+00  0.00000000000E+00  0.86242925700E+03  0.86242925700E+03  0.00000000000E+00 0.  1.
         21   -1    0    0  501  503 -0.00000000000E+00 -0.00000000000E+00 -0.42010702024E+02  0.42010702024E+02  0.00000000000E+00 0.  1.
          6    2    1    2  501    0  0.73240188551E+02 -0.28133231107E+02  0.34562131422E+03  0.39384907263E+03  0.17177716746E+03 0.  0.
         24    2    3    3    0    0 -0.23809078786E+02  0.10028365652E+01  0.20585559593E+03  0.22115275901E+03  0.77227835188E+02 0.  0.
         -6    2    1    2    0  502 -0.73240188551E+02  0.28133231107E+02  0.47479724076E+03  0.51059088639E+03  0.17063126772E+03 0.  0.
        -24    2    5    5    0    0 -0.75217322123E+02  0.55996760978E+02  0.46450105852E+03  0.48045143181E+03  0.79240533660E+02 0.  0.
          5    1    3    3  501    0  0.97049267337E+02 -0.29136067672E+02  0.13976571828E+03  0.17269631362E+03  0.47000000000E+01 0. -1.
        -11    1    4    4    0    0  0.58224343831E+01  0.28825447105E+02  0.35914049494E+02  0.46417950127E+02  0.00000000000E+00 0.  1.
         12    1    4    4    0    0 -0.29631513169E+02 -0.27822610540E+02  0.16994154644E+03  0.17473480889E+03  0.00000000000E+00 0. -1.
         -5    1    5    5    0  502  0.19771335715E+01 -0.27863529872E+02  0.10296182243E+02  0.30139454588E+02  0.47000000000E+01 0.  1.
         13    1    6    6    0    0 -0.57634981241E+02  0.76419797903E+02  0.37040325010E+03  0.38257070491E+03  0.00000000000E+00 0. -1.
        -14    1    6    6    0    0 -0.17582340882E+02 -0.20423036925E+02  0.94097808420E+02  0.97880726895E+02  0.00000000000E+00 0.  1.
</event>
<event>
12    1  0.8344842E-002  0.2587876E+03  0.7818608E-02  0.1108030E+00
         21   -1    0    0  501  502  0.00000000000E+00  0.00000000000E+00  0.69455753809E+03  0.69455753809E+03  0.00000000000E+00 0.  1.
         21   -1    0    0  502  503 -0.00000000000E+00 -0.00000000000E+00 -0.99993541902E+02  0.99993541902E+02  0.00000000000E+00 0. -1.
         -6    2    1    2    0  503 -0.38321285337E+02 -0.18868004419E+03  0.37572787465E+03  0.45564063958E+03  0.17137174989E+03 0.  0.
        -24    2    3    3    0    0 -0.23613180143E+02 -0.12544068205E+03  0.35448627160E+03  0.38716552744E+03  0.89127335292E+02 0.  0.
          6    2    1    2  501    0  0.38321285337E+02  0.18868004419E+03  0.21883612154E+03  0.33891044041E+03  0.17292298444E+03 0.  0.
         24    2    5    5    0    0  0.71754546339E+02  0.18399824019E+03  0.22086320193E+03  0.30476514374E+03  0.71394478489E+02 0.  0.
          5    1    5    5  501    0 -0.33433261002E+02  0.46818040013E+01 -0.20270803982E+01  0.34145296673E+02  0.47000000000E+01 0. -1.
        -13    1    6    6    0    0  0.28865050879E+02  0.15362944422E+03  0.15096122168E+03  0.21731195950E+03  0.00000000000E+00 0.  1.
         14    1    6    6    0    0  0.42889495460E+02  0.30368795969E+02  0.69901980257E+02  0.87453184238E+02  0.00000000000E+00 0. -1.
         -5    1    3    3    0  503 -0.14708105194E+02 -0.63239362139E+02  0.21241603055E+02  0.68475112139E+02  0.47000000000E+01 0.  1.
         11    1    4    4    0    0 -0.33306673988E+02 -0.74455787627E+02  0.10836348607E+03  0.13563054212E+03  0.00000000000E+00 0. -1.
        -12    1    4    4    0    0  0.96934938449E+01 -0.50984894423E+02  0.24612278553E+03  0.25153498532E+03  0.00000000000E+00 0.  1.
</event>
<event>
12    1  0.8344842E-002  0.2098766E+03  0.7818608E-02  0.1141956E+00
         21   -1    0    0  501  502  0.00000000000E+00  0.00000000000E+00  0.96017281181E+03  0.96017281181E+03  0.00000000000E+00 0.  1.
         21   -1    0    0  502  503 -0.00000000000E+00 -0.00000000000E+00 -0.46825818342E+02  0.46825818342E+02  0.00000000000E+00 0.  1.
         -6    2    1    2    0  503  0.11930167504E+03  0.21079634003E+02  0.37527901786E+03  0.42997967259E+03  0.17137951150E+03 0.  0.
        -24    2    3    3    0    0  0.60215283025E+02  0.79554472496E+02  0.23184289482E+03  0.26412877616E+03  0.77833720906E+02 0.  0.
          6    2    1    2  501    0 -0.11930167504E+03 -0.21079634003E+02  0.53806797561E+03  0.57701895756E+03  0.16957738756E+03 0.  0.
         24    2    5    5    0    0 -0.10980393120E+03  0.44182912542E+02  0.34567745376E+03  0.37358442259E+03  0.77867744911E+02 0.  0.
          5    1    5    5  501    0 -0.94977438319E+01 -0.65262546545E+02  0.19239052185E+03  0.20343453497E+03  0.47000000000E+01 0. -1.
        -11    1    6    6    0    0 -0.54150900742E+02 -0.90233159524E+01  0.80364014815E+02  0.97324792109E+02  0.00000000000E+00 0.  1.
         12    1    6    6    0    0 -0.55653030462E+02  0.53206228494E+02  0.26531343894E+03  0.27625963048E+03  0.00000000000E+00 0. -1.
         -5    1    3    3    0  503  0.59086392011E+02 -0.58474838493E+02  0.14343612304E+03  0.16585089644E+03  0.47000000000E+01 0.  1.
         11    1    4    4    0    0  0.49540561788E+02  0.19611771590E+02  0.16649348388E+03  0.17481123826E+03  0.00000000000E+00 0. -1.
        -12    1    4    4    0    0  0.10674721237E+02  0.59942700906E+02  0.65349410943E+02  0.89317537897E+02  0.00000000000E+00 0.  1.
</event>
<event>
12    1  0.8344842E-002  0.1802214E+03  0.7818608E-02  0.1167774E+00
         21   -1    0    0  501  502  0.00000000000E+00  0.00000000000E+00  0.15366357719E+04  0.15366357719E+04  0.00000000000E+00 0. -1.
         21   -1    0    0  502  503 -0.00000000000E+00 -0.00000000000E+00 -0.10880181833E+03  0.10880181833E+03  0.00000000000E+00 0. -1.
         -6    2    1    2    0  503  0.18603630665E+02 -0.48664081628E+02 -0.24658888360E+02  0.18190055019E+03  0.17252669785E+03 0.  0.
        -24    2    3    3    0    0 -0.63737880240E+01  0.77897917984E+01  0.22882703574E+02  0.10384157100E+03  0.10078763672E+03 0.  0.
          6    2    1    2  501    0 -0.18603630665E+02  0.48664081628E+02  0.14524928420E+04  0.14635370401E+04  0.17172921655E+03 0.  0.
         24    2    5    5    0    0 -0.64076138342E+02 -0.44420811989E+01  0.10727344072E+04  0.10773679421E+04  0.76400854821E+02 0.  0.
          5    1    5    5  501    0  0.45472507677E+02  0.53106162826E+02  0.37975843472E+03  0.38616909797E+03  0.47000000000E+01 0. -1.
        -13    1    6    6    0    0 -0.31962857165E+02  0.56313024900E+01  0.93564071117E+03  0.93620343740E+03  0.00000000000E+00 0.  1.
         14    1    6    6    0    0 -0.32113281177E+02 -0.10073383689E+02  0.13709369608E+03  0.14116450471E+03  0.00000000000E+00 0. -1.
         -5    1    3    3    0  503  0.24977418689E+02 -0.56453873426E+02 -0.47541591934E+02  0.78058979194E+02  0.47000000000E+01 0.  1.
         13    1    4    4    0    0  0.95776717575E+01 -0.44172543317E+02  0.19952697051E+02  0.49407038962E+02  0.00000000000E+00 0. -1.
        -14    1    4    4    0    0 -0.15951459781E+02  0.51962335116E+02  0.29300065230E+01  0.54434532037E+02  0.00000000000E+00 0.  1.
</event>
<event>
12    1  0.8344842E-002  0.1888854E+03  0.7818608E-02  0.1159929E+00
         21   -1    0    0  503  502  0.00000000000E+00  0.00000000000E+00  0.10020722409E+03  0.10020722409E+03  0.00000000000E+00 0.  1.
         21   -1    0    0  501  503 -0.00000000000E+00 -0.00000000000E+00 -0.35669696341E+03  0.35669696341E+03  0.00000000000E+00 0.  1.
          6    2    1    2  501    0  0.76625132511E+02 -0.31730706459E+01 -0.15303557356E+03  0.24154294396E+03  0.17041604295E+03 0.  0.
         24    2    3    3    0    0 -0.13226663787E+02  0.92584126131E+01 -0.11981994717E+03  0.14483071666E+03  0.79739914152E+02 0.  0.
         -6    2    1    2    0  502 -0.76625132511E+02  0.31730706459E+01 -0.10345416576E+03  0.21536124353E+03  0.17261582051E+03 0.  0.
        -24    2    5    5    0    0 -0.10668472256E+03  0.40332605723E+02 -0.66437040389E+02  0.15472488833E+03  0.80731416558E+02 0.  0.
          5    1    3    3  501    0  0.89851796298E+02 -0.12431483259E+02 -0.33215626385E+02  0.96712227304E+02  0.47000000000E+01 0. -1.
        -13    1    4    4    0    0  0.23759578647E+02  0.29461639135E+02 -0.43608301941E+02  0.57742443282E+02  0.00000000000E+00 0.  1.
         14    1    4    4    0    0 -0.36986242434E+02 -0.20203226522E+02 -0.76211645232E+02  0.87088273379E+02  0.00000000000E+00 0. -1.
         -5    1    5    5    0  502  0.30059590049E+02 -0.37159535077E+02 -0.37017125374E+02  0.60636355201E+02  0.47000000000E+01 0.  1.
         13    1    6    6    0    0 -0.80330446767E+01  0.35880706676E+01 -0.46820876375E+02  0.47640303551E+02  0.00000000000E+00 0. -1.
        -14    1    6    6    0    0 -0.98651677883E+02  0.36744535055E+02 -0.19616164014E+02  0.10708458477E+03  0.00000000000E+00 0.  1.
</event>
<event>
12    1  0.8344842E-002  0.2218622E+03  0.7818608E-02  0.1132670E+00
         21   -1    0    0  503  502  0.00000000000E+00  0.00000000000E+00  0.47970804086E+03  0.47970804086E+03  0.00000000000E+00 0.  1.
         21   -1    0    0  501  503 -0.00000000000E+00 -0.00000000000E+00 -0.11927205925E+03  0.11927205925E+03  0.00000000000E+00 0.  1.
          6    2    1    2  501    0 -0.13194488969E+03  0.36101990752E+02  0.67196354815E+02  0.23181502576E+03  0.17467125813E+03 0.  0.
         24    2    3    3    0    0  0.72713455695E+01  0.47529362444E+01  0.72239097041E+01  0.76951513108E+02  0.76117590798E+02 0.  0.
         -6    2    1    2    0  502  0.13194488969E+03 -0.36101990752E+02  0.29323962679E+03  0.36716507435E+03  0.17351629737E+03 0.  0.
        -24    2    5    5    0    0  0.16186364063E+03 -0.14544845116E+02  0.22521449380E+03  0.28964507110E+03  0.82227175050E+02 0.  0.
          5    1    3    3  501    0 -0.13921623526E+03  0.31349054508E+02  0.59972445111E+02  0.15486351265E+03  0.47000000000E+01 0. -1.
        -13    1    4    4    0    0 -0.13859300240E+02 -0.29954662818E+02  0.13826564418E+02  0.35784576444E+02  0.00000000000E+00 0.  1.
         14    1    4    4    0    0  0.21130645809E+02  0.34707599063E+02 -0.66026547144E+01  0.41166936664E+02  0.00000000000E+00 0. -1.
         -5    1    5    5    0  502 -0.29918750942E+02 -0.21557145636E+02  0.68025132992E+02  0.77520003253E+02  0.47000000000E+01 0.  1.
         11    1    6    6    0    0 -0.76334966420E+01  0.38486659568E+01  0.20218202585E+01  0.87846603684E+01  0.00000000000E+00 0. -1.
        -12    1    6    6    0    0  0.16949713727E+03 -0.18393511073E+02  0.22319267354E+03  0.28086041073E+03  0.00000000000E+00 0.  1.
</event>
<event>
12    1  0.8344842E-002  0.2005039E+03  0.7818608E-02  0.1149853E+00
         21   -1    0    0  503  502  0.00000000000E+00  0.00000000000E+00  0.44046532686E+03  0.44046532686E+03  0.00000000000E+00 0.  1.
         21   -1    0    0  501  503 -0.00000000000E+00 -0.00000000000E+00 -0.21092726371E+03  0.21092726371E+03  0.00000000000E+00 0. -1.
          6    2    1    2  501    0  0.94249962886E+02  0.34467280813E+02 -0.13140532316E+03  0.23972724679E+03  0.17358209857E+03 0.  0.
         24    2    3    3    0    0  0.86476815693E+02 -0.39463116376E+02 -0.63887110761E+02  0.13919404604E+03  0.79106525176E+02 0.  0.
         -6    2    1    2    0  502 -0.94249962886E+02 -0.34467280813E+02  0.36094338631E+03  0.41166534379E+03  0.17063756388E+03 0.  0.
        -24    2    5    5    0    0 -0.98449383701E+02 -0.23492132550E+02  0.14343875588E+03  0.19379280474E+03  0.82078091093E+02 0.  0.
          5    1    3    3  501    0  0.77731471928E+01  0.73930397189E+02 -0.67518212404E+02  0.10053320074E+03  0.47000000000E+01 0. -1.
        -11    1    4    4    0    0  0.40877125738E+02  0.19875265357E+02 -0.88681822329E+01  0.46309936706E+02  0.00000000000E+00 0.  1.
         12    1    4    4    0    0  0.45599689955E+02 -0.59338381732E+02 -0.55018928528E+02  0.92884109335E+02  0.00000000000E+00 0. -1.
         -5    1    5    5    0  502  0.41994208149E+01 -0.10975148264E+02  0.21750463043E+03  0.21787253905E+03  0.47000000000E+01 0.  1.
         11    1    6    6    0    0 -0.11261165304E+03 -0.14601098391E+02  0.12349763288E+03  0.16776841718E+03  0.00000000000E+00 0. -1.
        -12    1    6    6    0    0  0.14162269344E+02 -0.88910341589E+01  0.19941123007E+02  0.26024387566E+02  0.00000000000E+00 0.  1.
</event>
<event>
12    1  0.8344842E-002  0.1743892E+03  0.7818608E-02  0.1175030E+00
         21   -1    0    0  503  502  0.00000000000E+00  0.00000000000E+00  0.73224295424E+02  0.73224295424E+02  0.00000000000E+00 0. -1.
         21   -1    0    0  501  503 -0.00000000000E+00 -0.00000000000E+00 -0.86101220807E+03  0.86101220807E+03  0.00000000000E+00 0. -1.
          6    2    1    2  501    0 -0.20581102198E+02 -0.11646408301E+02 -0.73920749725E+03  0.75949937796E+03  0.17277835669E+03 0.  0.
         24    2    3    3    0    0 -0.55868518126E+02 -0.58193143330E+02 -0.54258006984E+03  0.55432570646E+03  0.79850631906E+02 0.  0.
         -6    2    1    2    0  502  0.20581102198E+02  0.11646408301E+02 -0.48580415397E+02  0.17473712553E+03  0.16617396212E+03 0.  0.
        -24    2    5    5    0    0  0.83655344109E+01 -0.31802311821E+01  0.34285740480E+02  0.89543586314E+02  0.82234091551E+02 0.  0.
          5    1    3    3  501    0  0.35287415928E+02  0.46546735029E+02 -0.19662742741E+03  0.20517367150E+03  0.47000000000E+01 0. -1.
        -11    1    4    4    0    0 -0.16271025042E+02 -0.70114963980E+02 -0.35921518475E+03  0.36635556961E+03  0.00000000000E+00 0.  1.
         12    1    4    4    0    0 -0.39597493084E+02  0.11921820651E+02 -0.18336488508E+03  0.18797013685E+03  0.00000000000E+00 0. -1.
         -5    1    5    5    0  502  0.12215567787E+02  0.14826639483E+02 -0.82866155878E+02  0.85193539219E+02  0.47000000000E+01 0.  1.
         13    1    6    6    0    0  0.72580251130E+01  0.36000225937E+02  0.34440423233E+02  0.50347174186E+02  0.00000000000E+00 0. -1.
        -14    1    6    6    0    0  0.11075092978E+01 -0.39180457119E+02 -0.15468275221E+00  0.39196412128E+02  0.00000000000E+00 0.  1.
</event>
<event>
12    1  0.8344842E-002  0.1903621E+03  0.7818608E-02  0.1158490E+00
         21   -1    0    0  501  502  0.00000000000E+00  0.00000000000E+00  0.30630502233E+03  0.30630502233E+03  0.00000000000E+00 0. -1.
         21   -1    0    0  502  503 -0.00000000000E+00 -0.00000000000E+00 -0.26427964270E+03  0.26427964270E+03  0.00000000000E+00 0. -1.
         -6    2    1    2    0  503  0.35694897378E+02  0.71547151482E+02 -0.19175976859E+03  0.26909965396E+03  0.17102542011E+03 0.  0.
        -24    2    3    3    0    0 -0.14488247995E+02 -0.23743280024E+02 -0.11567521993E+03  0.13715435104E+03  0.68241533012E+02 0.  0.
          6    2    1    2  501    0 -0.35694897378E+02 -0.71547151482E+02  0.23378514822E+03  0.30148501108E+03  0.17275588497E+03 0.  0.
         24    2    5    5    0    0 -0.12557736131E+01 -0.13194676117E+02  0.29945950878E+02  0.86627912057E+02  0.80199493316E+02 0.  0.
          5    1    5    5  501    0 -0.34439123765E+02 -0.58352475364E+02  0.20383919734E+03  0.21485709902E+03  0.47000000000E+01 0. -1.
        -11    1    6    6    0    0 -0.19400508537E+02  0.21633574100E+02  0.36667347161E+02  0.46785527759E+02  0.00000000000E+00 0.  1.
         12    1    6    6    0    0  0.18144734924E+02 -0.34828250217E+02 -0.67213962829E+01  0.39842384299E+02  0.00000000000E+00 0. -1.
         -5    1    3    3    0  503  0.50183145374E+02  0.95290431505E+02 -0.76084548662E+02  0.13194530291E+03  0.47000000000E+01 0.  1.
         13    1    4    4    0    0  0.12875186336E+02  0.17325657327E+02 -0.54073743391E+02  0.58223007045E+02  0.00000000000E+00 0. -1.
        -14    1    4    4    0    0 -0.27363434331E+02 -0.41068937351E+02 -0.61601476536E+02  0.78931343996E+02  0.00000000000E+00 0.  1.
</event>
<event>
12    1  0.8344842E-002  0.2674451E+03  0.7818608E-02  0.1102785E+00
         21   -1    0    0  501  502  0.00000000000E+00  0.00000000000E+00  0.10290516598E+04  0.10290516598E+04  0.00000000000E+00 0.  1.
         21   -1    0    0  502  503 -0.00000000000E+00 -0.00000000000E+00 -0.87543880434E+02  0.87543880434E+02  0.00000000000E+00 0. -1.
         -6    2    1    2    0  503  0.19367788220E+03  0.65500320930E+02  0.21707949247E+03  0.34445668756E+03  0.17241081594E+03 0.  0.
        -24    2    3    3    0    0  0.12458096494E+03 -0.11995935787E+02  0.69092756050E+02  0.16361914185E+03  0.79580747297E+02 0.  0.
          6    2    1    2  501    0 -0.19367788220E+03 -0.65500320930E+02  0.72442828692E+03  0.77213885270E+03  0.17204839689E+03 0.  0.
         24    2    5    5    0    0 -0.10555067057E+03 -0.10102470816E+03  0.53543966952E+03  0.56055630374E+03  0.78618027561E+02 0.  0.
          5    1    5    5  501    0 -0.88127211632E+02  0.35524387225E+02  0.18898861740E+03  0.21158254896E+03  0.47000000000E+01 0. -1.
        -11    1    6    6    0    0  0.11996702828E+02 -0.77199855138E+01  0.72758586901E+02  0.74143988447E+02  0.00000000000E+00 0.  1.
         12    1    6    6    0    0 -0.11754737340E+03 -0.93304722642E+02  0.46268108262E+03  0.48641231530E+03  0.00000000000E+00 0. -1.
         -5    1    3    3    0  503  0.69096917267E+02  0.77496256718E+02  0.14798673642E+03  0.18083754571E+03  0.47000000000E+01 0.  1.
         11    1    4    4    0    0  0.89925600695E+02  0.14814080510E+02  0.12413735234E+02  0.91979190387E+02  0.00000000000E+00 0. -1.
        -12    1    4    4    0    0  0.34655364240E+02 -0.26810016297E+02  0.56679020816E+02  0.71639951460E+02  0.00000000000E+00 0.  1.
</event>
<event>
12    1  0.8344842E-002  0.2280478E+03  0.7818608E-02  0.1129238E+00
         21   -1    0    0  501  502  0.00000000000E+00  0.00000000000E+00  0.10318552831E+04  0.10318552831E+04  0.00000000000E+00 0.  1.
         21   -1    0    0  502  503 -0.00000000000E+00 -0.00000000000E+00 -0.18086630482E+03  0.18086630482E+03  0.00000000000E+00 0. -1.
         -6    2    1    2    0  503  0.56512430335E+02 -0.13116899486E+03 -0.94112396259E+02  0.24049608974E+03  0.16906290562E+03 0.  0.
        -24    2    3    3    0    0 -0.88318067746E+01 -0.13345824380E+03 -0.67687144995E+02  0.16981728182E+03  0.79795087312E+02 0.  0.
          6    2    1    2  501    0 -0.56512430335E+02  0.13116899486E+03  0.94510137456E+03  0.97222549820E+03  0.17778315768E+03 0.  0.
         24    2    5    5    0    0 -0.44273337791E+02  0.10578711713E+01  0.28059465496E+03  0.29497372058E+03  0.79466269002E+02 0.  0.
          5    1    5    5  501    0 -0.12239092544E+02  0.13011112369E+03  0.66450671960E+03  0.67725177762E+03  0.47000000000E+01 0. -1.
        -13    1    6    6    0    0 -0.81473479942E+01 -0.36747426301E+02  0.95986410581E+02  0.10310258792E+03  0.00000000000E+00 0.  1.
         14    1    6    6    0    0 -0.36125989797E+02  0.37805297473E+02  0.18460824438E+03  0.19187113266E+03  0.00000000000E+00 0. -1.
         -5    1    3    3    0  503  0.65344237110E+02  0.22892489393E+01 -0.26425251264E+02  0.70678807917E+02  0.47000000000E+01 0.  1.
         13    1    4    4    0    0  0.14303751166E+01 -0.13073588901E+03 -0.34853312752E+02  0.13530954164E+03  0.00000000000E+00 0. -1.
        -14    1    4    4    0    0 -0.10262181891E+02 -0.27223547862E+01 -0.32833832243E+02  0.34507740183E+02  0.00000000000E+00 0.  1.
</event>
<event>
12    1  0.8344842E-002  0.1787369E+03  0.7818608E-02  0.1169541E+00
         21   -1    0    0  503  502  0.00000000000E+00  0.00000000000E+00  0.40437992702E+03  0.40437992702E+03  0.00000000000E+00 0.  1.
         21   -1    0    0  501  503 -0.00000000000E+00 -0.00000000000E+00 -0.13409746016E+03  0.13409746016E+03  0.00000000000E+00 0. -1.
          6    2    1    2  501    0 -0.40231207480E+02 -0.21119215498E+02 -0.39320834638E+02  0.18098458840E+03  0.17071825293E+03 0.  0.
         24    2    3    3    0    0  0.10682551721E+02  0.45601867858E+02 -0.26659794285E+02  0.95976907674E+02  0.79417724168E+02 0.  0.
         -6    2    1    2    0  502  0.40231207480E+02  0.21119215498E+02  0.30960330150E+03  0.35749279877E+03  0.17286505012E+03 0.  0.
        -24    2    5    5    0    0 -0.38113261782E+02  0.37527622966E+02  0.13430830627E+03  0.16472994692E+03  0.78970191026E+02 0.  0.
          5    1    3    3  501    0 -0.50913759202E+02 -0.66721083356E+02 -0.12661040353E+02  0.85007680730E+02  0.47000000000E+01 0. -1.
        -11    1    4    4    0    0 -0.86708184294E+01  0.51817081562E+02  0.10541326288E+02  0.53584630200E+02  0.00000000000E+00 0.  1.
         12    1    4    4    0    0  0.19353370151E+02 -0.62152137035E+01 -0.37201120573E+02  0.42392277474E+02  0.00000000000E+00 0. -1.
         -5    1    5    5    0  502  0.78344469263E+02 -0.16408407468E+02  0.17529499523E+03  0.19276285185E+03  0.47000000000E+01 0.  1.
         13    1    6    6    0    0 -0.58670360814E+02  0.20884193330E+02  0.11862865338E+03  0.13398178299E+03  0.00000000000E+00 0. -1.
        -14    1    6    6    0    0  0.20557099032E+02  0.16643429636E+02  0.15679652886E+02  0.30748163933E+02  0.00000000000E+00 0.  1.
</event>
<event>
12    1  0.8344842E-002  0.1830716E+03  0.7818608E-02  0.1165591E+00
         21   -1    0    0  503  502  0.00000000000E+00  0.00000000000E+00  0.32831724661E+03  0.32831724661E+03  0.00000000000E+00 0. -1.
         21   -1    0    0  501  503 -0.00000000000E+00 -0.00000000000E+00 -0.12077155665E+03  0.12077155665E+03  0.00000000000E+00 0. -1.
          6    2    1    2  501    0 -0.38334073278E+02 -0.38544446249E+02  0.10805696856E+02  0.18034762883E+03  0.17161972099E+03 0.  0.
         24    2    3    3    0    0  0.72590901419E+00 -0.81229581017E+02  0.32780160368E+02  0.11827774891E+03  0.79475248966E+02 0.  0.
         -6    2    1    2    0  502  0.38334073278E+02  0.38544446249E+02  0.19673999310E+03  0.26874117442E+03  0.17481423978E+03 0.  0.
        -24    2    5    5    0    0  0.75766701568E+02 -0.20406018982E+02  0.13068517402E+03  0.17250350957E+03  0.80757955818E+02 0.  0.
          5    1    3    3  501    0 -0.39059982292E+02  0.42685134768E+02 -0.21974463511E+02  0.62069879921E+02  0.47000000000E+01 0. -1.
        -13    1    4    4    0    0  0.12604049114E+02 -0.94603557171E+02  0.24312750117E+02  0.98487587552E+02  0.00000000000E+00 0.  1.
         14    1    4    4    0    0 -0.11878140099E+02  0.13373976154E+02  0.84674102504E+01  0.19790161362E+02  0.00000000000E+00 0. -1.
         -5    1    5    5    0  502 -0.37432628290E+02  0.58950465231E+02  0.66054819082E+02  0.96237664849E+02  0.47000000000E+01 0.  1.
         13    1    6    6    0    0  0.49934351091E+02  0.90465042881E+01  0.19068807234E+02  0.54211604551E+02  0.00000000000E+00 0. -1.
        -14    1    6    6    0    0  0.25832350477E+02 -0.29452523270E+02  0.11161636679E+03  0.11829190502E+03  0.00000000000E+00 0.  1.
</event>
<event>
12    1  0.8344842E-002  0.3141268E+03  0.7818608E-02  0.1078418E+00
         21   -1    0    0  503  502  0.00000000000E+00  0.00000000000E+00  0.25148572852E+03  0.25148572852E+03  0.00000000000E+00 0.  1.
         21   -1    0    0  501  503 -0.00000000000E+00 -0.00000000000E+00 -0.39216159141E+03  0.39216159141E+03  0.00000000000E+00 0.  1.
          6    2    1    2  501    0  0.95564050498E+02  0.24505698856E+03 -0.76514898192E+02  0.32303499233E+03  0.17120648713E+03 0.  0.
         24    2    3    3    0    0  0.88776366559E+02  0.16448151251E+03  0.10809539994E+02  0.20392946140E+03  0.80839148037E+02 0.  0.
         -6    2    1    2    0  502 -0.95564050498E+02 -0.24505698856E+03 -0.64160964695E+02  0.32061232760E+03  0.17172716683E+03 0.  0.
        -24    2    5    5    0    0 -0.92551045805E+02 -0.11485961011E+03  0.14814446751E+02  0.16823240384E+03  0.79525139137E+02 0.  0.
          5    1    3    3  501    0  0.67876839398E+01  0.80575476054E+02 -0.87324438186E+02  0.11910553093E+03  0.47000000000E+01 0. -1.
        -11    1    4    4    0    0  0.99339774829E+02  0.16408678160E+03  0.15343529648E+02  0.19242735424E+03  0.00000000000E+00 0.  1.
         12    1    4    4    0    0 -0.10563408271E+02  0.39473090522E+00 -0.45339896544E+01  0.11502107153E+02  0.00000000000E+00 0. -1.
         -5    1    5    5    0  502 -0.30130046932E+01 -0.13019737845E+03 -0.78975411446E+02  0.15237992376E+03  0.47000000000E+01 0.  1.
         13    1    6    6    0    0 -0.20346677366E+02  0.95822965770E-01 -0.19531637383E+02  0.28204278412E+02  0.00000000000E+00 0. -1.
        -14    1    6    6    0    0 -0.72204368439E+02 -0.11495543308E+03  0.34346084134E+02  0.14002812543E+03  0.00000000000E+00 0.  1.
</event>
<event>
12    1  0.8344842E-002  0.1779284E+03  0.7818608E-02  0.1170232E+00
         21   -1    0    0  501  502  0.00000000000E+00  0.00000000000E+00  0.72280414030E+03  0.72280414030E+03  0.00000000000E+00 0. -1.
         21   -1    0    0  502  503 -0.00000000000E+00 -0.00000000000E+00 -0.45972595237E+02  0.45972595237E+02  0.00000000000E+00 0. -1.
         -6    2    1    2    0  503 -0.33560220723E+02  0.75637660641E+01  0.24884842711E+03  0.30591511819E+03  0.17457096233E+03 0.  0.
        -24    2    3    3    0    0 -0.37085930848E+02 -0.24819079059E+02  0.47500603265E+02  0.10189522833E+03  0.78326095871E+02 0.  0.
          6    2    1    2  501    0  0.33560220723E+02 -0.75637660641E+01  0.42798311795E+03  0.46286161735E+03  0.17288096653E+03 0.  0.
         24    2    5    5    0    0  0.80986447942E+02 -0.74477897668E+01  0.20157481661E+03  0.23149163356E+03  0.79634762486E+02 0.  0.
          5    1    5    5  501    0 -0.47426227220E+02 -0.11597629730E+00  0.22640830134E+03  0.23136998378E+03  0.47000000000E+01 0. -1.
        -11    1    6    6    0    0  0.23278458620E+02 -0.11666357123E+02  0.49173040975E+01  0.26498498143E+02  0.00000000000E+00 0.  1.
         12    1    6    6    0    0  0.57707989322E+02  0.42185673565E+01  0.19665751251E+03  0.20499313542E+03  0.00000000000E+00 0. -1.
         -5    1    3    3    0  503  0.35257101249E+01  0.32382845123E+02  0.20134782384E+03  0.20401988985E+03  0.47000000000E+01 0.  1.
         13    1    4    4    0    0 -0.50811798394E+01 -0.95783388206E+01 -0.21635883338E+02  0.24200710960E+02  0.00000000000E+00 0. -1.
        -14    1    4    4    0    0 -0.32004751008E+02 -0.15240740238E+02  0.69136486604E+02  0.77694517374E+02  0.00000000000E+00 0.  1.
</event>
<event>
12    1  0.8344842E-002  0.1758665E+03  0.7818608E-02  0.1172262E+00
         21   -1    0    0  503  502  0.00000000000E+00  0.00000000000E+00  0.23450278115E+03  0.23450278115E+03  0.00000000000E+00 0.  1.
         21   -1    0    0  501  503 -0.00000000000E+00 -0.00000000000E+00 -0.20378459873E+03  0.20378459873E+03  0.00000000000E+00 0.  1.
          6    2    1    2  501    0 -0.28673571956E+02 -0.89050409650E+01  0.14663475026E+03  0.22897770888E+03  0.17328464357E+03 0.  0.
         24    2    3    3    0    0 -0.20908953447E+02 -0.73165110297E+02  0.10000025801E+03  0.14906205535E+03  0.80181837376E+02 0.  0.
         -6    2    1    2    0  502  0.28673571956E+02  0.89050409650E+01 -0.11591656784E+03  0.20930967101E+03  0.17167531620E+03 0.  0.
        -24    2    5    5    0    0  0.41571860644E+02  0.69508988842E+02 -0.43270741044E+02  0.11371306803E+03  0.67071496804E+02 0.  0.
          5    1    3    3  501    0 -0.77646185087E+01  0.64260069332E+02  0.46634492251E+02  0.79915653527E+02  0.47000000000E+01 0. -1.
        -11    1    4    4    0    0  0.16989948489E+02 -0.31331844344E+01 -0.43347541883E+01  0.17811942293E+02  0.00000000000E+00 0.  1.
         12    1    4    4    0    0 -0.37898901937E+02 -0.70031925863E+02  0.10433501219E+03  0.13125011306E+03  0.00000000000E+00 0. -1.
         -5    1    5    5    0  502 -0.12898288688E+02 -0.60603947877E+02 -0.72645826798E+02  0.95596602976E+02  0.47000000000E+01 0.  1.
         11    1    6    6    0    0  0.56349104101E+02  0.31927629906E+02 -0.27434536919E+02  0.70336682466E+02  0.00000000000E+00 0. -1.
        -12    1    6    6    0    0 -0.14777243457E+02  0.37581358936E+02 -0.15836204125E+02  0.43376385566E+02  0.00000000000E+00 0.  1.
</event>
<event>
12    1  0.8344842E-002  0.1786214E+03  0.7818608E-02  0.1170069E+00
         21   -1    0    0  503  502  0.00000000000E+00  0.00000000000E+00  0.64032301408E+03  0.64032301408E+03  0.00000000000E+00 0.  1.
         21   -1    0    0  501  503 -0.00000000000E+00 -0.00000000000E+00 -0.86052364886E+02  0.86052364886E+02  0.00000000000E+00 0.  1.
          6    2    1    2  501    0  0.45047712119E+02  0.14266921112E+01  0.39810407625E+02  0.18300404048E+03  0.17284177290E+03 0.  0.
         24    2    3    3    0    0 -0.36530816663E+02  0.16019927574E+01 -0.10275432005E+02  0.87161625969E+02  0.78450606064E+02 0.  0.
         -6    2    1    2    0  502 -0.45047712119E+02 -0.14266921112E+01  0.51446024157E+03  0.54337133848E+03  0.16897259988E+03 0.  0.
        -24    2    5    5    0    0  0.25941863491E+02  0.11187341509E+02  0.14875690485E+03  0.17059841272E+03  0.78594305088E+02 0.  0.
          5    1    3    3  501    0  0.81578528783E+02 -0.17530064621E+00  0.50085839630E+02  0.95842414515E+02  0.47000000000E+01 0. -1.
        -11    1    4    4    0    0 -0.19857141181E+02 -0.20936222366E+02 -0.38012479827E+02  0.47723999051E+02  0.00000000000E+00 0.  1.
         12    1    4    4    0    0 -0.16673675482E+02  0.22538215123E+02  0.27737047822E+02  0.39437626918E+02  0.00000000000E+00 0. -1.
         -5    1    5    5    0  502 -0.70989575610E+02 -0.12614033620E+02  0.36570333672E+03  0.37277292576E+03  0.47000000000E+01 0.  1.
         11    1    6    6    0    0  0.12630964121E+02  0.45231127773E+02  0.82990869275E+02  0.95356596821E+02  0.00000000000E+00 0. -1.
        -12    1    6    6    0    0  0.13310899370E+02 -0.34043786264E+02  0.65766035573E+02  0.75241815902E+02  0.00000000000E+00 0.  1.
</event>
<event>
12    1  0.8344842E-002  0.1787989E+03  0.7818608E-02  0.1169095E+00
         21   -1    0    0  501  502  0.00000000000E+00  0.00000000000E+00  0.60040976794E+02  0.60040976794E+02  0.00000000000E+00 0. -1.
         21   -1    0    0  502  503 -0.00000000000E+00 -0.00000000000E+00 -0.75822307623E+03  0.75822307623E+03  0.00000000000E+00 0. -1.
         -6    2    1    2    0  503 -0.36056234707E+02 -0.28183687224E+02 -0.57274189653E+03  0.59985089504E+03  0.17231785729E+03 0.  0.
        -24    2    3    3    0    0 -0.45119244428E+02 -0.30923450248E+02 -0.16002038203E+03  0.18699403972E+03  0.79801267111E+02 0.  0.
          6    2    1    2  501    0  0.36056234707E+02  0.28183687224E+02 -0.12544020290E+03  0.21841315799E+03  0.17284296570E+03 0.  0.
         24    2    5    5    0    0  0.88978794838E+02  0.34800021845E+01 -0.79209244461E+02  0.14377763733E+03  0.80427409776E+02 0.  0.
          5    1    5    5  501    0 -0.52922560131E+02  0.24703685039E+02 -0.46230958444E+02  0.74635520659E+02  0.47000000000E+01 0. -1.
        -13    1    6    6    0    0 -0.10077636652E+02  0.73227569208E+01 -0.31277204869E+02  0.33666676014E+02  0.00000000000E+00 0.  1.
         14    1    6    6    0    0  0.99056431490E+02 -0.38427547363E+01 -0.47932039592E+02  0.11011096132E+03  0.00000000000E+00 0. -1.
         -5    1    3    3    0  503  0.90630097216E+01  0.27397630242E+01 -0.41272151450E+03  0.41285685532E+03  0.47000000000E+01 0.  1.
         11    1    4    4    0    0 -0.48329861032E+02 -0.53941510395E+02 -0.10822347720E+03  0.13022205277E+03  0.00000000000E+00 0. -1.
        -12    1    4    4    0    0  0.32106166041E+01  0.23018060147E+02 -0.51796904831E+02  0.56771986948E+02  0.00000000000E+00 0.  1.
</event>
<event>
12    1  0.8344842E-002  0.1868197E+03  0.7818608E-02  0.1161695E+00
         21   -1    0    0  501  502  0.00000000000E+00  0.00000000000E+00  0.70831737755E+02  0.70831737755E+02  0.00000000000E+00 0.  1.
         21   -1    0    0  502  503 -0.00000000000E+00 -0.00000000000E+00 -0.63098612468E+03  0.63098612468E+03  0.00000000000E+00 0. -1.
         -6    2    1    2    0  503 -0.14418828982E+02 -0.69193183109E+02 -0.11274911812E+03  0.21697450263E+03  0.17137669602E+03 0.  0.
        -24    2    3    3    0    0 -0.33996679743E+02  0.25176810664E+02 -0.68042360799E+02  0.11062709027E+03  0.76282004499E+02 0.  0.
          6    2    1    2  501    0  0.14418828982E+02  0.69193183109E+02 -0.44740526881E+03  0.48484335981E+03  0.17293354150E+03 0.  0.
         24    2    5    5    0    0  0.63492939512E+02  0.84101657731E+02 -0.27313163693E+03  0.30311851366E+03  0.78584349775E+02 0.  0.
          5    1    5    5  501    0 -0.49074110531E+02 -0.14908474622E+02 -0.17427363187E+03  0.18172484614E+03  0.47000000000E+01 0. -1.
        -11    1    6    6    0    0  0.67879333282E+01  0.48976025463E+02 -0.50360617483E+02  0.70575625412E+02  0.00000000000E+00 0.  1.
         12    1    6    6    0    0  0.56705006184E+02  0.35125632268E+02 -0.22277101945E+03  0.23254288825E+03  0.00000000000E+00 0. -1.
         -5    1    3    3    0  503  0.19577850761E+02 -0.94369993773E+02 -0.44706757321E+02  0.10634741236E+03  0.47000000000E+01 0.  1.
         13    1    4    4    0    0 -0.47952324771E+02  0.10067369211E+02 -0.11316753148E+02  0.50287635415E+02  0.00000000000E+00 0. -1.
        -14    1    4    4    0    0  0.13955645029E+02  0.15109441454E+02 -0.56725607651E+02  0.60339454858E+02  0.00000000000E+00 0.  1.
</event>
<event>
12    1  0.8344842E-002  0.2059908E+03  0.7818608E-02  0.1145341E+00
         21   -1    0    0  501  502  0.00000000000E+00  0.00000000000E+00  0.14492422748E+03  0.14492422748E+03  0.00000000000E+00 0. -1.
         21   -1    0    0  502  503 -0.00000000000E+00 -0.00000000000E+00 -0.43859772225E+03  0.43859772225E+03  0.00000000000E+00 0. -1.
         -6    2    1    2    0  503 -0.11012613154E+03  0.25633256707E+02 -0.31793204967E+03  0.37883107747E+03  0.17218411179E+03 0.  0.
        -24    2    3    3    0    0 -0.14507724935E+03  0.30816623381E+02 -0.27978689033E+03  0.32662388345E+03  0.80033647205E+02 0.  0.
          6    2    1    2  501    0  0.11012613154E+03 -0.25633256707E+02  0.24258554906E+02  0.20469087225E+03  0.16889359669E+03 0.  0.
         24    2    5    5    0    0  0.10093528385E+03 -0.71715287314E+02  0.29162905497E+02  0.15721279436E+03  0.92381674010E+02 0.  0.
          5    1    5    5  501    0  0.91908476906E+01  0.46082030607E+02 -0.49043505910E+01  0.47478077898E+02  0.47000000000E+01 0. -1.
        -11    1    6    6    0    0  0.68642724454E+02 -0.17795736359E+02 -0.24031531523E+02  0.74873402222E+02  0.00000000000E+00 0.  1.
         12    1    6    6    0    0  0.32292559392E+02 -0.53919550954E+02  0.53194437020E+02  0.82339392135E+02  0.00000000000E+00 0. -1.
         -5    1    3    3    0  503  0.34951117812E+02 -0.51833666738E+01 -0.38145159337E+02  0.52207194018E+02  0.47000000000E+01 0.  1.
         11    1    4    4    0    0 -0.37874937566E+02  0.44257740641E+02 -0.73776059739E+02  0.94000880277E+02  0.00000000000E+00 0. -1.
        -12    1    4    4    0    0 -0.10720231178E+03 -0.13441117260E+02 -0.20601083060E+03  0.23262300318E+03  0.00000000000E+00 0.  1.
</event>
<event>
12    1  0.8344842E-002  0.1836443E+03  0.7818608E-02  0.1164344E+00
         21   -1    0    0  501  502  0.00000000000E+00  0.00000000000E+00  0.22468994947E+03  0.22468994947E+03  0.00000000000E+00 0. -1.
         21   -1    0    0  502  503 -0.00000000000E+00 -0.00000000000E+00 -0.23278449314E+03  0.23278449314E+03  0.00000000000E+00 0. -1.
         -6    2    1    2    0  503  0.63866357057E+02  0.15133311133E+02 -0.14043609062E+03  0.23118719253E+03  0.17151470424E+03 0.  0.
        -24    2    3    3    0    0  0.28020272224E+02  0.57233372790E+01 -0.16633514745E+03  0.18573017381E+03  0.77526923969E+02 0.  0.
          6    2    1    2  501    0 -0.63866357057E+02 -0.15133311133E+02  0.13234154695E+03  0.22628725009E+03  0.17141676066E+03 0.  0.
         24    2    5    5    0    0  0.17770359385E+02  0.24397176723E+02  0.32773002467E+02  0.91516340796E+02  0.79938495340E+02 0.  0.
          5    1    5    5  501    0 -0.81636716442E+02 -0.39530487856E+02  0.99568544480E+02  0.13477090929E+03  0.47000000000E+01 0. -1.
        -13    1    6    6    0    0 -0.27473880926E+01  0.32755254980E+02  0.52440853631E+02  0.61891017116E+02  0.00000000000E+00 0.  1.
         14    1    6    6    0    0  0.20517747478E+02 -0.83580782575E+01 -0.19667851164E+02  0.29625323679E+02  0.00000000000E+00 0. -1.
         -5    1    3    3    0  503  0.35846084833E+02  0.94099738537E+01  0.25899056834E+02  0.45457018717E+02  0.47000000000E+01 0.  1.
         13    1    4    4    0    0 -0.25017094106E+02 -0.10522419543E+02 -0.56765154760E+02  0.62919465235E+02  0.00000000000E+00 0. -1.
        -14    1    4    4    0    0  0.53037366330E+02  0.16245756822E+02 -0.10956999269E+03  0.12281070858E+03  0.00000000000E+00 0.  1.
</event>
<event>
12    1  0.8344842E-002  0.2825567E+03  0.7818608E-02  0.1094899E+00
         21   -1    0    0  503  502  0.00000000000E+00  0.00000000000E+00  0.45918494179E+03  0.45918494179E+03  0.00000000000E+00 0.  1.
         21   -1    0    0  501  503 -0.00000000000E+00 -0.00000000000E+00 -0.18970383885E+03  0.18970383885E+03  0.00000000000E+00 0.  1.
          6    2    1    2  501    0  0.98451049151E+02 -0.20007809050E+03  0.34300169590E+02  0.28463096633E+03  0.17353510878E+03 0.  0.
         24    2    3    3    0    0  0.46451966731E+02 -0.66935552944E+02  0.73962066945E+02  0.13621939002E+03  0.80294342327E+02 0.  0.
         -6    2    1    2    0  502 -0.98451049151E+02  0.20007809050E+03  0.23518093335E+03  0.36425781431E+03  0.16628238782E+03 0.  0.
        -24    2    5    5    0    0 -0.11727338078E+03  0.97013904335E+02  0.16005015215E+03  0.23524916762E+03  0.81002322117E+02 0.  0.
          5    1    3    3  501    0  0.51999082420E+02 -0.13314253756E+03 -0.39661897356E+02  0.14841157631E+03  0.47000000000E+01 0. -1.
        -13    1    4    4    0    0 -0.13755284005E+02 -0.68913418886E+01  0.43095948592E+02  0.45759799127E+02  0.00000000000E+00 0.  1.
         14    1    4    4    0    0  0.60207250736E+02 -0.60044211055E+02  0.30866118353E+02  0.90459590893E+02  0.00000000000E+00 0. -1.
         -5    1    5    5    0  502  0.18822331631E+02  0.10306418617E+03  0.75130781199E+02  0.12900864669E+03  0.47000000000E+01 0.  1.
         11    1    6    6    0    0  0.71723858641E+01 -0.38243112705E+01  0.23178271262E+02  0.24562180977E+02  0.00000000000E+00 0. -1.
        -12    1    6    6    0    0 -0.12444576665E+03  0.10083821561E+03  0.13687188089E+03  0.21068698664E+03  0.00000000000E+00 0.  1.
</event>
<event>
12    1  0.8344842E-002  0.3891641E+03  0.7818608E-02  0.1047976E+00
         21   -1    0    0  503  502  0.00000000000E+00  0.00000000000E+00  0.22117860340E+03  0.22117860340E+03  0.00000000000E+00 0. -1.
         21   -1    0    0  501  503 -0.00000000000E+00 -0.00000000000E+00 -0.11039623519E+04  0.11039623519E+04  0.00000000000E+00 0.  1.
          6    2    1    2  501    0 -0.29580813255E+02 -0.34328518021E+03 -0.85472893091E+03  0.93915401136E+03  0.18091150395E+03 0.  0.
         24    2    3    3    0    0  0.21013188531E+01 -0.30652976065E+03 -0.58868213494E+03  0.66867719903E+03  0.81348821788E+02 0.  0.
         -6    2    1    2    0  502  0.29580813255E+02  0.34328518021E+03 -0.28054817574E+02  0.38598694392E+03  0.17169481245E+03 0.  0.
        -24    2    5    5    0    0 -0.11027512572E+02  0.18003449100E+03 -0.78584598249E+02  0.21027361947E+03  0.74198598237E+02 0.  0.
          5    1    3    3  501    0 -0.31682132108E+02 -0.36755419560E+02 -0.26604679597E+03  0.27047681233E+03  0.47000000000E+01 0. -1.
        -11    1    4    4    0    0 -0.36338435814E+02 -0.19986467548E+03 -0.39762256334E+03  0.44650876061E+03  0.00000000000E+00 0.  1.
         12    1    4    4    0    0  0.38439754667E+02 -0.10666508517E+03 -0.19105957160E+03  0.22216843843E+03  0.00000000000E+00 0. -1.
         -5    1    5    5    0  502  0.40608325827E+02  0.16325068921E+03  0.50529780676E+02  0.17571332445E+03  0.47000000000E+01 0.  1.
         11    1    6    6    0    0 -0.95903967715E+01  0.75536793932E+02  0.52093511659E+01  0.76321165396E+02  0.00000000000E+00 0. -1.
        -12    1    6    6    0    0 -0.14371158010E+01  0.10449769707E+03 -0.83793949415E+02  0.13395245408E+03  0.00000000000E+00 0.  1.
</event>
<event>
12    1  0.8344842E-002  0.1856505E+03  0.7818608E-02  0.1162624E+00
         21   -1    0    0  503  502  0.00000000000E+00  0.00000000000E+00  0.38903856064E+02  0.38903856064E+02  0.00000000000E+00 0.  1.
         21   -1    0    0  501  503 -0.00000000000E+00 -0.00000000000E+00 -0.93738966457E+03  0.93738966457E+03  0.00000000000E+00 0.  1.
          6    2    1    2  501    0 -0.14540661961E+02  0.68980011203E+02 -0.32996880193E+03  0.37823190867E+03  0.17091019188E+03 0.  0.
         24    2    3    3    0    0  0.25437904722E+02  0.11032892058E+02 -0.27886121342E+03  0.29110998252E+03  0.78820263070E+02 0.  0.
         -6    2    1    2    0  502  0.14540661961E+02 -0.68980011203E+02 -0.56851700657E+03  0.59806161197E+03  0.17174525365E+03 0.  0.
        -24    2    5    5    0    0 -0.40925088241E+02  0.44237406697E+01 -0.35810638668E+03  0.36836773047E+03  0.75895772877E+02 0.  0.
          5    1    3    3  501    0 -0.39978566683E+02  0.57947119145E+02 -0.51107588514E+02  0.87121926144E+02  0.47000000000E+01 0. -1.
        -11    1    4    4    0    0  0.40966307516E+02 -0.22992057814E+01 -0.69181967388E+02  0.80434254584E+02  0.00000000000E+00 0.  1.
         12    1    4    4    0    0 -0.15528402794E+02  0.13332097840E+02 -0.20967924603E+03  0.21067572794E+03  0.00000000000E+00 0. -1.
         -5    1    5    5    0  502  0.55465750202E+02 -0.73403751873E+02 -0.21041061989E+03  0.22969388149E+03  0.47000000000E+01 0.  1.
         11    1    6    6    0    0  0.16640446412E+02  0.13480268277E+02 -0.17260869912E+03  0.17393212786E+03  0.00000000000E+00 0. -1.
        -12    1    6    6    0    0 -0.57565534652E+02 -0.90565276070E+01 -0.18549768756E+03  0.19443560261E+03  0.00000000000E+00 0.  1.
</event>
<event>
12    1  0.8344842E-002  0.2070553E+03  0.7818608E-02  0.1144337E+00
         21   -1    0    0  501  502  0.00000000000E+00  0.00000000000E+00  0.69422607086E+03  0.69422607086E+03  0.00000000000E+00 0.  1.
         21   -1    0    0  502  503 -0.00000000000E+00 -0.00000000000E+00 -0.62213408080E+02  0.62213408080E+02  0.00000000000E+00 0. -1.
         -6    2    1    2    0  503  0.35800357261E+02 -0.10910933282E+03  0.26792157791E+03  0.33860576273E+03  0.17229445306E+03 0.  0.
        -24    2    3    3    0    0 -0.31000773857E+02 -0.32447095875E+02  0.18743665860E+03  0.20883904154E+03  0.80420036515E+02 0.  0.
          6    2    1    2  501    0 -0.35800357261E+02  0.10910933282E+03  0.36409108486E+03  0.41783371620E+03  0.16981220283E+03 0.  0.
         24    2    5    5    0    0 -0.57023697027E+02  0.12410564237E+02  0.23411475703E+03  0.25438030451E+03  0.80584711556E+02 0.  0.
          5    1    5    5  501    0  0.21223339766E+02  0.96698768588E+02  0.12997632783E+03  0.16345341169E+03  0.47000000000E+01 0. -1.
        -11    1    6    6    0    0 -0.66667466920E+02  0.13817832929E+02  0.23493342125E+03  0.24460007374E+03  0.00000000000E+00 0.  1.
         12    1    6    6    0    0  0.96437698925E+01 -0.14072686922E+01 -0.81866421788E+00  0.97802307751E+01  0.00000000000E+00 0. -1.
         -5    1    3    3    0  503  0.66801131118E+02 -0.76662236950E+02  0.80484919318E+02  0.12976672120E+03  0.47000000000E+01 0.  1.
         13    1    4    4    0    0 -0.23699963148E+02  0.15000338354E+01  0.65282072412E+01  0.24628354483E+02  0.00000000000E+00 0. -1.
        -14    1    4    4    0    0 -0.73008107089E+01 -0.33947129710E+02  0.18090845136E+03  0.18421068705E+03  0.00000000000E+00 0.  1.
</event>
<event>
12    1  0.8344842E-002  0.1854480E+03  0.7818608E-02  0.1163146E+00
         21   -1    0    0  503  502  0.00000000000E+00  0.00000000000E+00  0.47926550526E+03  0.47926550526E+03  0.00000000000E+00 0.  1.
         21   -1    0    0  501  503 -0.00000000000E+00 -0.00000000000E+00 -0.94837802533E+02  0.94837802533E+02  0.00000000000E+00 0.  1.
          6    2    1    2  501    0  0.24226004181E+02 -0.62573320641E+02  0.33553847624E+03  0.38231924714E+03  0.17052746982E+03 0.  0.
         24    2    3    3    0    0  0.31888523686E+02 -0.37446631084E+01  0.30074370312E+03  0.31338238190E+03  0.82041708150E+02 0.  0.
         -6    2    1    2    0  502 -0.24226004181E+02  0.62573320641E+02  0.48889226493E+02  0.19178406066E+03  0.17288334136E+03 0.  0.
        -24    2    5    5    0    0 -0.78917322754E+02  0.22696864972E+02  0.52090303422E+02  0.12386050850E+03  0.76713325732E+02 0.  0.
          5    1    3    3  501    0 -0.76625195055E+01 -0.58828657533E+02  0.34794773117E+02  0.68936865236E+02  0.47000000000E+01 0. -1.
        -11    1    4    4    0    0  0.44707118261E+02 -0.32922111820E+02  0.17128446824E+03  0.18005821540E+03  0.00000000000E+00 0.  1.
         12    1    4    4    0    0 -0.12818594574E+02  0.29177448711E+02  0.12945923488E+03  0.13332416651E+03  0.00000000000E+00 0. -1.
         -5    1    5    5    0  502  0.54691318574E+02  0.39876455669E+02 -0.32010769299E+01  0.67923552157E+02  0.47000000000E+01 0.  1.
         13    1    6    6    0    0 -0.59997705048E+02  0.46144248941E+01 -0.56762804214E+01  0.60442019222E+02  0.00000000000E+00 0. -1.
        -14    1    6    6    0    0 -0.18919617706E+02  0.18082440078E+02  0.57766583844E+02  0.63418489278E+02  0.00000000000E+00 0.  1.
</event>
<event>
12    1  0.8344842E-002  0.2348302E+03  0.7818608E-02  0.1123343E+00
         21   -1    0    0  503  502  0.00000000000E+00  0.00000000000E+00  0.40317846401E+04  0.40317846401E+04  0.00000000000E+00 0. -1.
         21   -1    0    0  501  503 -0.00000000000E+00 -0.00000000000E+00 -0.54883519062E+02  0.54883519062E+02  0.00000000000E+00 0.  1.
          6    2    1    2  501    0  0.11841350220E+03  0.10976911047E+03  0.21717472107E+03  0.31961522076E+03  0.17005297632E+03 0.  0.
         24    2    3    3    0    0  0.12693364761E+03  0.13733683539E+03  0.17773192233E+03  0.27051942962E+03  0.81354583997E+02 0.  0.
         -6    2    1    2    0  502 -0.11841350220E+03 -0.10976911047E+03  0.37597264000E+04  0.37670529384E+04  0.17051165054E+03 0.  0.
        -24    2    5    5    0    0 -0.37530270285E+02 -0.71867725134E+02  0.11203776801E+04  0.11261889951E+04  0.80510964478E+02 0.  0.
          5    1    3    3  501    0 -0.85201454037E+01 -0.27567724925E+02  0.39442798740E+02  0.49095791140E+02  0.47000000000E+01 0. -1.
        -13    1    4    4    0    0  0.12061061800E+03  0.12019353452E+03  0.18447133384E+03  0.25104398006E+03  0.00000000000E+00 0.  1.
         14    1    4    4    0    0  0.63230296089E+01  0.17143300871E+02 -0.67394115107E+01  0.19475449563E+02  0.00000000000E+00 0. -1.
         -5    1    5    5    0  502 -0.80883231917E+02 -0.37901385333E+02  0.26393487199E+04  0.26408639434E+04  0.47000000000E+01 0.  1.
         13    1    6    6    0    0  0.12699929818E+02  0.40833543136E+01  0.37980206212E+03  0.38003627246E+03  0.00000000000E+00 0. -1.
        -14    1    6    6    0    0 -0.50230200103E+02 -0.75951079447E+02  0.74057561802E+03  0.74615272263E+03  0.00000000000E+00 0.  1.
</event>
<event>
12    1  0.8344842E-002  0.2847174E+03  0.7818608E-02  0.1093739E+00
         21   -1    0    0  503  502  0.00000000000E+00  0.00000000000E+00  0.46981198454E+03  0.46981198454E+03  0.00000000000E+00 0. -1.
         21   -1    0    0  501  503 -0.00000000000E+00 -0.00000000000E+00 -0.39895139409E+03  0.39895139409E+03  0.00000000000E+00 0. -1.
          6    2    1    2  501    0  0.17360528747E+03 -0.13630907649E+03 -0.29384833302E+03  0.40607927310E+03  0.17272687415E+03 0.  0.
         24    2    3    3    0    0  0.13988840613E+03 -0.13731308309E+03 -0.15205396827E+03  0.26025208774E+03  0.78658063459E+02 0.  0.
         -6    2    1    2    0  502 -0.17360528747E+03  0.13630907649E+03  0.36470892346E+03  0.46268410553E+03  0.17984721983E+03 0.  0.
        -24    2    5    5    0    0 -0.98898254639E+02  0.62726558029E+02  0.31846282581E+03  0.34798310585E+03  0.77189278283E+02 0.  0.
          5    1    3    3  501    0  0.33716881341E+02  0.10040066030E+01 -0.14179436474E+03  0.14582718536E+03  0.47000000000E+01 0. -1.
        -11    1    4    4    0    0  0.13624546200E+02 -0.62210232166E+02 -0.37026737917E+02  0.73666278350E+02  0.00000000000E+00 0.  1.
         12    1    4    4    0    0  0.12626385993E+03 -0.75102850928E+02 -0.11502723035E+03  0.18658580939E+03  0.00000000000E+00 0. -1.
         -5    1    5    5    0  502 -0.74707032835E+02  0.73582518462E+02  0.46246097653E+02  0.11470099967E+03  0.47000000000E+01 0.  1.
         13    1    6    6    0    0 -0.50226483424E+02  0.56522952577E+01  0.57991102082E+02  0.76926042401E+02  0.00000000000E+00 0. -1.
        -14    1    6    6    0    0 -0.48671771216E+02  0.57074262772E+02  0.26047172373E+03  0.27105706345E+03  0.00000000000E+00 0.  1.
</event>
<event>
12    1  0.8344842E-002  0.1910416E+03  0.7818608E-02  0.1157678E+00
         21   -1    0    0  503  502  0.00000000000E+00  0.00000000000E+00  0.23896592007E+03  0.23896592007E+03  0.00000000000E+00 0.  1.
         21   -1    0    0  501  503 -0.00000000000E+00 -0.00000000000E+00 -0.57870158981E+03  0.57870158981E+03  0.00000000000E+00 0.  1.
          6    2    1    2  501    0 -0.21802903516E+02 -0.83406590934E+02 -0.52077248186E+03  0.55447327829E+03  0.16971921653E+03 0.  0.
         24    2    3    3    0    0 -0.53527025483E+02 -0.78956778345E+01 -0.18559237941E+03  0.20939921523E+03  0.80473696705E+02 0.  0.
         -6    2    1    2    0  502  0.21802903516E+02  0.83406590934E+02  0.18103681212E+03  0.26319423159E+03  0.17048416404E+03 0.  0.
        -24    2    5    5    0    0  0.12079294411E+02 -0.20202330647E+02  0.85247661170E+02  0.12167741759E+03  0.83571446676E+02 0.  0.
          5    1    3    3  501    0  0.31724121968E+02 -0.75510913100E+02 -0.33518010245E+03  0.34507406305E+03  0.47000000000E+01 0. -1.
        -11    1    4    4    0    0 -0.28720493518E+02 -0.64215883433E+01 -0.18191281593E+03  0.18427798606E+03  0.00000000000E+00 0.  1.
         12    1    4    4    0    0 -0.24806531966E+02 -0.14740894913E+01 -0.36795634736E+01  0.25121229177E+02  0.00000000000E+00 0. -1.
         -5    1    5    5    0  502  0.97236091046E+01  0.10360892158E+03  0.95789150950E+02  0.14151681400E+03  0.47000000000E+01 0.  1.
         13    1    6    6    0    0  0.28722090337E+02 -0.13446845667E+02 -0.27803460335E+01  0.31835616152E+02  0.00000000000E+00 0. -1.
        -14    1    6    6    0    0 -0.16642795925E+02 -0.67554849801E+01  0.88028007204E+02  0.89841801439E+02  0.00000000000E+00 0.  1.
</event>
<event>
12    1  0.8344842E-002  0.1770311E+03  0.7818608E-02  0.1171260E+00
         21   -1    0    0  503  502  0.00000000000E+00  0.00000000000E+00  0.54937037983E+03  0.54937037983E+03  0.00000000000E+00 0. -1.
         21   -1    0    0  501  503 -0.00000000000E+00 -0.00000000000E+00 -0.62527719659E+02  0.62527719659E+02  0.00000000000E+00 0. -1.
          6    2    1    2  501    0 -0.69434141992E+01 -0.31581306035E+02  0.14852049873E+03  0.23108085933E+03  0.17405296641E+03 0.  0.
         24    2    3    3    0    0 -0.69315076139E+01 -0.73898870574E+02  0.15018080266E+03  0.18847073120E+03  0.86358868460E+02 0.  0.
         -6    2    1    2    0  502  0.69434141992E+01  0.31581306035E+02  0.33832216145E+03  0.38081724016E+03  0.17179725138E+03 0.  0.
        -24    2    5    5    0    0  0.67215986863E+02 -0.25993400050E+01  0.19479888423E+03  0.22137408200E+03  0.80840172107E+02 0.  0.
          5    1    3    3  501    0 -0.11906585348E-01  0.42317564539E+02 -0.16603039374E+01  0.42610128132E+02  0.47000000000E+01 0. -1.
        -11    1    4    4    0    0  0.37126862252E+02 -0.51322744414E+02  0.96643198583E+02  0.11555230775E+03  0.00000000000E+00 0.  1.
         12    1    4    4    0    0 -0.44058369866E+02 -0.22576126159E+02  0.53537604081E+02  0.72918423449E+02  0.00000000000E+00 0. -1.
         -5    1    5    5    0  502 -0.60272572664E+02  0.34180646040E+02  0.14352327722E+03  0.15944315815E+03  0.47000000000E+01 0.  1.
         11    1    6    6    0    0  0.12786391335E+02 -0.91979966080E+01  0.14929314890E+03  0.15012174810E+03  0.00000000000E+00 0. -1.
        -12    1    6    6    0    0  0.54429595527E+02  0.65986566030E+01  0.45505735334E+02  0.71252333902E+02  0.00000000000E+00 0.  1.
</event>
<event>
12    1  0.8344842E-002  0.1791282E+03  0.7818608E-02  0.1168834E+00
         21   -1    0    0  501  502  0.00000000000E+00  0.00000000000E+00  0.46409227820E+03  0.46409227820E+03  0.00000000000E+00 0. -1.
         21   -1    0    0  502  503 -0.00000000000E+00 -0.00000000000E+00 -0.10311515182E+03  0.10311515182E+03  0.00000000000E+00 0. -1.
         -6    2    1    2    0  503 -0.19936574440E+02 -0.43933567737E+02  0.16741730819E+02  0.17915468239E+03  0.17172212815E+03 0.  0.
        -24    2    3    3    0    0 -0.90265956820E+01 -0.42070114037E+02  0.76024132595E+02  0.11866506959E+03  0.80314108844E+02 0.  0.
          6    2    1    2  501    0  0.19936574440E+02  0.43933567737E+02  0.34423539556E+03  0.38805274764E+03  0.17250884621E+03 0.  0.
         24    2    5    5    0    0  0.24087627999E+02 -0.16121460853E+02  0.82082265116E+02  0.11903566360E+03  0.81190366664E+02 0.  0.
          5    1    5    5  501    0 -0.41510535592E+01  0.60055028590E+02  0.26215313044E+03  0.26901708404E+03  0.47000000000E+01 0. -1.
        -13    1    6    6    0    0  0.40171931093E+02 -0.37722757946E+02  0.71088423133E+02  0.89946397473E+02  0.00000000000E+00 0.  1.
         14    1    6    6    0    0 -0.16084303094E+02  0.21601297094E+02  0.10993841983E+02  0.29089266125E+02  0.00000000000E+00 0. -1.
         -5    1    3    3    0  503 -0.10909978758E+02 -0.18634537002E+01 -0.59282401776E+02  0.60489612799E+02  0.47000000000E+01 0.  1.
         13    1    4    4    0    0  0.19047817804E+02 -0.55432800873E+02  0.39413759431E+02  0.70633272671E+02  0.00000000000E+00 0. -1.
        -14    1    4    4    0    0 -0.28074413486E+02  0.13362686836E+02  0.36610373164E+02  0.48031796919E+02  0.00000000000E+00 0.  1.
</event>
<event>
12    1  0.8344842E-002  0.2026002E+03  0.7818608E-02  0.1149188E+00
         21   -1    0    0  503  502  0.00000000000E+00  0.00000000000E+00  0.52041529126E+02  0.52041529126E+02  0.00000000000E+00 0.  1.
         21   -1    0    0  501  503 -0.00000000000E+00 -0.00000000000E+00 -0.86886935454E+03  0.86886935454E+03  0.00000000000E+00 0. -1.
          6    2    1    2  501    0 -0.98192448641E+02 -0.44554996908E+02 -0.56513074285E+03  0.59780371474E+03  0.16238725357E+03 0.  0.
         24    2    3    3    0    0 -0.99946674917E+02 -0.16836943207E+02 -0.24887847674E+03  0.28029945708E+03  0.79714923149E+02 0.  0.
         -6    2    1    2    0  502  0.98192448641E+02  0.44554996908E+02 -0.25169708256E+03  0.32310716893E+03  0.17152234992E+03 0.  0.
        -24    2    5    5    0    0  0.54224682526E+02  0.73932649205E+02 -0.23834095867E+03  0.26836516534E+03  0.82505130578E+02 0.  0.
          5    1    3    3  501    0  0.17542262763E+01 -0.27718053702E+02 -0.31625226611E+03  0.31750425765E+03  0.47000000000E+01 0. -1.
        -13    1    4    4    0    0 -0.61006758509E+02 -0.49069165599E+02 -0.14564878596E+03  0.16535772267E+03  0.00000000000E+00 0.  1.
         14    1    4    4    0    0 -0.38939916408E+02  0.32232222392E+02 -0.10322969078E+03  0.11494173441E+03  0.00000000000E+00 0. -1.
         -5    1    5    5    0  502  0.43967766115E+02 -0.29377652297E+02 -0.13356123892E+02  0.54742003590E+02  0.47000000000E+01 0.  1.
         13    1    6    6    0    0 -0.17579423789E+02  0.84064993251E+01 -0.81869509819E+02  0.84156532780E+02  0.00000000000E+00 0. -1.
        -14    1    6    6    0    0  0.71804106315E+02  0.65526149880E+02 -0.15647144885E+03  0.18420863256E+03  0.00000000000E+00 0.  1.
</event>
<event>
12    1  0.8344842E-002  0.1984646E+03  0.7818608E-02  0.1151137E+00
         21   -1    0    0  503  502  0.00000000000E+00  0.00000000000E+00  0.65196266731E+03  0.65196266731E+03  0.00000000000E+00 0.  1.
         21   -1    0    0  501  503 -0.00000000000E+00 -0.00000000000E+00 -0.60617717629E+02  0.60617717629E+02  0.00000000000E+00 0.  1.
          6    2    1    2  501    0 -0.99118436099E+02 -0.33979017896E+01  0.26864337505E+03  0.33373408049E+03  0.17138600705E+03 0.  0.
         24    2    3    3    0    0 -0.11323074089E+03 -0.43877464221E+02  0.15889817622E+03  0.21581948942E+03  0.81135621396E+02 0.  0.
         -6    2    1    2    0  502  0.99118436099E+02  0.33979017896E+01  0.32270157463E+03  0.37884630444E+03  0.17190755077E+03 0.  0.
        -24    2    5    5    0    0  0.41078086171E+02 -0.52900182526E+02  0.22660833675E+03  0.25317149836E+03  0.90877009327E+02 0.  0.
          5    1    3    3  501    0  0.14112304793E+02  0.40479562431E+02  0.10974519883E+03  0.11791459107E+03  0.47000000000E+01 0. -1.
        -13    1    4    4    0    0 -0.78962489072E+02 -0.49128611885E+02  0.15523237665E+03  0.18095796735E+03  0.00000000000E+00 0.  1.
         14    1    4    4    0    0 -0.34268251819E+02  0.52511476642E+01  0.36657995630E+01  0.34861522069E+02  0.00000000000E+00 0. -1.
         -5    1    5    5    0  502  0.58040349928E+02  0.56298084316E+02  0.96093237883E+02  0.12567480608E+03  0.47000000000E+01 0.  1.
         11    1    6    6    0    0 -0.11917675484E+02  0.19648203323E+02  0.49777713104E+02  0.54826121554E+02  0.00000000000E+00 0. -1.
        -12    1    6    6    0    0  0.52995761655E+02 -0.72548385849E+02  0.17683062364E+03  0.19834537681E+03  0.00000000000E+00 0.  1.
</event>
<event>
12    1  0.8344842E-002  0.1852936E+03  0.7818608E-02  0.1163958E+00
         21   -1    0    0  503  502  0.00000000000E+00  0.00000000000E+00  0.74870976867E+02  0.74870976867E+02  0.00000000000E+00 0. -1.
         21   -1    0    0  501  503 -0.00000000000E+00 -0.00000000000E+00 -0.62484144510E+03  0.62484144510E+03  0.00000000000E+00 0. -1.
          6    2    1    2  501    0  0.68144158802E+02  0.15248090926E+02 -0.45931112224E+03  0.49342904698E+03  0.16622089742E+03 0.  0.
         24    2    3    3    0    0  0.31464740211E+02  0.55882519421E+02 -0.16425687990E+03  0.19330301937E+03  0.79201318486E+02 0.  0.
         -6    2    1    2    0  502 -0.68144158802E+02 -0.15248090926E+02 -0.90659345993E+02  0.20628337498E+03  0.17163211565E+03 0.  0.
        -24    2    5    5    0    0 -0.11874086602E+01 -0.64097580208E+02 -0.41467088807E+02  0.10978753487E+03  0.78891530790E+02 0.  0.
          5    1    3    3  501    0  0.36679418591E+02 -0.40634428495E+02 -0.29505424234E+03  0.30012602761E+03  0.47000000000E+01 0. -1.
        -13    1    4    4    0    0  0.13665309884E+01  0.42454942221E+02 -0.15250957296E+03  0.15831443197E+03  0.00000000000E+00 0.  1.
         14    1    4    4    0    0  0.30098209222E+02  0.13427577200E+02 -0.11747306939E+02  0.34988587399E+02  0.00000000000E+00 0. -1.
         -5    1    5    5    0  502 -0.66956750142E+02  0.48849489282E+02 -0.49192257186E+02  0.96495840116E+02  0.47000000000E+01 0.  1.
         11    1    6    6    0    0 -0.15495043489E+02 -0.69174211545E+02 -0.59211111801E+01  0.71135275870E+02  0.00000000000E+00 0. -1.
        -12    1    6    6    0    0  0.14307634829E+02  0.50766313365E+01 -0.35545977627E+02  0.38652258997E+02  0.00000000000E+00 0.  1.
</event>
<event>
12    1  0.8344842E-002  0.2067403E+03  0.7818608E-02  0.1145159E+00
         21   -1    0    0  501  502  0.00000000000E+00  0.00000000000E+00  0.30288979788E+03  0.30288979788E+03  0.00000000000E+00 0.  1.
         21   -1    0    0  502  503 -0.00000000000E+00 -0.00000000000E+00 -0.14036414835E+03  0.14036414835E+03  0.00000000000E+00 0. -1.
         -6    2    1    2    0  503  0.96838699163E+02 -0.57534870641E+02  0.11189340074E+03  0.23507800758E+03  0.17335957292E+03 0.  0.
        -24    2    3    3    0    0  0.73672002040E+02 -0.76426595859E+02  0.12320104454E+02  0.13100820182E+03  0.75781102731E+02 0.  0.
          6    2    1    2  501    0 -0.96838699163E+02  0.57534870641E+02  0.50632248791E+02  0.20817593865E+03  0.16758759447E+03 0.  0.
         24    2    5    5    0    0 -0.64351657037E+02  0.41871461587E+02  0.98415239262E+02  0.14812550595E+03  0.79757451902E+02 0.  0.
          5    1    5    5  501    0 -0.32487042126E+02  0.15663409054E+02 -0.47782990471E+02  0.60050432702E+02  0.47000000000E+01 0. -1.
        -13    1    6    6    0    0 -0.58556117679E+01  0.11257342217E+02  0.77989842596E+02  0.79015387686E+02  0.00000000000E+00 0.  1.
         14    1    6    6    0    0 -0.58496045269E+02  0.30614119370E+02  0.20425396665E+02  0.69110118259E+02  0.00000000000E+00 0. -1.
         -5    1    3    3    0  503  0.23166697123E+02  0.18891725219E+02  0.99573296288E+02  0.10406980576E+03  0.47000000000E+01 0.  1.
         11    1    4    4    0    0 -0.34283407397E+01 -0.13708313154E+02 -0.21754565657E+02  0.25940942479E+02  0.00000000000E+00 0. -1.
        -12    1    4    4    0    0  0.77100342780E+02 -0.62718282706E+02  0.34074670111E+02  0.10506725934E+03  0.00000000000E+00 0.  1.
</event>
<event>
12    1  0.8344842E-002  0.1991056E+03  0.7818608E-02  0.1152029E+00
         21   -1    0    0  503  502  0.00000000000E+00  0.00000000000E+00  0.28554504475E+03  0.28554504475E+03  0.00000000000E+00 0. -1.
         21   -1    0    0  501  503 -0.00000000000E+00 -0.00000000000E+00 -0.13535780743E+03  0.13535780743E+03  0.00000000000E+00 0.  1.
          6    2    1    2  501    0 -0.72611613450E+02  0.44408165517E+02  0.54875374798E+02  0.20652924278E+03  0.17999580493E+03 0.  0.
         24    2    3    3    0    0 -0.68274544586E+02 -0.20976857372E+02 -0.14411434518E+02  0.11104749935E+03  0.83799854909E+02 0.  0.
         -6    2    1    2    0  502  0.72611613450E+02 -0.44408165517E+02  0.95311862522E+02  0.21437360939E+03  0.17212542430E+03 0.  0.
        -24    2    5    5    0    0  0.57195760665E+01 -0.22497224325E+02  0.11510717685E+03  0.14110302540E+03  0.78240417690E+02 0.  0.
          5    1    3    3  501    0 -0.43370688630E+01  0.65385022888E+02  0.69286809316E+02  0.95481743436E+02  0.47000000000E+01 0. -1.
        -13    1    4    4    0    0 -0.87720213092E+02 -0.18378861242E+02 -0.63895387313E+01  0.89852348498E+02  0.00000000000E+00 0.  1.
         14    1    4    4    0    0  0.19445668505E+02 -0.25979961291E+01 -0.80218957868E+01  0.21195150849E+02  0.00000000000E+00 0. -1.
         -5    1    5    5    0  502  0.66892037383E+02 -0.21910941192E+02 -0.19795314329E+02  0.73270583992E+02  0.47000000000E+01 0.  1.
         13    1    6    6    0    0  0.28826110817E+02 -0.16405158797E+02  0.11223702969E+03  0.11703514316E+03  0.00000000000E+00 0. -1.
        -14    1    6    6    0    0 -0.23106534751E+02 -0.60920655278E+01  0.28701471572E+01  0.24067882235E+02  0.00000000000E+00 0.  1.
</event>
<event>
12    1  0.8344842E-002  0.1930261E+03  0.7818608E-02  0.1155962E+00
         21   -1    0    0  503  502  0.00000000000E+00  0.00000000000E+00  0.31456547367E+03  0.31456547367E+03  0.00000000000E+00 0. -1.
         21   -1    0    0  501  503 -0.00000000000E+00 -0.00000000000E+00 -0.20491321730E+03  0.20491321730E+03  0.00000000000E+00 0. -1.
          6    2    1    2  501    0 -0.25295585763E+02 -0.82391293287E+02 -0.11436733164E+03  0.22436347385E+03  0.17271621227E+03 0.  0.
         24    2    3    3    0    0 -0.83862075762E+02 -0.50692586281E+02 -0.75581434126E+02  0.14715416338E+03  0.79619146947E+02 0.  0.
         -6    2    1    2    0  502  0.25295585763E+02  0.82391293287E+02  0.22401958801E+03  0.29511521712E+03  0.17169747726E+03 0.  0.
        -24    2    5    5    0    0 -0.39651691055E+02  0.25011988784E+02  0.16708284131E+03  0.19131533044E+03  0.80542061147E+02 0.  0.
          5    1    3    3  501    0  0.58566489999E+02 -0.31698707006E+02 -0.38785897518E+02  0.77209310468E+02  0.47000000000E+01 0. -1.
        -13    1    4    4    0    0 -0.24995835995E+02  0.91046029310E+01  0.89300622808E+01  0.28061212090E+02  0.00000000000E+00 0.  1.
         14    1    4    4    0    0 -0.58866239766E+02 -0.59797189212E+02 -0.84511496407E+02  0.11909295129E+03  0.00000000000E+00 0. -1.
         -5    1    5    5    0  502  0.64947276818E+02  0.57379304504E+02  0.56936746692E+02  0.10379988668E+03  0.47000000000E+01 0.  1.
         13    1    6    6    0    0 -0.51339590729E+02  0.20590549187E+02  0.53190567869E+02  0.76739564778E+02  0.00000000000E+00 0. -1.
        -14    1    6    6    0    0  0.11687899674E+02  0.44214395966E+01  0.11389227344E+03  0.11457576566E+03  0.00000000000E+00 0.  1.
</event>
<event>
12    1  0.8344842E-002  0.2465990E+03  0.7818608E-02  0.1115502E+00
         21   -1    0    0  503  502  0.00000000000E+00  0.00000000000E+00  0.44388581708E+03  0.44388581708E+03  0.00000000000E+00 0. -1.
         21   -1    0    0  501  503 -0.00000000000E+00 -0.00000000000E+00 -0.38895130662E+03  0.38895130662E+03  0.00000000000E+00 0.  1.
          6    2    1    2  501    0  0.16624273792E+03 -0.60704435205E+02 -0.30775513006E+03  0.39425437919E+03  0.17146900324E+03 0.  0.
         24    2    3    3    0    0  0.17926855176E+03 -0.18954086310E+02 -0.22851424960E+03  0.30362342094E+03  0.86440432858E+02 0.  0.
         -6    2    1    2    0  502 -0.16624273792E+03  0.60704435205E+02  0.36268964052E+03  0.43858274451E+03  0.17172469851E+03 0.  0.
        -24    2    5    5    0    0 -0.25048463600E+02  0.60597586721E+02  0.12756698196E+03  0.16428256390E+03  0.80099518534E+02 0.  0.
          5    1    3    3  501    0 -0.13025813841E+02 -0.41750348896E+02 -0.79240880455E+02  0.90630958256E+02  0.47000000000E+01 0. -1.
        -13    1    4    4    0    0  0.52525018073E+02 -0.29056493116E+02 -0.12859302510E+03  0.14191308404E+03  0.00000000000E+00 0.  1.
         14    1    4    4    0    0  0.12674353369E+03  0.10102406807E+02 -0.99921224497E+02  0.16171033690E+03  0.00000000000E+00 0. -1.
         -5    1    5    5    0  502 -0.14119427432E+03  0.10684848426E+00  0.23512265855E+03  0.27430018061E+03  0.47000000000E+01 0.  1.
         13    1    6    6    0    0  0.17833441044E+01 -0.13948628363E+02  0.55254090755E+02  0.57015428566E+02  0.00000000000E+00 0. -1.
        -14    1    6    6    0    0 -0.26831807704E+02  0.74546215084E+02  0.72312891209E+02  0.10726713533E+03  0.00000000000E+00 0.  1.
</event>
<event>
12    1  0.8344842E-002  0.2096819E+03  0.7818608E-02  0.1141848E+00
         21   -1    0    0  501  502  0.00000000000E+00  0.00000000000E+00  0.14646265227E+04  0.14646265227E+04  0.00000000000E+00 0. -1.
         21   -1    0    0  502  503 -0.00000000000E+00 -0.00000000000E+00 -0.32702501077E+02  0.32702501077E+02  0.00000000000E+00 0.  1.
         -6    2    1    2    0  503  0.25178017638E+02  0.11874355974E+03  0.93151654905E+03  0.95482438053E+03  0.17097529341E+03 0.  0.
        -24    2    3    3    0    0  0.34181939472E+02  0.15246145282E+03  0.79311390997E+03  0.81201210016E+03  0.76948534990E+02 0.  0.
          6    2    1    2  501    0 -0.25178017638E+02 -0.11874355974E+03  0.50040747257E+03  0.54250464324E+03  0.17079134574E+03 0.  0.
         24    2    5    5    0    0  0.21337073114E+02 -0.30054298877E+01  0.12481250986E+03  0.14671096670E+03  0.74038110702E+02 0.  0.
          5    1    5    5  501    0 -0.46515090752E+02 -0.11573812986E+03  0.37559496272E+03  0.39579367654E+03  0.47000000000E+01 0. -1.
        -13    1    6    6    0    0  0.22638575161E+02 -0.10663982402E+02  0.36378326144E+01  0.25287535113E+02  0.00000000000E+00 0.  1.
         14    1    6    6    0    0 -0.13015020470E+01  0.76585525142E+01  0.12117467724E+03  0.12142343159E+03  0.00000000000E+00 0. -1.
         -5    1    3    3    0  503 -0.90039218341E+01 -0.33717893073E+02  0.13840263908E+03  0.14281228037E+03  0.47000000000E+01 0.  1.
         13    1    4    4    0    0  0.50771438730E+02  0.98605754670E+02  0.40836315976E+03  0.42315635892E+03  0.00000000000E+00 0. -1.
        -14    1    4    4    0    0 -0.16589499258E+02  0.53855698146E+02  0.38475075021E+03  0.38885574124E+03  0.00000000000E+00 0.  1.
</event>
<event>
12    1  0.8344842E-002  0.2254054E+03  0.7818608E-02  0.1130320E+00
         21   -1    0    0  503  502  0.00000000000E+00  0.00000000000E+00  0.44534094140E+03  0.44534094140E+03  0.00000000000E+00 0.  1.
         21   -1    0    0  501  503 -0.00000000000E+00 -0.00000000000E+00 -0.21867870991E+03  0.21867870991E+03  0.00000000000E+00 0.  1.
          6    2    1    2  501    0 -0.14293968893E+03 -0.18743621634E+02 -0.11721901536E+03  0.25406280740E+03  0.17327589134E+03 0.  0.
         24    2    3    3    0    0 -0.17493018994E+03 -0.69367136344E+01 -0.91852709711E+02  0.21130377686E+03  0.74590056218E+02 0.  0.
         -6    2    1    2    0  502  0.14293968893E+03  0.18743621634E+02  0.34388124685E+03  0.40995684390E+03  0.17037377704E+03 0.  0.
        -24    2    5    5    0    0  0.61432349889E+01 -0.19407023782E+02  0.11945296662E+03  0.14432762012E+03  0.78403308531E+02 0.  0.
          5    1    3    3  501    0  0.31990501002E+02 -0.11806908000E+02 -0.25366305646E+02  0.42759030544E+02  0.47000000000E+01 0. -1.
        -13    1    4    4    0    0 -0.76094056772E+02 -0.16239228945E+02 -0.79543211643E+02  0.11127057361E+03  0.00000000000E+00 0.  1.
         14    1    4    4    0    0 -0.98836133163E+02  0.93025153111E+01 -0.12309498068E+02  0.10003320325E+03  0.00000000000E+00 0. -1.
         -5    1    5    5    0  502  0.13679645394E+03  0.38150645416E+02  0.22442828023E+03  0.26562922378E+03  0.47000000000E+01 0.  1.
         13    1    6    6    0    0  0.19008908621E+02  0.25791904128E+02  0.64508386638E+02  0.72027028761E+02  0.00000000000E+00 0. -1.
        -14    1    6    6    0    0 -0.12865673632E+02 -0.45198927910E+02  0.54944579979E+02  0.72300591362E+02  0.00000000000E+00 0.  1.
</event>
<event>
12    1  0.8344842E-002  0.1865392E+03  0.7818608E-02  0.1161705E+00
         21   -1    0    0  501  502  0.00000000000E+00  0.00000000000E+00  0.86832858031E+02  0.86832858031E+02  0.00000000000E+00 0. -1.
         21   -1    0    0  502  503 -0.00000000000E+00 -0.00000000000E+00 -0.42440100526E+03  0.42440100526E+03  0.00000000000E+00 0.  1.
         -6    2    1    2    0  503  0.29846184859E+02 -0.65274554141E+02 -0.23029694218E+03  0.29636729164E+03  0.17217818621E+03 0.  0.
        -24    2    3    3    0    0  0.63696767700E+02 -0.85618587981E+02 -0.21729647624E+03  0.25452420635E+03  0.78593843324E+02 0.  0.
          6    2    1    2  501    0 -0.29846184859E+02  0.65274554141E+02 -0.10727120505E+03  0.21486657165E+03  0.17178175110E+03 0.  0.
         24    2    5    5    0    0 -0.40672030388E+02  0.36229646983E+02 -0.14035496690E+03  0.16928772940E+03  0.77408121123E+02 0.  0.
          5    1    5    5  501    0  0.10825845529E+02  0.29044907158E+02  0.33083761846E+02  0.45578842253E+02  0.47000000000E+01 0. -1.
        -13    1    6    6    0    0  0.17832195130E+02 -0.87287541525E+01 -0.20467618268E+02  0.28514938712E+02  0.00000000000E+00 0.  1.
         14    1    6    6    0    0 -0.58504225518E+02  0.44958401135E+02 -0.11988734863E+03  0.14077279069E+03  0.00000000000E+00 0. -1.
         -5    1    3    3    0  503 -0.33850582842E+02  0.20344033841E+02 -0.13000465932E+02  0.41843085284E+02  0.47000000000E+01 0.  1.
         13    1    4    4    0    0  0.57032115138E+02 -0.37760175777E+02 -0.63557482807E+02  0.93370480627E+02  0.00000000000E+00 0. -1.
        -14    1    4    4    0    0  0.66646525629E+01 -0.47858412204E+02 -0.15373899344E+03  0.16115372573E+03  0.00000000000E+00 0.  1.
</event>
<event>
12    1  0.8344842E-002  0.1862133E+03  0.7818608E-02  0.1162113E+00
         21   -1    0    0  503  502  0.00000000000E+00  0.00000000000E+00  0.15611562330E+03  0.15611562330E+03  0.00000000000E+00 0. -1.
         21   -1    0    0  501  503 -0.00000000000E+00 -0.00000000000E+00 -0.28494008331E+03  0.28494008331E+03  0.00000000000E+00 0.  1.
          6    2    1    2  501    0  0.62475143479E+02  0.31737808902E+02 -0.16888059832E+03  0.25138824654E+03  0.17252525015E+03 0.  0.
         24    2    3    3    0    0  0.77728471208E+02 -0.19498477688E+02 -0.16223826286E+03  0.19731393017E+03  0.78674184037E+02 0.  0.
         -6    2    1    2    0  502 -0.62475143479E+02 -0.31737808902E+02  0.40056138313E+02  0.18966746008E+03  0.17163571635E+03 0.  0.
        -24    2    5    5    0    0 -0.80345310228E+02  0.53069118264E+01 -0.21466181088E+02  0.11551397076E+03  0.79994676830E+02 0.  0.
          5    1    3    3  501    0 -0.15253327729E+02  0.51236286590E+02 -0.66423354610E+01  0.54074316368E+02  0.47000000000E+01 0. -1.
        -13    1    4    4    0    0  0.40734843571E+02  0.20903293510E+02 -0.11906943901E+03  0.12756883031E+03  0.00000000000E+00 0.  1.
         14    1    4    4    0    0  0.36993627637E+02 -0.40401771198E+02 -0.43168823850E+02  0.69745099858E+02  0.00000000000E+00 0. -1.
         -5    1    5    5    0  502  0.17870166749E+02 -0.37044720728E+02  0.61522319401E+02  0.74153489318E+02  0.47000000000E+01 0.  1.
         11    1    6    6    0    0  0.17132763024E+01  0.42595128844E+01  0.22120493628E+02  0.22591923425E+02  0.00000000000E+00 0. -1.
        -12    1    6    6    0    0 -0.82058586530E+02  0.10473989420E+01 -0.43586674716E+02  0.92922047334E+02  0.00000000000E+00 0.  1.
</event>
<event>
12    1  0.8344842E-002  0.3162377E+03  0.7818608E-02  0.1077415E+00
         21   -1    0    0  503  502  0.00000000000E+00  0.00000000000E+00  0.16913812045E+03  0.16913812045E+03  0.00000000000E+00 0. -1.
         21   -1    0    0  501  503 -0.00000000000E+00 -0.00000000000E+00 -0.11784514578E+04  0.11784514578E+04  0.00000000000E+00 0. -1.
          6    2    1    2  501    0 -0.26423065295E+03 -0.61464511741E+02 -0.28831754867E+02  0.31737094795E+03  0.16216449782E+03 0.  0.
         24    2    3    3    0    0 -0.10919798583E+03  0.26443066564E+02 -0.13307802228E+02  0.13841298277E+03  0.79734687054E+02 0.  0.
         -6    2    1    2    0  502  0.26423065295E+03  0.61464511741E+02 -0.98048158253E+03  0.10302186303E+04  0.16251328709E+03 0.  0.
        -24    2    5    5    0    0  0.16036434313E+03  0.99377269233E+02 -0.59942884544E+03  0.63342036178E+03  0.79459736885E+02 0.  0.
          5    1    3    3  501    0 -0.15503266712E+03 -0.87907578306E+02 -0.15523952639E+02  0.17895796518E+03  0.47000000000E+01 0. -1.
        -13    1    4    4    0    0 -0.34436592633E+01 -0.17228823003E+02 -0.16286944064E+02  0.23957372104E+02  0.00000000000E+00 0.  1.
         14    1    4    4    0    0 -0.10575432657E+03  0.43671889567E+02  0.29791418354E+01  0.11445561067E+03  0.00000000000E+00 0. -1.
         -5    1    5    5    0  502  0.10386630982E+03 -0.37912757492E+02 -0.38105273709E+03  0.39679826857E+03  0.47000000000E+01 0.  1.
         11    1    6    6    0    0  0.18739509236E+02  0.16382850782E+02 -0.22362998779E+02  0.33461481147E+02  0.00000000000E+00 0. -1.
        -12    1    6    6    0    0  0.14162483389E+03  0.82994418451E+02 -0.57706584666E+03  0.59995888063E+03  0.00000000000E+00 0.  1.
</event>
<event>
12    1  0.8344842E-002  0.1774661E+03  0.7818608E-02  0.1170290E+00
         21   -1    0    0  503  502  0.00000000000E+00  0.00000000000E+00  0.27659234880E+02  0.27659234880E+02  0.00000000000E+00 0. -1.
         21   -1    0    0  501  503 -0.00000000000E+00 -0.00000000000E+00 -0.12658652289E+04  0.12658652289E+04  0.00000000000E+00 0. -1.
          6    2    1    2  501    0  0.45304134892E+02 -0.25635194707E+01 -0.82430398526E+03  0.84318117500E+03  0.17151792177E+03 0.  0.
         24    2    3    3    0    0 -0.13438618595E+02 -0.41673239611E+02 -0.62501159201E+03  0.63171054039E+03  0.80631639693E+02 0.  0.
         -6    2    1    2    0  502 -0.45304134892E+02  0.25635194707E+01 -0.41390200874E+03  0.45034328876E+03  0.17156680513E+03 0.  0.
        -24    2    5    5    0    0 -0.57533020157E+02  0.52244576859E+02 -0.35680478386E+03  0.37353224667E+03  0.78594791797E+02 0.  0.
          5    1    3    3  501    0  0.58742753487E+02  0.39109720140E+02 -0.19929239325E+03  0.21147063461E+03  0.47000000000E+01 0. -1.
        -13    1    4    4    0    0 -0.18575644621E+02 -0.12172384337E+02 -0.38585120844E+02  0.44520029920E+02  0.00000000000E+00 0.  1.
         14    1    4    4    0    0  0.51370260256E+01 -0.29500855274E+02 -0.58642647117E+03  0.58719051047E+03  0.00000000000E+00 0. -1.
         -5    1    5    5    0  502  0.12228885266E+02 -0.49681057388E+02 -0.57097224886E+02  0.76811042095E+02  0.47000000000E+01 0.  1.
         11    1    6    6    0    0 -0.61670023857E+02  0.53741265425E+01 -0.17092265961E+03  0.18178731707E+03  0.00000000000E+00 0. -1.
        -12    1    6    6    0    0  0.41370037001E+01  0.46870450316E+02 -0.18588212425E+03  0.19174492960E+03  0.00000000000E+00 0.  1.
</event>
<event>
12    1  0.8344842E-002  0.1844743E+03  0.7818608E-02  0.1163914E+00
         21   -1    0    0  503  502  0.00000000000E+00  0.00000000000E+00  0.13264413549E+04  0.13264413549E+04  0.00000000000E+00 0.  1.
         21   -1    0    0  501  503 -0.00000000000E+00 -0.00000000000E+00 -0.55423521427E+02  0.55423521427E+02  0.00000000000E+00 0.  1.
          6    2    1    2  501    0 -0.40113717294E+02  0.50615476363E+02  0.12853943371E+03  0.22484025870E+03  0.17279965032E+03 0.  0.
         24    2    3    3    0    0  0.24810881798E+02 -0.13999077123E+02  0.26702017714E+02  0.87788467810E+02  0.78627370009E+02 0.  0.
         -6    2    1    2    0  502  0.40113717294E+02 -0.50615476363E+02  0.11424783997E+04  0.11570246176E+04  0.17110825552E+03 0.  0.
        -24    2    5    5    0    0  0.26157652215E+02 -0.46678905927E+02  0.30705603240E+03  0.32146319545E+03  0.78689490838E+02 0.  0.
          5    1    3    3  501    0 -0.64924599092E+02  0.64614553486E+02  0.10183741600E+03  0.13705179089E+03  0.47000000000E+01 0. -1.
        -13    1    4    4    0    0  0.16659562156E+02 -0.24135634592E+02  0.51796791126E+02  0.59522915246E+02  0.00000000000E+00 0.  1.
         14    1    4    4    0    0  0.81513196419E+01  0.10136557469E+02 -0.25094773411E+02  0.28265552565E+02  0.00000000000E+00 0. -1.
         -5    1    5    5    0  502  0.13956065079E+02 -0.39365704354E+01  0.83542236732E+03  0.83556142214E+03  0.47000000000E+01 0.  1.
         13    1    6    6    0    0 -0.19625119110E+02  0.98083001368E+01  0.58020766702E+02  0.62030294376E+02  0.00000000000E+00 0. -1.
        -14    1    6    6    0    0  0.45782771324E+02 -0.56487206064E+02  0.24903526570E+03  0.25943290107E+03  0.00000000000E+00 0.  1.
</event>
<event>
12    1  0.8344842E-002  0.1858189E+03  0.7818608E-02  0.1162450E+00
         21   -1    0    0  503  502  0.00000000000E+00  0.00000000000E+00  0.59705842721E+03  0.59705842721E+03  0.00000000000E+00 0.  1.
         21   -1    0    0  501  503 -0.00000000000E+00 -0.00000000000E+00 -0.14623952436E+03  0.14623952436E+03  0.00000000000E+00 0. -1.
          6    2    1    2  501    0 -0.50322493055E+02 -0.48793831297E+02 -0.63744620794E+02  0.19644855064E+03  0.17209144397E+03 0.  0.
         24    2    3    3    0    0 -0.36940166583E+02 -0.31415333113E+02  0.31218735590E+02  0.98871771043E+02  0.80308894872E+02 0.  0.
         -6    2    1    2    0  502  0.50322493055E+02  0.48793831297E+02  0.51456352365E+03  0.54684940092E+03  0.17133434024E+03 0.  0.
        -24    2    5    5    0    0 -0.62906696565E+01  0.83295449117E+02  0.26732262961E+03  0.29083072678E+03  0.78379965373E+02 0.  0.
          5    1    3    3  501    0 -0.13382326472E+02 -0.17378498184E+02 -0.94963356383E+02  0.97576779597E+02  0.47000000000E+01 0. -1.
        -13    1    4    4    0    0  0.12911418200E+02 -0.25088831661E+02  0.38880038659E+02  0.48039687761E+02  0.00000000000E+00 0.  1.
         14    1    4    4    0    0 -0.49851584783E+02 -0.63265014523E+01 -0.76613030692E+01  0.50832083282E+02  0.00000000000E+00 0. -1.
         -5    1    5    5    0  502  0.56613162711E+02 -0.34501617820E+02  0.24724089404E+03  0.25601867414E+03  0.47000000000E+01 0.  1.
         13    1    6    6    0    0 -0.23832161233E+02  0.11838742378E+02  0.15001902275E+03  0.15236087069E+03  0.00000000000E+00 0. -1.
        -14    1    6    6    0    0  0.17541491577E+02  0.71456706739E+02  0.11730360686E+03  0.13846985609E+03  0.00000000000E+00 0.  1.
</event>
<event>
12    1  0.8344842E-002  0.1955917E+03  0.7818608E-02  0.1153595E+00
         21   -1    0    0  501  502  0.00000000000E+00  0.00000000000E+00  0.11863226943E+03  0.11863226943E+03  0.00000000000E+00 0. -1.
         21   -1    0    0  502  503 -0.00000000000E+00 -0.00000000000E+00 -0.45499944458E+03  0.45499944458E+03  0.00000000000E+00 0. -1.
         -6    2    1    2    0  503 -0.63425842338E+02  0.67809356437E+02 -0.32345183615E+03  0.37799103250E+03  0.17214872652E+03 0.  0.
        -24    2    3    3    0    0 -0.21064901892E+02  0.10836099458E+03 -0.22822770526E+03  0.26605976012E+03  0.80709821396E+02 0.  0.
          6    2    1    2  501    0  0.63425842338E+02 -0.67809356437E+02 -0.12915338998E+02  0.19564068151E+03  0.17171931745E+03 0.  0.
         24    2    5    5    0    0  0.22915224708E+02 -0.92228949047E+02  0.34041694103E+02  0.12882392013E+03  0.80034235763E+02 0.  0.
          5    1    5    5  501    0  0.40510617630E+02  0.24419592610E+02 -0.46957033101E+02  0.66816761383E+02  0.47000000000E+01 0. -1.
        -11    1    6    6    0    0 -0.96072484045E+00  0.65817487026E+01 -0.14665206981E+02  0.16103127149E+02  0.00000000000E+00 0.  1.
         12    1    6    6    0    0  0.23875949548E+02 -0.98810697750E+02  0.48706901084E+02  0.11272079298E+03  0.00000000000E+00 0. -1.
         -5    1    3    3    0  503 -0.42360940446E+02 -0.40551638144E+02 -0.95224130896E+02  0.11193127238E+03  0.47000000000E+01 0.  1.
         11    1    4    4    0    0 -0.36761441524E+02  0.12653696999E+02 -0.79603295102E+02  0.88590090991E+02  0.00000000000E+00 0. -1.
        -12    1    4    4    0    0  0.15696539632E+02  0.95707297582E+02 -0.14862441015E+03  0.17746966913E+03  0.00000000000E+00 0.  1.
</event>
<event>
12    1  0.8344842E-002  0.2490356E+03  0.7818608E-02  0.1114444E+00
         21   -1    0    0  501  502  0.00000000000E+00  0.00000000000E+00  0.21021765323E+03  0.21021765323E+03  0.00000000000E+00 0. -1.
         21   -1    0    0  502  503 -0.00000000000E+00 -0.00000000000E+00 -0.29158829569E+03  0.29158829569E+03  0.00000000000E+00 0. -1.
         -6    2    1    2    0  503 -0.17350541165E+02 -0.17449115097E+03 -0.50459782950E+02  0.25085931739E+03  0.17215110915E+03 0.  0.
        -24    2    3    3    0    0  0.24694199687E+02 -0.21475959636E+02 -0.27601815203E+02  0.90466095277E+02  0.79694628751E+02 0.  0.
          6    2    1    2  501    0  0.17350541165E+02  0.17449115097E+03 -0.30910859511E+02  0.25094663152E+03  0.17683474656E+03 0.  0.
         24    2    5    5    0    0  0.25425041312E+02  0.47859451605E+02 -0.67660743925E+02  0.11875953366E+03  0.81171982444E+02 0.  0.
          5    1    5    5  501    0 -0.80745001471E+01  0.12663169936E+03  0.36749884414E+02  0.13218709786E+03  0.47000000000E+01 0. -1.
        -13    1    6    6    0    0 -0.55466453269E+00 -0.19654200356E+02  0.68527084324E-01  0.19662144856E+02  0.00000000000E+00 0.  1.
         14    1    6    6    0    0  0.25979705845E+02  0.67513651961E+02 -0.67729271009E+02  0.99097388807E+02  0.00000000000E+00 0. -1.
         -5    1    3    3    0  503 -0.42044740852E+02 -0.15301519133E+03 -0.22857967747E+02  0.16039322212E+03  0.47000000000E+01 0.  1.
         13    1    4    4    0    0  0.86357064917E+01 -0.51188279426E+02 -0.12094245615E+02  0.53301840064E+02  0.00000000000E+00 0. -1.
        -14    1    4    4    0    0  0.16058493195E+02  0.29712319790E+02 -0.15507569588E+02  0.37164255213E+02  0.00000000000E+00 0.  1.
</event>
<event>
12    1  0.8344842E-002  0.2260070E+03  0.7818608E-02  0.1129719E+00
         21   -1    0    0  501  502  0.00000000000E+00  0.00000000000E+00  0.86477980617E+02  0.86477980617E+02  0.00000000000E+00 0. -1.
         21   -1    0    0  502  503 -0.00000000000E+00 -0.00000000000E+00 -0.78881185674E+03  0.78881185674E+03  0.00000000000E+00 0. -1.
         -6    2    1    2    0  503  0.54853384665E+02  0.13423924512E+03 -0.57164146377E+03  0.61421578087E+03  0.17163331154E+03 0.  0.
        -24    2    3    3    0    0  0.32763522856E+02  0.16381773370E+03 -0.49756837662E+03  0.53131969398E+03  0.82562882071E+02 0.  0.
          6    2    1    2  501    0 -0.54853384665E+02 -0.13423924512E+03 -0.13069241235E+03  0.26107405649E+03  0.17334961086E+03 0.  0.
         24    2    5    5    0    0  0.14883552501E+02 -0.12845319425E+03 -0.66196594921E+02  0.16579279256E+03  0.79896918823E+02 0.  0.
          5    1    5    5  501    0 -0.69736937166E+02 -0.57860508754E+01 -0.64495817431E+02  0.95281263930E+02  0.47000000000E+01 0. -1.
        -11    1    6    6    0    0  0.45183603551E+02 -0.54548037416E+02 -0.41935616676E+02  0.82314290143E+02  0.00000000000E+00 0.  1.
         12    1    6    6    0    0 -0.30300051050E+02 -0.73905156830E+02 -0.24260978244E+02  0.83478502412E+02  0.00000000000E+00 0. -1.
         -5    1    3    3    0  503  0.22089861808E+02 -0.29578488581E+02 -0.74073087157E+02  0.82896086894E+02  0.47000000000E+01 0.  1.
         11    1    4    4    0    0  0.11132101261E+02 -0.55145995660E+01 -0.67061879091E+02  0.68202860014E+02  0.00000000000E+00 0. -1.
        -12    1    4    4    0    0  0.21631421595E+02  0.16933233327E+03 -0.43050649753E+03  0.46311683396E+03  0.00000000000E+00 0.  1.
</event>
<event>
12    1  0.8344842E-002  0.1985037E+03  0.7818608E-02  0.1151268E+00
         21   -1    0    0  501  502  0.00000000000E+00  0.00000000000E+00  0.32890578275E+03  0.32890578275E+03  0.00000000000E+00 0. -1.
         21   -1    0    0  502  503 -0.00000000000E+00 -0.00000000000E+00 -0.47587024927E+03  0.47587024927E+03  0.00000000000E+00 0. -1.
         -6    2    1    2    0  503  0.45973856542E+02  0.88025809002E+02 -0.42196759967E+03  0.46632644778E+03  0.17187659000E+03 0.  0.
        -24    2    3    3    0    0  0.79719877161E+02  0.60048221233E+02 -0.18429957956E+03  0.22460405099E+03  0.80744021502E+02 0.  0.
          6    2    1    2  501    0 -0.45973856542E+02 -0.88025809002E+02  0.27500313316E+03  0.33844958423E+03  0.17046776612E+03 0.  0.
         24    2    5    5    0    0  0.17428133966E+02 -0.39881607514E+02  0.22999288031E+03  0.24687617435E+03  0.78465521046E+02 0.  0.
          5    1    5    5  501    0 -0.63401990508E+02 -0.48144201488E+02  0.45010252841E+02  0.91573409886E+02  0.47000000000E+01 0. -1.
        -11    1    6    6    0    0  0.17294710582E+02  0.20373693362E+02  0.45219311539E+02  0.52525998624E+02  0.00000000000E+00 0.  1.
         12    1    6    6    0    0  0.13342338330E+00 -0.60255300876E+02  0.18477356877E+03  0.19435017572E+03  0.00000000000E+00 0. -1.
         -5    1    3    3    0  503 -0.33746020619E+02  0.27977587769E+02 -0.23766802011E+03  0.24172239679E+03  0.47000000000E+01 0.  1.
         11    1    4    4    0    0  0.35581536306E+02  0.75769585558E+01 -0.10647971175E+02  0.37905610627E+02  0.00000000000E+00 0. -1.
        -12    1    4    4    0    0  0.44138340855E+02  0.52471262677E+02 -0.17365160838E+03  0.18669844037E+03  0.00000000000E+00 0.  1.
</event>
<event>
12    1  0.8344842E-002  0.1736168E+03  0.7818608E-02  0.1174477E+00
         21   -1    0    0  503  502  0.00000000000E+00  0.00000000000E+00  0.37439394157E+03  0.37439394157E+03  0.00000000000E+00 0. -1.
         21   -1    0    0  501  503 -0.00000000000E+00 -0.00000000000E+00 -0.80272144254E+02  0.80272144254E+02  0.00000000000E+00 0. -1.
          6    2    1    2  501    0  0.21394226818E+01 -0.12045619719E+01  0.16359894796E+03  0.23855271654E+03  0.17359940868E+03 0.  0.
         24    2    3    3    0    0 -0.48395954970E+02 -0.37035897757E+02  0.56731956685E+02  0.11493899221E+03  0.79237811936E+02 0.  0.
         -6    2    1    2    0  502 -0.21394226818E+01  0.12045619719E+01  0.13052284935E+03  0.21611336928E+03  0.17222876090E+03 0.  0.
        -24    2    5    5    0    0  0.47034985847E+02  0.76064702646E+01  0.15033130228E+02  0.90339476493E+02  0.75266710603E+02 0.  0.
          5    1    3    3  501    0  0.50535377652E+02  0.35831335785E+02  0.10686699128E+03  0.12361372433E+03  0.47000000000E+01 0. -1.
        -11    1    4    4    0    0  0.11819171100E+02 -0.72270637006E+01  0.44549699471E+02  0.46654034961E+02  0.00000000000E+00 0.  1.
         12    1    4    4    0    0 -0.60215126070E+02 -0.29808834056E+02  0.12182257215E+02  0.68284957247E+02  0.00000000000E+00 0. -1.
         -5    1    5    5    0  502 -0.49174408529E+02 -0.64019082927E+01  0.11548971912E+03  0.12577389279E+03  0.47000000000E+01 0.  1.
         11    1    6    6    0    0  0.14713642786E+02 -0.14388478063E+01  0.43742087148E+02  0.46172846513E+02  0.00000000000E+00 0. -1.
        -12    1    6    6    0    0  0.32321343061E+02  0.90453180709E+01 -0.28708956920E+02  0.44166629979E+02  0.00000000000E+00 0.  1.
</event>
<event>
12    1  0.8344842E-002  0.3241300E+03  0.7818608E-02  0.1074280E+00
         21   -1    0    0  501  502  0.00000000000E+00  0.00000000000E+00  0.43326629820E+03  0.43326629820E+03  0.00000000000E+00 0. -1.
         21   -1    0    0  502  503 -0.00000000000E+00 -0.00000000000E+00 -0.41009066615E+03  0.41009066615E+03  0.00000000000E+00 0.  1.
         -6    2    1    2    0  503  0.12835836502E+03  0.23646627825E+03 -0.26063708776E+03  0.41592303167E+03  0.18074320493E+03 0.  0.
        -24    2    3    3    0    0  0.45420138375E+02  0.40091011430E+02 -0.32767023273E+02  0.10385116310E+03  0.77724565586E+02 0.  0.
          6    2    1    2  501    0 -0.12835836502E+03 -0.23646627825E+03  0.28381271981E+03  0.42743393269E+03  0.17250488764E+03 0.  0.
         24    2    5    5    0    0 -0.73001818017E+02 -0.61999527772E+02  0.64208111100E+02  0.14151214532E+03  0.82035351314E+02 0.  0.
          5    1    5    5  501    0 -0.55356547007E+02 -0.17446675048E+03  0.21960460871E+03  0.28592178736E+03  0.47000000000E+01 0. -1.
        -13    1    6    6    0    0 -0.34148340088E+02 -0.61889300183E+02  0.52197392573E+01  0.70877643060E+02  0.00000000000E+00 0.  1.
         14    1    6    6    0    0 -0.38853477930E+02 -0.11022758912E+00  0.58988371843E+02  0.70634502264E+02  0.00000000000E+00 0. -1.
         -5    1    3    3    0  503  0.82938226650E+02  0.19637526682E+03 -0.22787006449E+03  0.31207186857E+03  0.47000000000E+01 0.  1.
         13    1    4    4    0    0  0.65577254602E+02  0.16885669094E+02 -0.20440879244E+02  0.70734232774E+02  0.00000000000E+00 0. -1.
        -14    1    4    4    0    0 -0.20157116227E+02  0.23205342336E+02 -0.12326144029E+02  0.33116930325E+02  0.00000000000E+00 0.  1.
</event>
<event>
12    1  0.8344842E-002  0.2608754E+03  0.7818608E-02  0.1106844E+00
         21   -1    0    0  501  502  0.00000000000E+00  0.00000000000E+00  0.25019122953E+03  0.25019122953E+03  0.00000000000E+00 0. -1.
         21   -1    0    0  502  503 -0.00000000000E+00 -0.00000000000E+00 -0.36876143580E+03  0.36876143580E+03  0.00000000000E+00 0.  1.
         -6    2    1    2    0  503 -0.18615187175E+03 -0.62241218537E+02 -0.21920328158E+03  0.34074340407E+03  0.17184149709E+03 0.  0.
        -24    2    3    3    0    0 -0.17123825139E+03  0.10153659188E+02 -0.15263376357E+03  0.24115914266E+03  0.73722661178E+02 0.  0.
          6    2    1    2  501    0  0.18615187175E+03  0.62241218537E+02  0.10063307531E+03  0.27820926126E+03  0.16954907421E+03 0.  0.
         24    2    5    5    0    0  0.15844111078E+03 -0.14830460241E+02  0.92529967040E+02  0.19577334490E+03  0.66647427818E+02 0.  0.
          5    1    5    5  501    0  0.27710760965E+02  0.77071678778E+02  0.81031082708E+01  0.82435916363E+02  0.47000000000E+01 0. -1.
        -11    1    6    6    0    0  0.82595731222E+02 -0.19346388573E+02  0.13067935236E+02  0.85831861789E+02  0.00000000000E+00 0.  1.
         12    1    6    6    0    0  0.75845379559E+02  0.45159283320E+01  0.79462031804E+02  0.10994148311E+03  0.00000000000E+00 0. -1.
         -5    1    3    3    0  503 -0.14913620352E+02 -0.72394877725E+02 -0.66569518017E+02  0.99584261417E+02  0.47000000000E+01 0.  1.
         11    1    4    4    0    0 -0.38096252673E+02 -0.20552784388E+02 -0.11648923449E+02  0.44826764676E+02  0.00000000000E+00 0. -1.
        -12    1    4    4    0    0 -0.13314199872E+03  0.30706443576E+02 -0.14098484012E+03  0.19633237798E+03  0.00000000000E+00 0.  1.
</event>
<event>
12    1  0.8344842E-002  0.2044896E+03  0.7818608E-02  0.1146501E+00
         21   -1    0    0  501  502  0.00000000000E+00  0.00000000000E+00  0.72783465054E+03  0.72783465054E+03  0.00000000000E+00 0. -1.
         21   -1    0    0  502  503 -0.00000000000E+00 -0.00000000000E+00 -0.57763957273E+02  0.57763957273E+02  0.00000000000E+00 0. -1.
         -6    2    1    2    0  503 -0.10712179851E+03 -0.82198841700E+01  0.38827776709E+03  0.43883438118E+03  0.17399236616E+03 0.  0.
        -24    2    3    3    0    0 -0.14524740288E+03 -0.12349113074E+02  0.32055367985E+03  0.36086480871E+03  0.78863425390E+02 0.  0.
          6    2    1    2  501    0  0.10712179851E+03  0.82198841700E+01  0.28179292618E+03  0.34676422663E+03  0.17115936846E+03 0.  0.
         24    2    5    5    0    0  0.36778488684E+02 -0.25597674647E+02  0.56444487184E+02  0.10823578497E+03  0.80753370441E+02 0.  0.
          5    1    5    5  501    0  0.70343309828E+02  0.33817558817E+02  0.22534843899E+03  0.23852844166E+03  0.47000000000E+01 0. -1.
        -13    1    6    6    0    0  0.21011925693E+02  0.21601423013E+02  0.49554794439E+02  0.57998277124E+02  0.00000000000E+00 0.  1.
         14    1    6    6    0    0  0.15766562992E+02 -0.47199097660E+02  0.68896927447E+01  0.50237507846E+02  0.00000000000E+00 0. -1.
         -5    1    3    3    0  503  0.38125604366E+02  0.41292289036E+01  0.67724087237E+02  0.77969572473E+02  0.47000000000E+01 0.  1.
         11    1    4    4    0    0 -0.23086896035E+02  0.27363265875E+02  0.91441019078E+02  0.98199862820E+02  0.00000000000E+00 0. -1.
        -12    1    4    4    0    0 -0.12216050684E+03 -0.39712378948E+02  0.22911266077E+03  0.26266494589E+03  0.00000000000E+00 0.  1.
</event>
<event>
12    1  0.8344842E-002  0.2356708E+03  0.7818608E-02  0.1122873E+00
         21   -1    0    0  503  502  0.00000000000E+00  0.00000000000E+00  0.16924190791E+03  0.16924190791E+03  0.00000000000E+00 0.  1.
         21   -1    0    0  501  503 -0.00000000000E+00 -0.00000000000E+00 -0.33905649711E+03  0.33905649711E+03  0.00000000000E+00 0.  1.
          6    2    1    2  501    0  0.85268206995E+02  0.13712570903E+03 -0.36533943960E+02  0.23755042941E+03  0.17035653861E+03 0.  0.
         24    2    3    3    0    0  0.15664989770E+02  0.48277923929E+02  0.35339501240E+02  0.10366085218E+03  0.83189795546E+02 0.  0.
         -6    2    1    2    0  502 -0.85268206995E+02 -0.13712570903E+03 -0.13328064525E+03  0.27074797561E+03  0.17165840701E+03 0.  0.
        -24    2    5    5    0    0 -0.10336571005E+02 -0.75620100209E+02 -0.13377781481E+03  0.17369115119E+03  0.80292390739E+02 0.  0.
          5    1    3    3  501    0  0.69603217225E+02  0.88847785105E+02 -0.71873445200E+02  0.13388957723E+03  0.47000000000E+01 0. -1.
        -11    1    4    4    0    0  0.24909578014E+02 -0.11787985182E+02  0.32792339111E+02  0.42834345751E+02  0.00000000000E+00 0.  1.
         12    1    4    4    0    0 -0.92445882441E+01  0.60065909111E+02  0.25471621288E+01  0.60826506427E+02  0.00000000000E+00 0. -1.
         -5    1    5    5    0  502 -0.74931635990E+02 -0.61505608825E+02  0.49716956015E+00  0.97056824421E+02  0.47000000000E+01 0.  1.
         13    1    6    6    0    0 -0.21327617393E+02 -0.10484339621E+01 -0.14523271301E+01  0.21402703837E+02  0.00000000000E+00 0. -1.
        -14    1    6    6    0    0  0.10991046388E+02 -0.74571666247E+02 -0.13232548768E+03  0.15228844735E+03  0.00000000000E+00 0.  1.
</event>
<event>
12    1  0.8344842E-002  0.1929904E+03  0.7818608E-02  0.1155879E+00
         21   -1    0    0  501  502  0.00000000000E+00  0.00000000000E+00  0.57314083616E+03  0.57314083616E+03  0.00000000000E+00 0. -1.
         21   -1    0    0  502  503 -0.00000000000E+00 -0.00000000000E+00 -0.65100197593E+02  0.65100197593E+02  0.00000000000E+00 0.  1.
         -6    2    1    2    0  503 -0.16344721539E+02  0.86139047116E+02  0.27400209695E+03  0.33514538303E+03  0.17192496408E+03 0.  0.
        -24    2    3    3    0    0  0.14518478053E+02 -0.17527180476E+01  0.60444486291E+02  0.10210795569E+03  0.80985433667E+02 0.  0.
          6    2    1    2  501    0  0.16344721539E+02 -0.86139047116E+02  0.23403854161E+03  0.30309565072E+03  0.17148133765E+03 0.  0.
         24    2    5    5    0    0  0.42065138948E+02 -0.69933008341E+02  0.24505451608E+03  0.27042123782E+03  0.80098866683E+02 0.  0.
          5    1    5    5  501    0 -0.25720417409E+02 -0.16206038775E+02 -0.11015974468E+02  0.32674412894E+02  0.47000000000E+01 0. -1.
        -11    1    6    6    0    0  0.35559020465E+02  0.73876860321E+00  0.13389013810E+03  0.13853360169E+03  0.00000000000E+00 0.  1.
         12    1    6    6    0    0  0.65061184836E+01 -0.70671776944E+02  0.11116437798E+03  0.13188763614E+03  0.00000000000E+00 0. -1.
         -5    1    3    3    0  503 -0.30863199592E+02  0.87891765164E+02  0.21355761066E+03  0.23303742735E+03  0.47000000000E+01 0.  1.
         13    1    4    4    0    0  0.27378679130E+02 -0.15338177327E+02  0.73080173311E+02  0.79533411129E+02  0.00000000000E+00 0. -1.
        -14    1    4    4    0    0 -0.12860201077E+02  0.13585459280E+02 -0.12635687020E+02  0.22574544559E+02  0.00000000000E+00 0.  1.
</event>
<event>
12    1  0.8344842E-002  0.1869233E+03  0.7818608E-02  0.1161344E+00
         21   -1    0    0  501  502  0.00000000000E+00  0.00000000000E+00  0.11263806710E+03  0.11263806710E+03  0.00000000000E+00 0.  1.
         21   -1    0    0  502  503 -0.00000000000E+00 -0.00000000000E+00 -0.31566913296E+03  0.31566913296E+03  0.00000000000E+00 0.  1.
         -6    2    1    2    0  503  0.15351470902E+02 -0.71132325715E+02 -0.72005559582E+02  0.20031256875E+03  0.17217679626E+03 0.  0.
        -24    2    3    3    0    0  0.17909644886E+02 -0.19560619283E+01  0.19444497957E+02  0.85521006567E+02  0.81309116987E+02 0.  0.
          6    2    1    2  501    0 -0.15351470902E+02  0.71132325715E+02 -0.13102550629E+03  0.22799463130E+03  0.17180917666E+03 0.  0.
         24    2    5    5    0    0 -0.73694860670E+02  0.24595405974E+02 -0.79735808630E+02  0.13731740641E+03  0.80389081602E+02 0.  0.
          5    1    5    5  501    0  0.58343389768E+02  0.46536919741E+02 -0.51289697655E+02  0.90677224893E+02  0.47000000000E+01 0. -1.
        -11    1    6    6    0    0 -0.26821810248E+02  0.33331265791E+02  0.18474288811E+01  0.42822841775E+02  0.00000000000E+00 0.  1.
         12    1    6    6    0    0 -0.46873050422E+02 -0.87358598170E+01 -0.81583237511E+02  0.94494564634E+02  0.00000000000E+00 0. -1.
         -5    1    3    3    0  503 -0.25581739845E+01 -0.69176263787E+02 -0.91450057538E+02  0.11479156219E+03  0.47000000000E+01 0.  1.
         13    1    4    4    0    0 -0.15249701620E+02 -0.30347294146E+02  0.24063516926E+02  0.41624085676E+02  0.00000000000E+00 0. -1.
        -14    1    4    4    0    0  0.33159346506E+02  0.28391232218E+02 -0.46190189694E+01  0.43896920892E+02  0.00000000000E+00 0.  1.
</event>
<event>
12    1  0.8344842E-002  0.2313771E+03  0.7818608E-02  0.1126058E+00
         21   -1    0    0  503  502  0.00000000000E+00  0.00000000000E+00  0.89409753808E+02  0.89409753808E+02  0.00000000000E+00 0.  1.
         21   -1    0    0  501  503 -0.00000000000E+00 -0.00000000000E+00 -0.11108369308E+04  0.11108369308E+04  0.00000000000E+00 0.  1.
          6    2    1    2  501    0  0.26324186955E+02 -0.14925338208E+03 -0.92170063227E+03  0.95029859895E+03  0.17483088047E+03 0.  0.
         24    2    3    3    0    0  0.79781872346E+01 -0.34301228574E+02 -0.62161489864E+03  0.62839160799E+03  0.85033552377E+02 0.  0.
         -6    2    1    2    0  502 -0.26324186955E+02  0.14925338208E+03 -0.99726544716E+02  0.24994808565E+03  0.17192767932E+03 0.  0.
        -24    2    5    5    0    0 -0.64908682190E+02  0.71189436758E+02 -0.11115191154E+02  0.12562268674E+03  0.79852608104E+02 0.  0.
          5    1    3    3  501    0  0.18345999721E+02 -0.11495215351E+03 -0.30008573363E+03  0.32190699097E+03  0.47000000000E+01 0. -1.
        -11    1    4    4    0    0 -0.12339591162E+02 -0.28388808213E+02 -0.58703824559E+03  0.58785380132E+03  0.00000000000E+00 0.  1.
         12    1    4    4    0    0  0.20317778396E+02 -0.59124203613E+01 -0.34576653045E+02  0.40537806666E+02  0.00000000000E+00 0. -1.
         -5    1    5    5    0  502  0.38584495235E+02  0.78063945327E+02 -0.88611353563E+02  0.12432539890E+03  0.47000000000E+01 0.  1.
         11    1    6    6    0    0  0.45571176665E+01  0.51523215752E+02 -0.13252426833E+02  0.53395092470E+02  0.00000000000E+00 0. -1.
        -12    1    6    6    0    0 -0.69465799857E+02  0.19666221005E+02  0.21372356790E+01  0.72227594275E+02  0.00000000000E+00 0.  1.
</event>
<event>
12    1  0.8344842E-002  0.1759563E+03  0.7818608E-02  0.1171865E+00
         21   -1    0    0  503  502  0.00000000000E+00  0.00000000000E+00  0.10631524559E+03  0.10631524559E+03  0.00000000000E+00 0. -1.
         21   -1    0    0  501  503 -0.00000000000E+00 -0.00000000000E+00 -0.44398309344E+03  0.44398309344E+03  0.00000000000E+00 0. -1.
          6    2    1    2  501    0 -0.16982454774E+02 -0.39142442788E+02 -0.33043411147E+03  0.37419337619E+03  0.17033333839E+03 0.  0.
         24    2    3    3    0    0 -0.47999493733E+02  0.18481989408E+02 -0.24887259514E+03  0.26951767301E+03  0.89758966795E+02 0.  0.
         -6    2    1    2    0  502  0.16982454774E+02  0.39142442788E+02 -0.72337363774E+01  0.17610496283E+03  0.17070470525E+03 0.  0.
        -24    2    5    5    0    0 -0.29394930700E+02 -0.23832879293E+02  0.23721633393E+02  0.91860805811E+02  0.80272184891E+02 0.  0.
          5    1    3    3  501    0  0.31017038959E+02 -0.57624432196E+02 -0.81561516329E+02  0.10467570319E+03  0.47000000000E+01 0. -1.
        -11    1    4    4    0    0 -0.98691647317E+01 -0.23846528411E+02 -0.17372108833E+02  0.31110247428E+02  0.00000000000E+00 0.  1.
         12    1    4    4    0    0 -0.38130329001E+02  0.42328517819E+02 -0.23150048631E+03  0.23840742558E+03  0.00000000000E+00 0. -1.
         -5    1    5    5    0  502  0.46377385474E+02  0.62975322081E+02 -0.30955369770E+02  0.84244157021E+02  0.47000000000E+01 0.  1.
         13    1    6    6    0    0 -0.24445107112E+02 -0.46809318889E+02 -0.69023597947E+01  0.53257094994E+02  0.00000000000E+00 0. -1.
        -14    1    6    6    0    0 -0.49498235882E+01  0.22976439596E+02  0.30623993188E+02  0.38603710816E+02  0.00000000000E+00 0.  1.
</event>
<event>
12    1  0.8344842E-002  0.1896546E+03  0.7818608E-02  0.1158983E+00
         21   -1    0    0  501  502  0.00000000000E+00  0.00000000000E+00  0.33561687386E+02  0.33561687386E+02  0.00000000000E+00 0.  1.
         21   -1    0    0  502  503 -0.00000000000E+00 -0.00000000000E+00 -0.10675060556E+04  0.10675060556E+04  0.00000000000E+00 0.  1.
         -6    2    1    2    0  503 -0.67191342698E+02  0.39469890179E+02 -0.53512439570E+03  0.56773846744E+03  0.17290546483E+03 0.  0.
        -24    2    3    3    0    0 -0.37258505022E+02 -0.15841900481E+02 -0.46343187677E+03  0.47225403819E+03  0.81336401304E+02 0.  0.
          6    2    1    2  501    0  0.67191342698E+02 -0.39469890179E+02 -0.49881997246E+03  0.53332927550E+03  0.17189008818E+03 0.  0.
         24    2    5    5    0    0  0.23013467295E+02  0.20015826765E+02 -0.12200678891E+03  0.14927133651E+03  0.80411581054E+02 0.  0.
          5    1    5    5  501    0  0.44177875403E+02 -0.59485716945E+02 -0.37681318356E+03  0.38405793899E+03  0.47000000000E+01 0. -1.
        -11    1    6    6    0    0  0.41959549710E+02  0.71542383379E+01 -0.11874194322E+03  0.12614054074E+03  0.00000000000E+00 0.  1.
         12    1    6    6    0    0 -0.18946082415E+02  0.12861588427E+02 -0.32648456818E+01  0.23130795772E+02  0.00000000000E+00 0. -1.
         -5    1    3    3    0  503 -0.29932837676E+02  0.55311790660E+02 -0.71692518938E+02  0.95484429249E+02  0.47000000000E+01 0.  1.
         13    1    4    4    0    0  0.18952937055E+02  0.13463440008E+02 -0.19786173287E+03  0.19922284852E+03  0.00000000000E+00 0. -1.
        -14    1    4    4    0    0 -0.56211442077E+02 -0.29305340489E+02 -0.26557014390E+03  0.27303118967E+03  0.00000000000E+00 0.  1.
</event>
<event>
12    1  0.8344842E-002  0.2566810E+03  0.7818608E-02  0.1109280E+00
         21   -1    0    0  501  502  0.00000000000E+00  0.00000000000E+00  0.75182793824E+03  0.75182793824E+03  0.00000000000E+00 0. -1.
         21   -1    0    0  502  503 -0.00000000000E+00 -0.00000000000E+00 -0.98875582581E+02  0.98875582581E+02  0.00000000000E+00 0.  1.
         -6    2    1    2    0  503 -0.16937524964E+03  0.82060912174E+02  0.18081094140E+03  0.31329989342E+03  0.17332702671E+03 0.  0.
        -24    2    3    3    0    0 -0.18643523869E+03  0.37173531985E+02  0.15829463311E+03  0.26005522922E+03  0.80197017823E+02 0.  0.
          6    2    1    2  501    0  0.16937524964E+03 -0.82060912174E+02  0.47214141426E+03  0.53740362741E+03  0.17453703101E+03 0.  0.
         24    2    5    5    0    0  0.33751908364E+02  0.20249087962E+02  0.17462664754E+03  0.19476948835E+03  0.76755916269E+02 0.  0.
          5    1    5    5  501    0  0.13562334127E+03 -0.10231000014E+03  0.29751476673E+03  0.34263413905E+03  0.47000000000E+01 0. -1.
        -11    1    6    6    0    0  0.32071740943E+02 -0.25093949713E+02  0.76638225706E+02  0.86785485645E+02  0.00000000000E+00 0.  1.
         12    1    6    6    0    0  0.16801674209E+01  0.45343037675E+02  0.97988421830E+02  0.10798400271E+03  0.00000000000E+00 0. -1.
         -5    1    3    3    0  503  0.17059989051E+02  0.44887380189E+02  0.22516308293E+02  0.53244664200E+02  0.47000000000E+01 0.  1.
         13    1    4    4    0    0 -0.10332828440E+03  0.40459128572E+02  0.13280917631E+03  0.17306632473E+03  0.00000000000E+00 0. -1.
        -14    1    4    4    0    0 -0.83106954290E+02 -0.32855965864E+01  0.25485456792E+02  0.86988904489E+02  0.00000000000E+00 0.  1.
</event>
<event>
12    1  0.8344842E-002  0.3612205E+03  0.7818608E-02  0.1058446E+00
         21   -1    0    0  501  502  0.00000000000E+00  0.00000000000E+00  0.40045722477E+03  0.40045722477E+03  0.00000000000E+00 0. -1.
         21   -1    0    0  502  503 -0.00000000000E+00 -0.00000000000E+00 -0.88510934606E+03  0.88510934606E+03  0.00000000000E+00 0. -1.
         -6    2    1    2    0  503 -0.28885970223E+03  0.12343988064E+03 -0.75427541125E+03  0.83481501200E+03  0.17119397344E+03 0.  0.
        -24    2    3    3    0    0 -0.14042081566E+03  0.10311429428E+03 -0.29888913766E+03  0.35539246280E+03  0.81354304431E+02 0.  0.
          6    2    1    2  501    0  0.28885970223E+03 -0.12343988064E+03  0.26962328996E+03  0.45075155883E+03  0.17833372534E+03 0.  0.
         24    2    5    5    0    0  0.14454005192E+03 -0.24319447289E+01  0.17297824685E+03  0.23901248266E+03  0.79421357454E+02 0.  0.
          5    1    5    5  501    0  0.14431965031E+03 -0.12100793591E+03  0.96645043109E+02  0.21173907617E+03  0.47000000000E+01 0. -1.
        -13    1    6    6    0    0  0.59266750487E+02  0.38166352424E+02  0.74724787076E+02  0.10272785394E+03  0.00000000000E+00 0.  1.
         14    1    6    6    0    0  0.85273301434E+02 -0.40598297153E+02  0.98253459775E+02  0.13628462873E+03  0.00000000000E+00 0. -1.
         -5    1    3    3    0  503 -0.14843888657E+03  0.20325586359E+02 -0.45538627359E+03  0.47942254920E+03  0.47000000000E+01 0.  1.
         11    1    4    4    0    0 -0.24279732173E+02  0.64769451449E+02 -0.12383304782E+03  0.14184220446E+03  0.00000000000E+00 0. -1.
        -12    1    4    4    0    0 -0.11614108349E+03  0.38344842833E+02 -0.17505608984E+03  0.21355025834E+03  0.00000000000E+00 0.  1.
</event>
<event>
12    1  0.8344842E-002  0.2042495E+03  0.7818608E-02  0.1146395E+00
         21   -1    0    0  503  502  0.00000000000E+00  0.00000000000E+00  0.46363535439E+03  0.46363535439E+03  0.00000000000E+00 0.  1.
         21   -1    0    0  501  503 -0.00000000000E+00 -0.00000000000E+00 -0.90310880671E+02  0.90310880671E+02  0.00000000000E+00 0. -1.
          6    2    1    2  501    0  0.37538558111E+02  0.10556848032E+03  0.16110782537E+03  0.25940631588E+03  0.16965275696E+03 0.  0.
         24    2    3    3    0    0 -0.26630544441E+02  0.96080894974E+02  0.13935822950E+03  0.19082918472E+03  0.83990102600E+02 0.  0.
         -6    2    1    2    0  502 -0.37538558111E+02 -0.10556848032E+03  0.21221664835E+03  0.29453991918E+03  0.17077473693E+03 0.  0.
        -24    2    5    5    0    0 -0.78492040762E+02 -0.24886003284E+02  0.75466690670E+02  0.13049879395E+03  0.67486296381E+02 0.  0.
          5    1    3    3  501    0  0.64169102552E+02  0.94875853423E+01  0.21749595866E+02  0.68577131161E+02  0.47000000000E+01 0. -1.
        -13    1    4    4    0    0 -0.10712239271E+02  0.35651231910E+02  0.11964515234E+03  0.12530253344E+03  0.00000000000E+00 0.  1.
         14    1    4    4    0    0 -0.15918305170E+02  0.60429663064E+02  0.19713077165E+02  0.65526651287E+02  0.00000000000E+00 0. -1.
         -5    1    5    5    0  502  0.40953482650E+02 -0.80682477033E+02  0.13674995768E+03  0.16404112523E+03  0.47000000000E+01 0.  1.
         13    1    6    6    0    0 -0.36145523462E+02 -0.31091178009E+02  0.48484380613E+01  0.47923559634E+02  0.00000000000E+00 0. -1.
        -14    1    6    6    0    0 -0.42346517299E+02  0.62051747251E+01  0.70618252609E+02  0.82575234316E+02  0.00000000000E+00 0.  1.
</event>
<event>
12    1  0.8344842E-002  0.2860489E+03  0.7818608E-02  0.1092502E+00
         21   -1    0    0  503  502  0.00000000000E+00  0.00000000000E+00  0.20845425061E+03  0.20845425061E+03  0.00000000000E+00 0. -1.
         21   -1    0    0  501  503 -0.00000000000E+00 -0.00000000000E+00 -0.73150650164E+03  0.73150650164E+03  0.00000000000E+00 0. -1.
          6    2    1    2  501    0 -0.76960382684E+02 -0.21416906994E+03 -0.58193836815E+03  0.64844138787E+03  0.17329938879E+03 0.  0.
         24    2    3    3    0    0  0.18478755955E+02 -0.14478091733E+03 -0.35661982464E+03  0.39405215666E+03  0.82440429376E+02 0.  0.
         -6    2    1    2    0  502  0.76960382684E+02  0.21416906994E+03  0.58886117116E+02  0.29151936439E+03  0.17240845107E+03 0.  0.
        -24    2    5    5    0    0 -0.46076712313E+01  0.17164184712E+03  0.17460766984E+02  0.19052400938E+03  0.80699228296E+02 0.  0.
          5    1    3    3  501    0 -0.95439138639E+02 -0.69388152611E+02 -0.22531854350E+03  0.25438923121E+03  0.47000000000E+01 0. -1.
        -11    1    4    4    0    0  0.45519206009E+02 -0.44732359095E+02 -0.12736671387E+03  0.14246143994E+03  0.00000000000E+00 0.  1.
         12    1    4    4    0    0 -0.27040450054E+02 -0.10004855823E+03 -0.22925311077E+03  0.25159071672E+03  0.00000000000E+00 0. -1.
         -5    1    5    5    0  502  0.81568053916E+02  0.42527222818E+02  0.41425350132E+02  0.10099535501E+03  0.47000000000E+01 0.  1.
         11    1    6    6    0    0  0.30584063127E+02  0.10556269790E+03 -0.10951049360E+02  0.11044814886E+03  0.00000000000E+00 0. -1.
        -12    1    6    6    0    0 -0.35191734358E+02  0.66079149226E+02  0.28411816344E+02  0.80075860516E+02  0.00000000000E+00 0.  1.
</event>
<event>
12    1  0.8344842E-002  0.3068809E+03  0.7818608E-02  0.1082101E+00
         21   -1    0    0  501  502  0.00000000000E+00  0.00000000000E+00  0.15120360877E+04  0.15120360877E+04  0.00000000000E+00 0.  1.
         21   -1    0    0  502  503 -0.00000000000E+00 -0.00000000000E+00 -0.11244001543E+03  0.11244001543E+03  0.00000000000E+00 0.  1.
         -6    2    1    2    0  503  0.18745470220E+03 -0.17150358363E+03  0.12458124249E+04  0.12830527893E+04  0.17211367654E+03 0.  0.
        -24    2    3    3    0    0  0.11251159568E+03 -0.18358267268E+03  0.97543577972E+03  0.10021827235E+04  0.80831888153E+02 0.  0.
          6    2    1    2  501    0 -0.18745470220E+03  0.17150358363E+03  0.15378364743E+03  0.34142331385E+03  0.16842720815E+03 0.  0.
         24    2    5    5    0    0 -0.46919365139E+02  0.12958055408E+03  0.84248628422E+02  0.17905050135E+03  0.77257386837E+02 0.  0.
          5    1    5    5  501    0 -0.14053533706E+03  0.41923029545E+02  0.69535019008E+02  0.16237281250E+03  0.47000000000E+01 0. -1.
        -11    1    6    6    0    0 -0.66258063993E+02  0.74948153108E+02  0.53159344814E+02  0.11328403524E+03  0.00000000000E+00 0.  1.
         12    1    6    6    0    0  0.19338698854E+02  0.54632400976E+02  0.31089283608E+02  0.65766466113E+02  0.00000000000E+00 0. -1.
         -5    1    3    3    0  503  0.74943106519E+02  0.12079089051E+02  0.27037664516E+03  0.28087006579E+03  0.47000000000E+01 0.  1.
         11    1    4    4    0    0  0.31596769831E+02 -0.11923639341E+03  0.44575714678E+03  0.46250957534E+03  0.00000000000E+00 0. -1.
        -12    1    4    4    0    0  0.80914825851E+02 -0.64346279270E+02  0.52967863294E+03  0.53967314820E+03  0.00000000000E+00 0.  1.
</event>
<event>
12    1  0.8344842E-002  0.2154853E+03  0.7818608E-02  0.1137545E+00
         21   -1    0    0  501  502  0.00000000000E+00  0.00000000000E+00  0.37450534975E+03  0.37450534975E+03  0.00000000000E+00 0. -1.
         21   -1    0    0  502  503 -0.00000000000E+00 -0.00000000000E+00 -0.18873126351E+03  0.18873126351E+03  0.00000000000E+00 0.  1.
         -6    2    1    2    0  503 -0.77293189800E+02  0.10347946907E+03 -0.73195424714E+02  0.22634031286E+03  0.17085119056E+03 0.  0.
        -24    2    3    3    0    0 -0.10560055890E+03  0.73724323120E+02 -0.10955468066E+02  0.15162366104E+03  0.79265114937E+02 0.  0.
          6    2    1    2  501    0  0.77293189800E+02 -0.10347946907E+03  0.25896951096E+03  0.33689630040E+03  0.17248672966E+03 0.  0.
         24    2    5    5    0    0  0.70169723108E+02 -0.59131157851E+00  0.17184849837E+03  0.20180789392E+03  0.79185730832E+02 0.  0.
          5    1    5    5  501    0  0.71234666921E+01 -0.10288815749E+03  0.87121012592E+02  0.13508840648E+03  0.47000000000E+01 0. -1.
        -13    1    6    6    0    0  0.36429104980E+02  0.25392547312E+01  0.12047144386E+02  0.38453363860E+02  0.00000000000E+00 0.  1.
         14    1    6    6    0    0  0.33740618127E+02 -0.31305663097E+01  0.15980135399E+03  0.16335453006E+03  0.00000000000E+00 0. -1.
         -5    1    3    3    0  503  0.28307369100E+02  0.29755145949E+02 -0.62239956648E+02  0.74716651822E+02  0.47000000000E+01 0.  1.
         13    1    4    4    0    0 -0.11755970041E+03  0.73906739066E+02 -0.13079365241E+02  0.13947601598E+03  0.00000000000E+00 0. -1.
        -14    1    4    4    0    0  0.11959141507E+02 -0.18241594606E+00  0.21238971753E+01  0.12147645054E+02  0.00000000000E+00 0.  1.
</event>
<event>
12    1  0.8344842E-002  0.2182440E+03  0.7818608E-02  0.1135219E+00
         21   -1    0    0  503  502  0.00000000000E+00  0.00000000000E+00  0.76171522022E+02  0.76171522022E+02  0.00000000000E+00 0.  1.
         21   -1    0    0  501  503 -0.00000000000E+00 -0.00000000000E+00 -0.81983334561E+03  0.81983334561E+03  0.00000000000E+00 0.  1.
          6    2    1    2  501    0 -0.12374875290E+03 -0.51656370413E+02 -0.59016173122E+03  0.62918525557E+03  0.17204965093E+03 0.  0.
         24    2    3    3    0    0 -0.10089974475E+03 -0.23670867208E+02 -0.57461629278E+03  0.58957444620E+03  0.81688892992E+02 0.  0.
         -6    2    1    2    0  502  0.12374875290E+03  0.51656370413E+02 -0.15350009237E+03  0.26681961207E+03  0.17218679559E+03 0.  0.
        -24    2    5    5    0    0 -0.20941952799E+01  0.12535823122E+02 -0.31620669367E+02  0.87254725246E+02  0.80324266765E+02 0.  0.
          5    1    3    3  501    0 -0.22849008149E+02 -0.27985503205E+02 -0.15545438442E+02  0.39610809375E+02  0.47000000000E+01 0. -1.
        -11    1    4    4    0    0 -0.30415775854E+02 -0.34675172476E+02 -0.10657828453E+03  0.11613103693E+03  0.00000000000E+00 0.  1.
         12    1    4    4    0    0 -0.70483968893E+02  0.11004305268E+02 -0.46803800825E+03  0.47344340926E+03  0.00000000000E+00 0. -1.
         -5    1    5    5    0  502  0.12584294818E+03  0.39120547291E+02 -0.12187942301E+03  0.17956488682E+03  0.47000000000E+01 0.  1.
         11    1    6    6    0    0  0.17716631751E+02 -0.24926281060E+02 -0.32820948507E+02  0.44859928544E+02  0.00000000000E+00 0. -1.
        -12    1    6    6    0    0 -0.19810827031E+02  0.37462104182E+02  0.12002791398E+01  0.42394796702E+02  0.00000000000E+00 0.  1.
</event>
<event>
12    1  0.8344842E-002  0.4009922E+03  0.7818608E-02  0.1043836E+00
         21   -1    0    0  501  502  0.00000000000E+00  0.00000000000E+00  0.13047331297E+03  0.13047331297E+03  0.00000000000E+00 0.  1.
         21   -1    0    0  502  503 -0.00000000000E+00 -0.00000000000E+00 -0.14232550610E+04  0.14232550610E+04  0.00000000000E+00 0.  1.
         -6    2    1    2    0  503  0.27993443802E+03 -0.22331235875E+03 -0.94438556058E+03  0.10259916400E+04  0.18045237357E+03 0.  0.
        -24    2    3    3    0    0  0.11432308382E+03 -0.17420207479E+03 -0.60813325023E+03  0.64793523303E+03  0.81104166358E+02 0.  0.
          6    2    1    2  501    0 -0.27993443802E+03  0.22331235875E+03 -0.34839618744E+03  0.52773673398E+03  0.16998369864E+03 0.  0.
         24    2    5    5    0    0 -0.57848111732E+02  0.66224972607E+02 -0.14043406682E+03  0.18529094728E+03  0.82938875049E+02 0.  0.
          5    1    5    5  501    0 -0.22208632629E+03  0.15708738615E+03 -0.20796212062E+03  0.34244578669E+03  0.47000000000E+01 0. -1.
        -13    1    6    6    0    0 -0.73672693951E+02  0.72927389024E+02 -0.11906516847E+03  0.15786888309E+03  0.00000000000E+00 0.  1.
         14    1    6    6    0    0  0.15824582219E+02 -0.67024164176E+01 -0.21368898344E+02  0.27422064195E+02  0.00000000000E+00 0. -1.
         -5    1    3    3    0  503  0.16561135420E+03 -0.49110283960E+02 -0.33625231035E+03  0.37805640697E+03  0.47000000000E+01 0.  1.
         13    1    4    4    0    0  0.11318412447E+02  0.69918053949E+01 -0.20545654622E+02  0.24476840623E+02  0.00000000000E+00 0. -1.
        -14    1    4    4    0    0  0.10300467138E+03 -0.18119388019E+03 -0.58758759561E+03  0.62345839240E+03  0.00000000000E+00 0.  1.
</event>
<event>
12    1  0.8344842E-002  0.3816844E+03  0.7818608E-02  0.1050466E+00
         21   -1    0    0  503  502  0.00000000000E+00  0.00000000000E+00  0.16449548327E+03  0.16449548327E+03  0.00000000000E+00 0. -1.
         21   -1    0    0  501  503 -0.00000000000E+00 -0.00000000000E+00 -0.18813906137E+04  0.18813906137E+04  0.00000000000E+00 0.  1.
          6    2    1    2  501    0 -0.33831611757E+03 -0.38195097605E+02 -0.16032031550E+04  0.16476288260E+04  0.16883048094E+03 0.  0.
         24    2    3    3    0    0 -0.28622326681E+03  0.15001446503E+02 -0.11228988766E+04  0.11615652219E+04  0.78632536667E+02 0.  0.
         -6    2    1    2    0  502  0.33831611757E+03  0.38195097605E+02 -0.11369197545E+03  0.39825727096E+03  0.17252920826E+03 0.  0.
        -24    2    5    5    0    0  0.15934537518E+03  0.66895352185E+02 -0.10390138976E+03  0.21667484666E+03  0.79287790035E+02 0.  0.
          5    1    3    3  501    0 -0.52092850760E+02 -0.53196544108E+02 -0.48030427841E+03  0.48606360413E+03  0.47000000000E+01 0. -1.
        -13    1    4    4    0    0 -0.10941044721E+03  0.11495272964E+00 -0.58537351730E+03  0.59551054897E+03  0.00000000000E+00 0.  1.
         14    1    4    4    0    0 -0.17681281960E+03  0.14886493773E+02 -0.53752535926E+03  0.56605467291E+03  0.00000000000E+00 0. -1.
         -5    1    5    5    0  502  0.17897074239E+03 -0.28700254580E+02 -0.97905856848E+01  0.18158242429E+03  0.47000000000E+01 0.  1.
         13    1    6    6    0    0  0.45951571905E+02  0.18799348050E-02  0.44506713339E+01  0.46166605240E+02  0.00000000000E+00 0. -1.
        -14    1    6    6    0    0  0.11339380327E+03  0.66893472250E+02 -0.10835206110E+03  0.17050824143E+03  0.00000000000E+00 0.  1.
</event>
<event>
12    1  0.8344842E-002  0.2513847E+03  0.7818608E-02  0.1112508E+00
         21   -1    0    0  501  502  0.00000000000E+00  0.00000000000E+00  0.28312047969E+03  0.28312047969E+03  0.00000000000E+00 0. -1.
         21   -1    0    0  502  503 -0.00000000000E+00 -0.00000000000E+00 -0.22349547572E+03  0.22349547572E+03  0.00000000000E+00 0.  1.
         -6    2    1    2    0  503  0.49493226850E+02  0.17550158699E+03  0.15483910872E+02  0.25138525314E+03  0.17234966626E+03 0.  0.
        -24    2    3    3    0    0  0.25394935256E+02  0.85245876117E+02  0.75954943275E+02  0.14000456916E+03  0.76943900647E+02 0.  0.
          6    2    1    2  501    0 -0.49493226850E+02 -0.17550158699E+03  0.44141093094E+02  0.25523070227E+03  0.17304302570E+03 0.  0.
         24    2    5    5    0    0 -0.92801588927E+02 -0.16452250108E+03  0.24770077160E+02  0.20630748885E+03  0.79179763601E+02 0.  0.
          5    1    5    5  501    0  0.43308362076E+02 -0.10979085909E+02  0.19371015934E+02  0.48923213421E+02  0.47000000000E+01 0. -1.
        -13    1    6    6    0    0 -0.55227029206E+02 -0.14591907078E+03 -0.29436927626E+01  0.15604827875E+03  0.00000000000E+00 0.  1.
         14    1    6    6    0    0 -0.37574559720E+02 -0.18603430302E+02  0.27713769923E+02  0.50259210106E+02  0.00000000000E+00 0. -1.
         -5    1    3    3    0  503  0.24098291595E+02  0.90255710875E+02 -0.60471032403E+02  0.11138068398E+03  0.47000000000E+01 0.  1.
         13    1    4    4    0    0 -0.20857062831E+02  0.59316865117E+02  0.52961228358E+02  0.82209484042E+02  0.00000000000E+00 0. -1.
        -14    1    4    4    0    0  0.46251998086E+02  0.25929011000E+02  0.22993714917E+02  0.57795085120E+02  0.00000000000E+00 0.  1.
</event>
<event>
12    1  0.8344842E-002  0.1786724E+03  0.7818608E-02  0.1169506E+00
         21   -1    0    0  501  502  0.00000000000E+00  0.00000000000E+00  0.19001596705E+03  0.19001596705E+03  0.00000000000E+00 0.  1.
         21   -1    0    0  502  503 -0.00000000000E+00 -0.00000000000E+00 -0.19909844693E+03  0.19909844693E+03  0.00000000000E+00 0.  1.
         -6    2    1    2    0  503 -0.15234581817E+02 -0.38813417379E+02 -0.83363213945E+02  0.19716296847E+03  0.17373899057E+03 0.  0.
        -24    2    3    3    0    0  0.48271376696E+02 -0.49047517953E+02 -0.21794080536E+02  0.10799687755E+03  0.80327820758E+02 0.  0.
          6    2    1    2  501    0  0.15234581817E+02  0.38813417379E+02  0.74280734066E+02  0.19195144551E+03  0.17201498809E+03 0.  0.
         24    2    5    5    0    0 -0.45072113326E+02  0.60586139667E+02  0.63935441924E+02  0.12683567181E+03  0.79355977661E+02 0.  0.
          5    1    5    5  501    0  0.60306695143E+02 -0.21772722288E+02  0.10345292141E+02  0.65115773699E+02  0.47000000000E+01 0. -1.
        -11    1    6    6    0    0 -0.31339359002E+02  0.41262484776E+02  0.82022225392E+02  0.97017490850E+02  0.00000000000E+00 0.  1.
         12    1    6    6    0    0 -0.13732754324E+02  0.19323654891E+02 -0.18086783468E+02  0.29818180962E+02  0.00000000000E+00 0. -1.
         -5    1    3    3    0  503 -0.63505958513E+02  0.10234100574E+02 -0.61569133409E+02  0.89166090920E+02  0.47000000000E+01 0.  1.
         11    1    4    4    0    0 -0.94101831741E+01 -0.15952177106E+02  0.21704414330E+02  0.28532527108E+02  0.00000000000E+00 0. -1.
        -12    1    4    4    0    0  0.57681559871E+02 -0.33095340848E+02 -0.43498494865E+02  0.79464350438E+02  0.00000000000E+00 0.  1.
</event>
<event>
12    1  0.8344842E-002  0.2347237E+03  0.7818608E-02  0.1123515E+00
         21   -1    0    0  503  502  0.00000000000E+00  0.00000000000E+00  0.31292791845E+03  0.31292791845E+03  0.00000000000E+00 0.  1.
         21   -1    0    0  501  503 -0.00000000000E+00 -0.00000000000E+00 -0.18453895616E+03  0.18453895616E+03  0.00000000000E+00 0.  1.
          6    2    1    2  501    0 -0.89179376000E+02  0.13105630506E+03  0.88971765767E+01  0.23489225503E+03  0.17310833464E+03 0.  0.
         24    2    3    3    0    0 -0.11045046766E+03  0.89530900624E+02  0.51658545732E+02  0.17143011477E+03  0.80651044209E+02 0.  0.
         -6    2    1    2    0  502  0.89179376000E+02 -0.13105630506E+03  0.11949178572E+03  0.26257461958E+03  0.17186747160E+03 0.  0.
        -24    2    5    5    0    0  0.44827710599E+02  0.12018355060E+02  0.25100956543E+02  0.85461245655E+02  0.67227985197E+02 0.  0.
          5    1    3    3  501    0  0.21271091656E+02  0.41525404432E+02 -0.42761369156E+02  0.63462140253E+02  0.47000000000E+01 0. -1.
        -11    1    4    4    0    0 -0.74773458993E+02  0.81734975644E+02  0.32936141949E+01  0.11082655055E+03  0.00000000000E+00 0.  1.
         12    1    4    4    0    0 -0.35677008663E+02  0.77959249803E+01  0.48364931537E+02  0.60603564219E+02  0.00000000000E+00 0. -1.
         -5    1    5    5    0  502  0.44351665401E+02 -0.14307466012E+03  0.94390829179E+02  0.17711337393E+03  0.47000000000E+01 0.  1.
         13    1    6    6    0    0 -0.14454265999E+02  0.11162390881E+02 -0.50483732076E+01  0.18947581582E+02  0.00000000000E+00 0. -1.
        -14    1    6    6    0    0  0.59281976598E+02  0.85596417977E+00  0.30149329750E+02  0.66513664073E+02  0.00000000000E+00 0.  1.
</event>
<event>
12    1  0.8344842E-002  0.2012792E+03  0.7818608E-02  0.1148944E+00
         21   -1    0    0  503  502  0.00000000000E+00  0.00000000000E+00  0.16904607965E+04  0.16904607965E+04  0.00000000000E+00 0. -1.
         21   -1    0    0  501  503 -0.00000000000E+00 -0.00000000000E+00 -0.24310752413E+02  0.24310752413E+02  0.00000000000E+00 0.  1.
          6    2    1    2  501    0 -0.77961649678E+02 -0.67652778236E+02  0.71241953810E+03  0.74030732019E+03  0.17279587042E+03 0.  0.
         24    2    3    3    0    0 -0.73052540101E+02 -0.54571386659E+02  0.71527982052E+03  0.72529088327E+03  0.78146873538E+02 0.  0.
         -6    2    1    2    0  502  0.77961649678E+02  0.67652778236E+02  0.95373050593E+03  0.97446422867E+03  0.17124175248E+03 0.  0.
        -24    2    5    5    0    0  0.87982411320E+02  0.92590073807E+02  0.56198205215E+03  0.58176685738E+03  0.79467118636E+02 0.  0.
          5    1    3    3  501    0 -0.49091095773E+01 -0.13081391576E+02 -0.28602824190E+01  0.15016436925E+02  0.47000000000E+01 0. -1.
        -13    1    4    4    0    0 -0.40835614123E+02  0.50639453901E+01  0.13682794291E+03  0.14288133847E+03  0.00000000000E+00 0.  1.
         14    1    4    4    0    0 -0.32216925978E+02 -0.59635332050E+02  0.57845187762E+03  0.58240954479E+03  0.00000000000E+00 0. -1.
         -5    1    5    5    0  502 -0.10020761642E+02 -0.24937295571E+02  0.39174845379E+03  0.39269737129E+03  0.47000000000E+01 0.  1.
         13    1    6    6    0    0 -0.36457920668E+01  0.94659619844E+01  0.17924624124E+03  0.17953303661E+03  0.00000000000E+00 0. -1.
        -14    1    6    6    0    0  0.91628203386E+02  0.83124111823E+02  0.38273581091E+03  0.40223382078E+03  0.00000000000E+00 0.  1.
</event>
<event>
12    1  0.8344842E-002  0.1880536E+03  0.7818608E-02  0.1160598E+00
         21   -1    0    0  501  502  0.00000000000E+00  0.00000000000E+00  0.13301924081E+03  0.13301924081E+03  0.00000000000E+00 0.  1.
         21   -1    0    0  502  503 -0.00000000000E+00 -0.00000000000E+00 -0.32882839881E+03  0.32882839881E+03  0.00000000000E+00 0.  1.
         -6    2    1    2    0  503 -0.16416081644E+02 -0.75587521665E+02 -0.20042618751E+03  0.27373739173E+03  0.16964239394E+03 0.  0.
        -24    2    3    3    0    0  0.51671962907E+02 -0.66712640121E+02 -0.10821935034E+03  0.15867681570E+03  0.79663893653E+02 0.  0.
          6    2    1    2  501    0  0.16416081644E+02  0.75587521665E+02  0.46170295043E+01  0.18811024789E+03  0.17140941407E+03 0.  0.
         24    2    5    5    0    0  0.51142702801E+02  0.99749472483E+02 -0.19105152335E+02  0.13938068812E+03  0.80600471868E+02 0.  0.
          5    1    5    5  501    0 -0.34726621157E+02 -0.24161950818E+02  0.23722181839E+02  0.48729559771E+02  0.47000000000E+01 0. -1.
        -11    1    6    6    0    0  0.19174380843E+02  0.57288712212E+01 -0.33513827470E+02  0.39034004123E+02  0.00000000000E+00 0.  1.
         12    1    6    6    0    0  0.31968321958E+02  0.94020601262E+02  0.14408675136E+02  0.10034668400E+03  0.00000000000E+00 0. -1.
         -5    1    3    3    0  503 -0.68088044551E+02 -0.88748815439E+01 -0.92206837174E+02  0.11506057602E+03  0.47000000000E+01 0.  1.
         11    1    4    4    0    0  0.21898422236E+02 -0.31228536240E+02  0.29381318566E+01  0.38254346040E+02  0.00000000000E+00 0. -1.
        -12    1    4    4    0    0  0.29773540671E+02 -0.35484103881E+02 -0.11115748219E+03  0.12042246966E+03  0.00000000000E+00 0.  1.
</event>
<event>
12    1  0.8344842E-002  0.2152677E+03  0.7818608E-02  0.1137614E+00
         21   -1    0    0  503  502  0.00000000000E+00  0.00000000000E+00  0.66114157386E+02  0.66114157386E+02  0.00000000000E+00 0. -1.
         21   -1    0    0  501  503 -0.00000000000E+00 -0.00000000000E+00 -0.72318548609E+03  0.72318548609E+03  0.00000000000E+00 0.  1.
          6    2    1    2  501    0 -0.75048946137E+01  0.12894453932E+03 -0.40111237818E+03  0.45485210930E+03  0.17121998641E+03 0.  0.
         24    2    3    3    0    0  0.41682251363E+02  0.77598647179E+02 -0.34380258221E+03  0.36340661361E+03  0.78135722682E+02 0.  0.
         -6    2    1    2    0  502  0.75048946137E+01 -0.12894453932E+03 -0.25595895053E+03  0.33444753417E+03  0.17221251725E+03 0.  0.
        -24    2    5    5    0    0 -0.41965435769E+02 -0.83401297953E+02 -0.82141875089E+02  0.14801801362E+03  0.80281818689E+02 0.  0.
          5    1    3    3  501    0 -0.49187145977E+02  0.51345892137E+02 -0.57309795970E+02  0.91445495695E+02  0.47000000000E+01 0. -1.
        -13    1    4    4    0    0  0.40810411474E+02  0.68875463157E+00 -0.12197389774E+03  0.12862191026E+03  0.00000000000E+00 0.  1.
         14    1    4    4    0    0  0.87183988965E+00  0.76909892547E+02 -0.22182868446E+03  0.23478470335E+03  0.00000000000E+00 0. -1.
         -5    1    5    5    0  502  0.49470330383E+02 -0.45543241362E+02 -0.17381707544E+03  0.18642952056E+03  0.47000000000E+01 0.  1.
         13    1    6    6    0    0 -0.85607677705E+01  0.15375785259E+02 -0.49469240334E+01  0.18280415054E+02  0.00000000000E+00 0. -1.
        -14    1    6    6    0    0 -0.33404667999E+02 -0.98777083212E+02 -0.77194951055E+02  0.12973759856E+03  0.00000000000E+00 0.  1.
</event>
<event>
12    1  0.8344842E-002  0.1929612E+03  0.7818608E-02  0.1156349E+00
         21   -1    0    0  503  502  0.00000000000E+00  0.00000000000E+00  0.21994459592E+03  0.21994459592E+03  0.00000000000E+00 0.  1.
         21   -1    0    0  501  503 -0.00000000000E+00 -0.00000000000E+00 -0.22117236043E+03  0.22117236043E+03  0.00000000000E+00 0.  1.
          6    2    1    2  501    0 -0.82275878765E+02 -0.21603441295E+02  0.10834181640E+03  0.21921712442E+03  0.17053495112E+03 0.  0.
         24    2    3    3    0    0 -0.35937322159E+02  0.47755106497E+02  0.90498845179E+02  0.13378685108E+03  0.78337980717E+02 0.  0.
         -6    2    1    2    0  502  0.82275878765E+02  0.21603441295E+02 -0.10956958091E+03  0.22189983193E+03  0.17319934598E+03 0.  0.
        -24    2    5    5    0    0 -0.13904115624E+01  0.40810593612E+02 -0.83242410594E+01  0.89077877128E+02  0.78728250387E+02 0.  0.
          5    1    3    3  501    0 -0.46338556606E+02 -0.69358547791E+02  0.17842971223E+02  0.85430273335E+02  0.47000000000E+01 0. -1.
        -13    1    4    4    0    0 -0.44039654023E+02  0.26018173827E+01  0.71752398619E+02  0.84229847962E+02  0.00000000000E+00 0.  1.
         14    1    4    4    0    0  0.81023318634E+01  0.45153289114E+02  0.18746446559E+02  0.49557003118E+02  0.00000000000E+00 0. -1.
         -5    1    5    5    0  502  0.83666290328E+02 -0.19207152318E+02 -0.10124533985E+03  0.13282195481E+03  0.47000000000E+01 0.  1.
         11    1    6    6    0    0  0.29125318011E+01  0.66337054575E+01  0.33854114685E+02  0.34620658149E+02  0.00000000000E+00 0. -1.
        -12    1    6    6    0    0 -0.43029433635E+01  0.34176888155E+02 -0.42178355744E+02  0.54457218978E+02  0.00000000000E+00 0.  1.
</event>
<event>
12    1  0.8344842E-002  0.2432386E+03  0.7818608E-02  0.1118035E+00
         21   -1    0    0  501  502  0.00000000000E+00  0.00000000000E+00  0.79576484991E+03  0.79576484991E+03  0.00000000000E+00 0. -1.
         21   -1    0    0  502  503 -0.00000000000E+00 -0.00000000000E+00 -0.10802817841E+03  0.10802817841E+03  0.00000000000E+00 0. -1.
         -6    2    1    2    0  503 -0.12774405004E+03 -0.11410035026E+03  0.59769503516E+03  0.64442353113E+03  0.16942520523E+03 0.  0.
        -24    2    3    3    0    0  0.12400803688E+01 -0.57513977855E+02  0.23570098934E+03  0.25596413473E+03  0.81567680150E+02 0.  0.
          6    2    1    2  501    0  0.12774405004E+03  0.11410035026E+03  0.90041636338E+02  0.25936949720E+03  0.17270670963E+03 0.  0.
         24    2    5    5    0    0  0.12284378776E+02  0.29461373745E+02 -0.64002053541E+01  0.86691152110E+02  0.80346217837E+02 0.  0.
          5    1    5    5  501    0  0.11545967126E+03  0.84638976513E+02  0.96441841692E+02  0.17267834509E+03  0.47000000000E+01 0. -1.
        -11    1    6    6    0    0 -0.16166716425E+02 -0.13107249647E+02  0.20190582375E+02  0.28996936562E+02  0.00000000000E+00 0.  1.
         12    1    6    6    0    0  0.28451095201E+02  0.42568623393E+02 -0.26590787729E+02  0.57694215549E+02  0.00000000000E+00 0. -1.
         -5    1    3    3    0  503 -0.12898413040E+03 -0.56586372404E+02  0.36199404582E+03  0.38845939640E+03  0.47000000000E+01 0.  1.
         11    1    4    4    0    0 -0.92627763545E+01  0.17447903249E+02  0.85692127798E+02  0.87939576530E+02  0.00000000000E+00 0. -1.
        -12    1    4    4    0    0  0.10502856723E+02 -0.74961881104E+02  0.15000886154E+03  0.16802455820E+03  0.00000000000E+00 0.  1.
</event>
<event>
12    1  0.8344842E-002  0.2881911E+03  0.7818608E-02  0.1091335E+00
         21   -1    0    0  501  502  0.00000000000E+00  0.00000000000E+00  0.38985497227E+03  0.38985497227E+03  0.00000000000E+00 0.  1.
         21   -1    0    0  502  503 -0.00000000000E+00 -0.00000000000E+00 -0.44731462812E+03  0.44731462812E+03  0.00000000000E+00 0. -1.
         -6    2    1    2    0  503  0.12191351781E+03 -0.19611994358E+03 -0.33180224619E+03  0.43948475761E+03  0.17241862865E+03 0.  0.
        -24    2    3    3    0    0  0.12032689517E+03 -0.21190828157E+03 -0.33765177583E+03  0.42193209442E+03  0.68075612997E+02 0.  0.
          6    2    1    2  501    0 -0.12191351781E+03  0.19611994358E+03  0.27434259033E+03  0.39768484278E+03  0.17194021988E+03 0.  0.
         24    2    5    5    0    0 -0.32710055273E+02  0.14896943332E+03  0.23083730299E+03  0.28770653413E+03  0.78913557466E+02 0.  0.
          5    1    5    5  501    0 -0.89203462533E+02  0.47150510252E+02  0.43505287349E+02  0.10997830864E+03  0.47000000000E+01 0. -1.
        -13    1    6    6    0    0 -0.19761157393E+02  0.13970997921E+03  0.15248068286E+03  0.20774922450E+03  0.00000000000E+00 0.  1.
         14    1    6    6    0    0 -0.12948897880E+02  0.92594541101E+01  0.78356620125E+02  0.79957309635E+02  0.00000000000E+00 0. -1.
         -5    1    3    3    0  503  0.15866226349E+01  0.15788337989E+02  0.58495296445E+01  0.17552663186E+02  0.47000000000E+01 0.  1.
         11    1    4    4    0    0  0.16131847085E+02 -0.91514011899E+02 -0.10785791564E+03  0.14236706371E+03  0.00000000000E+00 0. -1.
        -12    1    4    4    0    0  0.10419504809E+03 -0.12039426967E+03 -0.22979386019E+03  0.27956503071E+03  0.00000000000E+00 0.  1.
</event>
<event>
12    1  0.8344842E-002  0.2237281E+03  0.7818608E-02  0.1131880E+00
         21   -1    0    0  503  502  0.00000000000E+00  0.00000000000E+00  0.50656588739E+03  0.50656588739E+03  0.00000000000E+00 0. -1.
         21   -1    0    0  501  503 -0.00000000000E+00 -0.00000000000E+00 -0.21325159296E+03  0.21325159296E+03  0.00000000000E+00 0.  1.
          6    2    1    2  501    0 -0.15831737302E+02 -0.13519135191E+03 -0.11842826943E+03  0.25313928788E+03  0.17755815534E+03 0.  0.
         24    2    3    3    0    0  0.19823658715E+02 -0.85331922352E+02 -0.14500723856E+03  0.18616316093E+03  0.77169351642E+02 0.  0.
         -6    2    1    2    0  502  0.15831737302E+02  0.13519135191E+03  0.41174256386E+03  0.46667819247E+03  0.17242172395E+03 0.  0.
        -24    2    5    5    0    0  0.19088026294E+01  0.16481802576E+03  0.31733519152E+03  0.36664604831E+03  0.80988121461E+02 0.  0.
          5    1    3    3  501    0 -0.35655396017E+02 -0.49859429563E+02  0.26578969129E+02  0.66976126952E+02  0.47000000000E+01 0. -1.
        -13    1    4    4    0    0 -0.22961866025E+02 -0.62711890719E+02 -0.98772171910E+02  0.11923074466E+03  0.00000000000E+00 0.  1.
         14    1    4    4    0    0  0.42785524740E+02 -0.22620031633E+02 -0.46235066653E+02  0.66932416263E+02  0.00000000000E+00 0. -1.
         -5    1    5    5    0  502  0.13922934672E+02 -0.29626673845E+02  0.94407372341E+02  0.10003214416E+03  0.47000000000E+01 0.  1.
         11    1    6    6    0    0  0.32297002330E+02  0.25863776819E+02  0.68508369202E+02  0.80033917570E+02  0.00000000000E+00 0. -1.
        -12    1    6    6    0    0 -0.30388199701E+02  0.13895424894E+03  0.24882682232E+03  0.28661213074E+03  0.00000000000E+00 0.  1.
</event>
<event>
12    1  0.8344842E-002  0.2482825E+03  0.7818608E-02  0.1114504E+00
         21   -1    0    0  503  502  0.00000000000E+00  0.00000000000E+00  0.35830768125E+03  0.35830768125E+03  0.00000000000E+00 0. -1.
         21   -1    0    0  501  503 -0.00000000000E+00 -0.00000000000E+00 -0.25902480537E+03  0.25902480537E+03  0.00000000000E+00 0. -1.
          6    2    1    2  501    0  0.13677207905E+03 -0.11548699404E+03 -0.12966553683E+03  0.28010235971E+03  0.17204747332E+03 0.  0.
         24    2    3    3    0    0  0.19838704493E+02 -0.98300584248E+02 -0.83322845022E+02  0.15306487764E+03  0.80184669392E+02 0.  0.
         -6    2    1    2    0  502 -0.13677207905E+03  0.11548699404E+03  0.22894841272E+03  0.33723012691E+03  0.17106412660E+03 0.  0.
        -24    2    5    5    0    0 -0.12544772018E+03  0.13550560546E+03  0.24057928481E+03  0.31103178550E+03  0.69017966486E+02 0.  0.
          5    1    3    3  501    0  0.11693337456E+03 -0.17186409793E+02 -0.46342691811E+02  0.12703748207E+03  0.47000000000E+01 0. -1.
        -13    1    4    4    0    0 -0.13617211936E+02 -0.91497302297E+01  0.10426130694E+02  0.19438369927E+02  0.00000000000E+00 0.  1.
         14    1    4    4    0    0  0.33455916429E+02 -0.89150854019E+02 -0.93748975716E+02  0.13362650772E+03  0.00000000000E+00 0. -1.
         -5    1    5    5    0  502 -0.11324358874E+02 -0.20018611419E+02 -0.11630872098E+02  0.26198341413E+02  0.47000000000E+01 0.  1.
         11    1    6    6    0    0 -0.27248415076E+02  0.36757776688E+02  0.19482310497E+02  0.49730983235E+02  0.00000000000E+00 0. -1.
        -12    1    6    6    0    0 -0.98199305101E+02  0.98747828772E+02  0.22109697432E+03  0.26130080226E+03  0.00000000000E+00 0.  1.
</event>
<event>
12    1  0.8344842E-002  0.4005166E+03  0.7818608E-02  0.1043860E+00
         21   -1    0    0  503  502  0.00000000000E+00  0.00000000000E+00  0.35135678322E+03  0.35135678322E+03  0.00000000000E+00 0.  1.
         21   -1    0    0  501  503 -0.00000000000E+00 -0.00000000000E+00 -0.81253627235E+03  0.81253627235E+03  0.00000000000E+00 0. -1.
          6    2    1    2  501    0  0.35707755499E+03 -0.62214668895E+01 -0.61713167717E+03  0.73408542997E+03  0.17460476681E+03 0.  0.
         24    2    3    3    0    0  0.98620187080E+02 -0.18181195139E+02 -0.11451083028E+03  0.16875981419E+03  0.72874189371E+02 0.  0.
         -6    2    1    2    0  502 -0.35707755499E+03  0.62214668895E+01  0.15595218804E+03  0.42980762560E+03  0.18130202188E+03 0.  0.
        -24    2    5    5    0    0 -0.16890695850E+03  0.71515594317E+02  0.98767347973E+02  0.22253077596E+03  0.78236285475E+02 0.  0.
          5    1    3    3  501    0  0.25845736791E+03  0.11959728250E+02 -0.50262084690E+03  0.56532561578E+03  0.47000000000E+01 0. -1.
        -11    1    4    4    0    0  0.77467918701E+02 -0.36378463740E+02 -0.11169697733E+03  0.14071562030E+03  0.00000000000E+00 0.  1.
         12    1    4    4    0    0  0.21152268378E+02  0.18197268601E+02 -0.28138529452E+01  0.28044193882E+02  0.00000000000E+00 0. -1.
         -5    1    5    5    0  502 -0.18817059649E+03 -0.65294127427E+02  0.57184840071E+02  0.20727684963E+03  0.47000000000E+01 0.  1.
         11    1    6    6    0    0 -0.21203802783E+02  0.38041407455E+02  0.42826380657E+02  0.61080674634E+02  0.00000000000E+00 0. -1.
        -12    1    6    6    0    0 -0.14770315572E+03  0.33474186862E+02  0.55940967316E+02  0.16145010133E+03  0.00000000000E+00 0.  1.
</event>
<event>
12    1  0.8344842E-002  0.2633942E+03  0.7818608E-02  0.1105486E+00
         21   -1    0    0  501  502  0.00000000000E+00  0.00000000000E+00  0.93543406349E+02  0.93543406349E+02  0.00000000000E+00 0. -1.
         21   -1    0    0  502  503 -0.00000000000E+00 -0.00000000000E+00 -0.10991706254E+04  0.10991706254E+04  0.00000000000E+00 0.  1.
         -6    2    1    2    0  503  0.96614806528E+01  0.19637108046E+03 -0.84776972252E+03  0.88774433062E+03  0.17527563626E+03 0.  0.
        -24    2    3    3    0    0 -0.29348161272E+02  0.68334345949E+02 -0.21393079547E+03  0.23991022146E+03  0.79117834279E+02 0.  0.
          6    2    1    2  501    0 -0.96614806528E+01 -0.19637108046E+03 -0.15785749651E+03  0.30496970111E+03  0.17155927240E+03 0.  0.
         24    2    5    5    0    0 -0.65437616118E+02 -0.11937103350E+03 -0.68264762255E+02  0.17424505711E+03  0.84674299054E+02 0.  0.
          5    1    5    5  501    0  0.55776135465E+02 -0.77000046955E+02 -0.89592734252E+02  0.13072464400E+03  0.47000000000E+01 0. -1.
        -13    1    6    6    0    0 -0.57937092470E+02 -0.21253281826E+02 -0.30563156517E+02  0.68865921968E+02  0.00000000000E+00 0.  1.
         14    1    6    6    0    0 -0.75005236481E+01 -0.98117751674E+02 -0.37701605738E+02  0.10537913514E+03  0.00000000000E+00 0. -1.
         -5    1    3    3    0  503  0.39009641925E+02  0.12803673451E+03 -0.63383892705E+03  0.64783410916E+03  0.47000000000E+01 0.  1.
         11    1    4    4    0    0 -0.44297766629E+02  0.70994797922E+02 -0.12991335008E+03  0.15453165368E+03  0.00000000000E+00 0. -1.
        -12    1    4    4    0    0  0.14949605357E+02 -0.26604519730E+01 -0.84017445391E+02  0.85378567774E+02  0.00000000000E+00 0.  1.
</event>
<event>
12    1  0.8344842E-002  0.1885391E+03  0.7818608E-02  0.1160161E+00
         21   -1    0    0  503  502  0.00000000000E+00  0.00000000000E+00  0.15337506716E+03  0.15337506716E+03  0.00000000000E+00 0.  1.
         21   -1    0    0  501  503 -0.00000000000E+00 -0.00000000000E+00 -0.26041604294E+03  0.26041604294E+03  0.00000000000E+00 0.  1.
          6    2    1    2  501    0  0.55537557673E+02 -0.44594920860E+02  0.17681457728E+02  0.18773213502E+03  0.17279349899E+03 0.  0.
         24    2    3    3    0    0  0.23164044855E+02 -0.82973316977E+02  0.50442746383E+02  0.12759614202E+03  0.79467984061E+02 0.  0.
         -6    2    1    2    0  502 -0.55537557673E+02  0.44594920860E+02 -0.12472243351E+03  0.22605897507E+03  0.17456760155E+03 0.  0.
        -24    2    5    5    0    0 -0.84661908250E+02  0.11359976479E+02 -0.31066555842E+02  0.12239459958E+03  0.81967184533E+02 0.  0.
          5    1    3    3  501    0  0.32373512818E+02  0.38378396117E+02 -0.32761288655E+02  0.60135993007E+02  0.47000000000E+01 0. -1.
        -11    1    4    4    0    0  0.41992764562E+02 -0.26870887848E+02  0.46683330331E+02  0.68299123129E+02  0.00000000000E+00 0.  1.
         12    1    4    4    0    0 -0.18828719708E+02 -0.56102429129E+02  0.37594160517E+01  0.59297018888E+02  0.00000000000E+00 0. -1.
         -5    1    5    5    0  502  0.29124350577E+02  0.33234944381E+02 -0.93655877670E+02  0.10366437549E+03  0.47000000000E+01 0.  1.
         13    1    6    6    0    0 -0.95636737865E+01 -0.23582525733E+02  0.12996004832E+02  0.28574385695E+02  0.00000000000E+00 0. -1.
        -14    1    6    6    0    0 -0.75098234464E+02  0.34942502212E+02 -0.44062560674E+02  0.93820213886E+02  0.00000000000E+00 0.  1.
</event>
<event>
12    1  0.8344842E-002  0.2346832E+03  0.7818608E-02  0.1123425E+00
         21   -1    0    0  503  502  0.00000000000E+00  0.00000000000E+00  0.84643433937E+03  0.84643433937E+03  0.00000000000E+00 0.  1.
         21   -1    0    0  501  503 -0.00000000000E+00 -0.00000000000E+00 -0.79370458425E+02  0.79370458425E+02  0.00000000000E+00 0. -1.
          6    2    1    2  501    0  0.15760828112E+03 -0.28712712193E+02  0.18645776633E+03  0.29956228309E+03  0.17119074948E+03 0.  0.
         24    2    3    3    0    0  0.44540482074E+02  0.40097891347E+02  0.63746438359E+02  0.11900928159E+03  0.80671588965E+02 0.  0.
         -6    2    1    2    0  502 -0.15760828112E+03  0.28712712193E+02  0.58060611462E+03  0.62624251471E+03  0.17149762908E+03 0.  0.
        -24    2    5    5    0    0 -0.14656160042E+03 -0.33050729534E+02  0.46170912488E+03  0.49172360876E+03  0.77744054277E+02 0.  0.
          5    1    3    3  501    0  0.11306779904E+03 -0.68810603540E+02  0.12271132797E+03  0.18055300150E+03  0.47000000000E+01 0. -1.
        -11    1    4    4    0    0 -0.29178849599E+01  0.51116202820E+02  0.39018683464E+02  0.64372648715E+02  0.00000000000E+00 0.  1.
         12    1    4    4    0    0  0.47458367034E+02 -0.11018311473E+02  0.24727754895E+02  0.54636632870E+02  0.00000000000E+00 0. -1.
         -5    1    5    5    0  502 -0.11046680694E+02  0.61763441727E+02  0.11889698975E+03  0.13451890595E+03  0.47000000000E+01 0.  1.
         11    1    6    6    0    0 -0.55680606358E+01 -0.23638311690E+02  0.11082438797E+03  0.11345403496E+03  0.00000000000E+00 0. -1.
        -12    1    6    6    0    0 -0.14099353979E+03 -0.94124178438E+01  0.35088473690E+03  0.37826957380E+03  0.00000000000E+00 0.  1.
</event>
<event>
12    1  0.8344842E-002  0.2292603E+03  0.7818608E-02  0.1127558E+00
         21   -1    0    0  501  502  0.00000000000E+00  0.00000000000E+00  0.21364997509E+03  0.21364997509E+03  0.00000000000E+00 0. -1.
         21   -1    0    0  502  503 -0.00000000000E+00 -0.00000000000E+00 -0.28567956301E+03  0.28567956301E+03  0.00000000000E+00 0. -1.
         -6    2    1    2    0  503  0.14510431597E+03  0.32270475183E+02 -0.13195580052E+03  0.26452335010E+03  0.17453831493E+03 0.  0.
        -24    2    3    3    0    0  0.60067443517E+02  0.17969033761E+02  0.58674950284E+01  0.10187910121E+03  0.80087076488E+02 0.  0.
          6    2    1    2  501    0 -0.14510431597E+03 -0.32270475183E+02  0.59926212604E+02  0.23480618799E+03  0.17159880209E+03 0.  0.
         24    2    5    5    0    0 -0.85992067119E+02  0.41023373252E+02  0.21920119560E+01  0.12425495956E+03  0.79730403857E+02 0.  0.
          5    1    5    5  501    0 -0.59112248853E+02 -0.73293848435E+02  0.57734200649E+02  0.11055122843E+03  0.47000000000E+01 0. -1.
        -11    1    6    6    0    0 -0.17621770773E+02  0.52039639467E+02  0.25601384241E+01  0.55001865329E+02  0.00000000000E+00 0.  1.
         12    1    6    6    0    0 -0.68370296346E+02 -0.11016266215E+02 -0.36812646810E+00  0.69253094233E+02  0.00000000000E+00 0. -1.
         -5    1    3    3    0  503  0.85036872454E+02  0.14301441422E+02 -0.13782329555E+03  0.16264424890E+03  0.47000000000E+01 0.  1.
         11    1    4    4    0    0  0.42063977718E+02  0.48535510334E+02 -0.59164843324E+01  0.64498672635E+02  0.00000000000E+00 0. -1.
        -12    1    4    4    0    0  0.18003465799E+02 -0.30566476573E+02  0.11783979361E+02  0.37380428575E+02  0.00000000000E+00 0.  1.
</event>
<event>
12    1  0.8344842E-002  0.2591364E+03  0.7818608E-02  0.1107991E+00
         21   -1    0    0  503  502  0.00000000000E+00  0.00000000000E+00  0.17490795969E+04  0.17490795969E+04  0.00000000000E+00 0. -1.
         21   -1    0    0  501  503 -0.00000000000E+00 -0.00000000000E+00 -0.38307762569E+02  0.38307762569E+02  0.00000000000E+00 0.  1.
          6    2    1    2  501    0  0.14763223523E+02 -0.19113680938E+03  0.78897128431E+03  0.83043803952E+03  0.17435715455E+03 0.  0.
         24    2    3    3    0    0 -0.54350380590E+02 -0.14629223646E+03  0.57981358418E+03  0.60558973617E+03  0.78738515597E+02 0.  0.
         -6    2    1    2    0  502 -0.14763223523E+02  0.19113680938E+03  0.92180055006E+03  0.95694931999E+03  0.17112718741E+03 0.  0.
        -24    2    5    5    0    0 -0.12630413727E+01  0.11790136867E+03  0.32409985108E+03  0.35460896749E+03  0.82489261989E+02 0.  0.
          5    1    3    3  501    0  0.69113604113E+02 -0.44844572921E+02  0.20915770013E+03  0.22484830335E+03  0.47000000000E+01 0. -1.
        -11    1    4    4    0    0 -0.14765801281E+02  0.41092829742E+01  0.10087292693E+03  0.10203069382E+03  0.00000000000E+00 0.  1.
         12    1    4    4    0    0 -0.39584579309E+02 -0.15040151943E+03  0.47894065725E+03  0.50355904235E+03  0.00000000000E+00 0. -1.
         -5    1    5    5    0  502 -0.13500182151E+02  0.73235440709E+02  0.59770069898E+03  0.60234035250E+03  0.47000000000E+01 0.  1.
         13    1    6    6    0    0  0.37884631613E+02  0.78266274766E+02  0.21957352951E+03  0.23616390482E+03  0.00000000000E+00 0. -1.
        -14    1    6    6    0    0 -0.39147672986E+02  0.39635093904E+02  0.10452632157E+03  0.11844506267E+03  0.00000000000E+00 0.  1.
</event>
<event>
12    1  0.8344842E-002  0.2368363E+03  0.7818608E-02  0.1122138E+00
         21   -1    0    0  503  502  0.00000000000E+00  0.00000000000E+00  0.68866399018E+03  0.68866399018E+03  0.00000000000E+00 0. -1.
         21   -1    0    0  501  503 -0.00000000000E+00 -0.00000000000E+00 -0.94423872603E+02  0.94423872603E+02  0.00000000000E+00 0.  1.
          6    2    1    2  501    0  0.12145791216E+03 -0.10617286546E+03  0.15021761774E+03  0.28045814657E+03  0.17339762834E+03 0.  0.
         24    2    3    3    0    0  0.15250258270E+03 -0.11113159106E+03  0.11936328311E+03  0.23615870533E+03  0.76916009315E+02 0.  0.
         -6    2    1    2    0  502 -0.12145791216E+03  0.10617286546E+03  0.44402249984E+03  0.50262971621E+03  0.17162735641E+03 0.  0.
        -24    2    5    5    0    0 -0.76086366088E+02  0.25449518099E+01  0.14243100706E+03  0.18048558667E+03  0.80578181537E+02 0.  0.
          5    1    3    3  501    0 -0.31044670538E+02  0.49587256043E+01  0.30854334627E+02  0.44299441235E+02  0.47000000000E+01 0. -1.
        -13    1    4    4    0    0  0.76203990914E+02 -0.92928225155E+02  0.97428633127E+02  0.15470954015E+03  0.00000000000E+00 0.  1.
         14    1    4    4    0    0  0.76298591786E+02 -0.18203365907E+02  0.21934649981E+02  0.81449165181E+02  0.00000000000E+00 0. -1.
         -5    1    5    5    0  502 -0.45371546074E+02  0.10362791365E+03  0.30159149279E+03  0.32214412955E+03  0.47000000000E+01 0.  1.
         11    1    6    6    0    0 -0.54258556466E+02 -0.10767345610E+02  0.14460710426E+03  0.15482616472E+03  0.00000000000E+00 0. -1.
        -12    1    6    6    0    0 -0.21827809622E+02  0.13312297420E+02 -0.21760972021E+01  0.25659421944E+02  0.00000000000E+00 0.  1.
</event>
<event>
12    1  0.8344842E-002  0.3702016E+03  0.7818608E-02  0.1054631E+00
         21   -1    0    0  503  502  0.00000000000E+00  0.00000000000E+00  0.67283133534E+03  0.67283133534E+03  0.00000000000E+00 0. -1.
         21   -1    0    0  501  503 -0.00000000000E+00 -0.00000000000E+00 -0.20420425051E+03  0.20420425051E+03  0.00000000000E+00 0.  1.
          6    2    1    2  501    0  0.27300046678E+03 -0.18095676870E+03  0.21059506048E+03  0.42591016366E+03  0.17255312519E+03 0.  0.
         24    2    3    3    0    0  0.57658881538E+02 -0.75341634827E+02  0.19347462343E+02  0.11911334388E+03  0.69374028514E+02 0.  0.
         -6    2    1    2    0  502 -0.27300046678E+03  0.18095676870E+03  0.25803202435E+03  0.45112542219E+03  0.17221792578E+03 0.  0.
        -24    2    5    5    0    0 -0.27641797247E+03  0.13463550527E+03  0.19541472385E+03  0.37302065209E+03  0.80149097352E+02 0.  0.
          5    1    3    3  501    0  0.21534158524E+03 -0.10561513387E+03  0.19124759814E+03  0.30679681979E+03  0.47000000000E+01 0. -1.
        -11    1    4    4    0    0  0.31102775357E+02 -0.80136440919E+02  0.28587727792E+02  0.90589679205E+02  0.00000000000E+00 0.  1.
         12    1    4    4    0    0  0.26556106180E+02  0.47948060917E+01 -0.92402654483E+01  0.28523664675E+02  0.00000000000E+00 0. -1.
         -5    1    5    5    0  502  0.34175056878E+01  0.46321263428E+02  0.62617300503E+02  0.78104770104E+02  0.47000000000E+01 0.  1.
         13    1    6    6    0    0 -0.12323123185E+03  0.87908242619E+02  0.13173997172E+03  0.20067191078E+03  0.00000000000E+00 0. -1.
        -14    1    6    6    0    0 -0.15318674061E+03  0.46727262655E+02  0.63674752124E+02  0.17234874131E+03  0.00000000000E+00 0.  1.
</event>
<event>
12    1  0.8344842E-002  0.1831780E+03  0.7818608E-02  0.1165036E+00
         21   -1    0    0  503  502  0.00000000000E+00  0.00000000000E+00  0.21027968214E+03  0.21027968214E+03  0.00000000000E+00 0. -1.
         21   -1    0    0  501  503 -0.00000000000E+00 -0.00000000000E+00 -0.17505310609E+03  0.17505310609E+03  0.00000000000E+00 0.  1.
          6    2    1    2  501    0 -0.51604181742E+02  0.35687955554E+02 -0.41460913357E+02  0.18781157340E+03  0.17209752474E+03 0.  0.
         24    2    3    3    0    0 -0.91143830503E+01  0.65079924492E+02 -0.77162217883E+02  0.12483583223E+03  0.72880097348E+02 0.  0.
         -6    2    1    2    0  502  0.51604181742E+02 -0.35687955554E+02  0.76687489402E+02  0.19752121483E+03  0.17087140642E+03 0.  0.
        -24    2    5    5    0    0  0.33181263884E+02 -0.58375916987E+02  0.11145623929E+03  0.15185828167E+03  0.78292403713E+02 0.  0.
          5    1    3    3  501    0 -0.42489798691E+02 -0.29391968938E+02  0.35701304525E+02  0.62975741168E+02  0.47000000000E+01 0. -1.
        -13    1    4    4    0    0 -0.13782636269E+02 -0.52093015433E+01 -0.45086228196E+02  0.47432750901E+02  0.00000000000E+00 0.  1.
         14    1    4    4    0    0  0.46682532188E+01  0.70289226035E+02 -0.32075989687E+02  0.77403081328E+02  0.00000000000E+00 0. -1.
         -5    1    5    5    0  502  0.18422917858E+02  0.22687961433E+02 -0.34768749884E+02  0.45662933161E+02  0.47000000000E+01 0.  1.
         11    1    6    6    0    0  0.20418737693E+00 -0.64874123353E+02  0.93354040353E+02  0.11368232239E+03  0.00000000000E+00 0. -1.
        -12    1    6    6    0    0  0.32977076507E+02  0.64982063656E+01  0.18102198932E+02  0.38175959282E+02  0.00000000000E+00 0.  1.
</event>
<event>
12    1  0.8344842E-002  0.1855217E+03  0.7818608E-02  0.1162941E+00
         21   -1    0    0  503  502  0.00000000000E+00  0.00000000000E+00  0.36967601006E+03  0.36967601006E+03  0.00000000000E+00 0. -1.
         21   -1    0    0  501  503 -0.00000000000E+00 -0.00000000000E+00 -0.19921909588E+03  0.19921909588E+03  0.00000000000E+00 0. -1.
          6    2    1    2  501    0 -0.89355647792E+01 -0.65793746623E+02 -0.12298651180E+03  0.22258479784E+03  0.17323293201E+03 0.  0.
         24    2    3    3    0    0 -0.36053310194E+02 -0.10613648747E+03 -0.82437746597E+02  0.15910880856E+03  0.77167582229E+02 0.  0.
         -6    2    1    2    0  502  0.89355647792E+01  0.65793746623E+02  0.29344342597E+03  0.34631030810E+03  0.17150254761E+03 0.  0.
        -24    2    5    5    0    0 -0.15142649017E+02 -0.13150814895E+02  0.68231213802E+02  0.10640483779E+03  0.79146997524E+02 0.  0.
          5    1    3    3  501    0  0.27117745414E+02  0.40342740851E+02 -0.40548765206E+02  0.63475989283E+02  0.47000000000E+01 0. -1.
        -13    1    4    4    0    0  0.13160028668E+02  0.16041136393E+01 -0.23087569557E+02  0.26623211736E+02  0.00000000000E+00 0.  1.
         14    1    4    4    0    0 -0.49213338862E+02 -0.10774060111E+03 -0.59350177040E+02  0.13248559682E+03  0.00000000000E+00 0. -1.
         -5    1    5    5    0  502  0.24078213796E+02  0.78944561517E+02  0.22521221217E+03  0.23990547031E+03  0.47000000000E+01 0.  1.
         11    1    6    6    0    0 -0.40381947951E+01  0.33461535144E+02  0.26820595617E+02  0.43073491856E+02  0.00000000000E+00 0. -1.
        -12    1    6    6    0    0 -0.11104454221E+02 -0.46612350039E+02  0.41410618185E+02  0.63331345937E+02  0.00000000000E+00 0.  1.
</event>
<event>
12    1  0.8344842E-002  0.2732183E+03  0.7818608E-02  0.1099810E+00
         21   -1    0    0  501  502  0.00000000000E+00  0.00000000000E+00  0.11822206948E+03  0.11822206948E+03  0.00000000000E+00 0.  1.
         21   -1    0    0  502  503 -0.00000000000E+00 -0.00000000000E+00 -0.64517378967E+03  0.64517378967E+03  0.00000000000E+00 0.  1.
         -6    2    1    2    0  503  0.17049437647E+03  0.12414015988E+03 -0.32879621658E+03  0.42588460069E+03  0.16968096347E+03 0.  0.
        -24    2    3    3    0    0  0.16936792117E+03  0.46716539052E+02 -0.21858118584E+03  0.29110652768E+03  0.78085516647E+02 0.  0.
          6    2    1    2  501    0 -0.17049437647E+03 -0.12414015988E+03 -0.19815550361E+03  0.33751125846E+03  0.17369264313E+03 0.  0.
         24    2    5    5    0    0 -0.11863107141E+03 -0.11356681780E+02 -0.73822099417E+02  0.16175346847E+03  0.80698059931E+02 0.  0.
          5    1    5    5  501    0 -0.51863305060E+02 -0.11278347810E+03 -0.12433340419E+03  0.17575778999E+03  0.47000000000E+01 0. -1.
        -13    1    6    6    0    0 -0.17754462871E+02 -0.32941632352E+02 -0.50252002163E+01  0.37757446035E+02  0.00000000000E+00 0.  1.
         14    1    6    6    0    0 -0.10087660854E+03  0.21584950572E+02 -0.68796899201E+02  0.12399602244E+03  0.00000000000E+00 0. -1.
         -5    1    3    3    0  503  0.11264552939E+01  0.77423620826E+02 -0.11021503075E+03  0.13477807301E+03  0.47000000000E+01 0.  1.
         11    1    4    4    0    0  0.16073773016E+03  0.61109002354E+02 -0.17951872471E+03  0.24859183532E+03  0.00000000000E+00 0. -1.
        -12    1    4    4    0    0  0.86301910109E+01 -0.14392463302E+02 -0.39062461126E+02  0.42514692355E+02  0.00000000000E+00 0.  1.
</event>
<event>
12    1  0.8344842E-002  0.2526805E+03  0.7818608E-02  0.1111816E+00
         21   -1    0    0  503  502  0.00000000000E+00  0.00000000000E+00  0.43666619431E+02  0.43666619431E+02  0.00000000000E+00 0.  1.
         21   -1    0    0  501  503 -0.00000000000E+00 -0.00000000000E+00 -0.18432353955E+04  0.18432353955E+04  0.00000000000E+00 0. -1.
          6    2    1    2  501    0  0.40108828683E+02 -0.18125570727E+03 -0.46854288692E+03  0.53233434399E+03  0.17142073196E+03 0.  0.
         24    2    3    3    0    0  0.61041942508E+02 -0.12561423779E+03 -0.43519073167E+03  0.46400700948E+03  0.80040467493E+02 0.  0.
         -6    2    1    2    0  502 -0.40108828683E+02  0.18125570727E+03 -0.13310258892E+04  0.13545676710E+04  0.16959159185E+03 0.  0.
        -24    2    5    5    0    0 -0.89550986451E+02  0.15026317867E+03 -0.10841685241E+04  0.11008636850E+04  0.76688084571E+02 0.  0.
          5    1    3    3  501    0 -0.20933113825E+02 -0.55641469489E+02 -0.33352155257E+02  0.68327334513E+02  0.47000000000E+01 0. -1.
        -11    1    4    4    0    0  0.63585360172E+02 -0.41510276699E+02 -0.18219529400E+03  0.19738623624E+03  0.00000000000E+00 0.  1.
         12    1    4    4    0    0 -0.25434176634E+01 -0.84103961087E+02 -0.25299543766E+03  0.26662077324E+03  0.00000000000E+00 0. -1.
         -5    1    5    5    0  502  0.49442157767E+02  0.30992528610E+02 -0.24685736508E+03  0.25370398595E+03  0.47000000000E+01 0.  1.
         11    1    6    6    0    0 -0.69861266119E+02  0.12388394956E+03 -0.10066246696E+04  0.10166223757E+04  0.00000000000E+00 0. -1.
        -12    1    6    6    0    0 -0.19689720332E+02  0.26379229105E+02 -0.77543854546E+02  0.84241309301E+02  0.00000000000E+00 0.  1.
</event>
<event>
12    1  0.8344842E-002  0.1969514E+03  0.7818608E-02  0.1153254E+00
         21   -1    0    0  501  502  0.00000000000E+00  0.00000000000E+00  0.29470379116E+03  0.29470379116E+03  0.00000000000E+00 0. -1.
         21   -1    0    0  502  503 -0.00000000000E+00 -0.00000000000E+00 -0.20799960812E+03  0.20799960812E+03  0.00000000000E+00 0. -1.
         -6    2    1    2    0  503 -0.38716412575E+02 -0.85276993199E+02 -0.11201111324E+03  0.22292204722E+03  0.16845362412E+03 0.  0.
        -24    2    3    3    0    0 -0.51689704472E+02 -0.70111995295E+02 -0.94832408845E+01  0.11836422555E+03  0.79577890145E+02 0.  0.
          6    2    1    2  501    0  0.38716412575E+02  0.85276993199E+02  0.19871529628E+03  0.27978135205E+03  0.17325908291E+03 0.  0.
         24    2    5    5    0    0  0.79324133802E+02  0.71485816573E+02  0.85549804997E+02  0.15867106350E+03  0.80344241134E+02 0.  0.
          5    1    5    5  501    0 -0.40607721227E+02  0.13791176626E+02  0.11316549128E+03  0.12111028855E+03  0.47000000000E+01 0. -1.
        -13    1    6    6    0    0 -0.25571164340E+01 -0.14560102411E+02  0.11127500156E+02  0.18502883191E+02  0.00000000000E+00 0.  1.
         14    1    6    6    0    0  0.81881250236E+02  0.86045918983E+02  0.74422304841E+02  0.14016818031E+03  0.00000000000E+00 0. -1.
         -5    1    3    3    0  503  0.12973291898E+02 -0.15164997904E+02 -0.10252787235E+03  0.10455782167E+03  0.47000000000E+01 0.  1.
         11    1    4    4    0    0 -0.56784890119E+02 -0.52342722543E+02 -0.36666612638E+02  0.85491080420E+02  0.00000000000E+00 0. -1.
        -12    1    4    4    0    0  0.50951856463E+01 -0.17769272752E+02  0.27183371754E+02  0.32873145131E+02  0.00000000000E+00 0.  1.
</event>
<event>
12    1  0.8344842E-002  0.1905449E+03  0.7818608E-02  0.1158201E+00
         21   -1    0    0  501  502  0.00000000000E+00  0.00000000000E+00  0.57547880320E+03  0.57547880320E+03  0.00000000000E+00 0. -1.
         21   -1    0    0  502  503 -0.00000000000E+00 -0.00000000000E+00 -0.28766539902E+03  0.28766539902E+03  0.00000000000E+00 0. -1.
         -6    2    1    2    0  503 -0.76644566487E+02 -0.26638045076E+02 -0.23761581082E+03  0.30457942761E+03  0.17240469585E+03 0.  0.
        -24    2    3    3    0    0 -0.89547814688E+02  0.23633583574E+02 -0.15408018513E+03  0.20612120692E+03  0.10083596136E+03 0.  0.
          6    2    1    2  501    0  0.76644566487E+02  0.26638045076E+02  0.52542921500E+03  0.55856477462E+03  0.17127396898E+03 0.  0.
         24    2    5    5    0    0  0.97452087007E+02  0.79428248903E+01  0.23669000537E+03  0.26843569068E+03  0.80470887036E+02 0.  0.
          5    1    5    5  501    0 -0.20807520519E+02  0.18695220186E+02  0.28873920964E+03  0.29012908394E+03  0.47000000000E+01 0. -1.
        -11    1    6    6    0    0  0.54998820269E+02  0.35939086327E+02  0.18322590585E+03  0.19464896796E+03  0.00000000000E+00 0.  1.
         12    1    6    6    0    0  0.42453266738E+02 -0.27996261437E+02  0.53464099522E+02  0.73786722714E+02  0.00000000000E+00 0. -1.
         -5    1    3    3    0  503  0.12903248201E+02 -0.50271628650E+02 -0.83535625690E+02  0.98458220686E+02  0.47000000000E+01 0.  1.
         13    1    4    4    0    0 -0.92193107750E+02 -0.10048330719E+02 -0.72154332801E+02  0.11750228001E+03  0.00000000000E+00 0. -1.
        -14    1    4    4    0    0  0.26452930617E+01  0.33681914293E+02 -0.81925852329E+02  0.88618926904E+02  0.00000000000E+00 0.  1.
</event>
<event>
12    1  0.8344842E-002  0.1999836E+03  0.7818608E-02  0.1150594E+00
         21   -1    0    0  503  502  0.00000000000E+00  0.00000000000E+00  0.98749965363E+03  0.98749965363E+03  0.00000000000E+00 0.  1.
         21   -1    0    0  501  503 -0.00000000000E+00 -0.00000000000E+00 -0.45230289363E+02  0.45230289363E+02  0.00000000000E+00 0. -1.
          6    2    1    2  501    0 -0.50988923688E+02  0.80835408936E+02  0.28655170982E+03  0.34719433313E+03  0.17116596880E+03 0.  0.
         24    2    3    3    0    0 -0.29576743338E+02  0.97550022877E+02  0.29199424598E+03  0.31909502733E+03  0.78550659266E+02 0.  0.
         -6    2    1    2    0  502  0.50988923688E+02 -0.80835408936E+02  0.65571765444E+03  0.68553560986E+03  0.17566785810E+03 0.  0.
        -24    2    5    5    0    0  0.62385018177E+02 -0.33505736172E+02  0.19514757840E+03  0.22237596801E+03  0.79711786739E+02 0.  0.
          5    1    3    3  501    0 -0.21412180350E+02 -0.16714613941E+02 -0.54425361563E+01  0.28099305799E+02  0.47000000000E+01 0. -1.
        -13    1    4    4    0    0  0.23859927554E+02  0.11517559738E+02  0.46280248738E+02  0.53327401479E+02  0.00000000000E+00 0.  1.
         14    1    4    4    0    0 -0.53436670892E+02  0.86032463139E+02  0.24571399724E+03  0.26576762585E+03  0.00000000000E+00 0. -1.
         -5    1    5    5    0  502 -0.11396094489E+02 -0.47329672764E+02  0.46057007604E+03  0.46315964185E+03  0.47000000000E+01 0.  1.
         13    1    6    6    0    0  0.33076987249E+02  0.24580023343E+02  0.67017396735E+02  0.78673986159E+02  0.00000000000E+00 0. -1.
        -14    1    6    6    0    0  0.29308030928E+02 -0.58085759515E+02  0.12813018166E+03  0.14370198185E+03  0.00000000000E+00 0.  1.
</event>
<event>
12    1  0.8344842E-002  0.1941984E+03  0.7818608E-02  0.1155313E+00
         21   -1    0    0  503  502  0.00000000000E+00  0.00000000000E+00  0.18447298612E+03  0.18447298612E+03  0.00000000000E+00 0.  1.
         21   -1    0    0  501  503 -0.00000000000E+00 -0.00000000000E+00 -0.22000685035E+03  0.22000685035E+03  0.00000000000E+00 0.  1.
          6    2    1    2  501    0  0.25691702268E+02  0.80894572435E+02 -0.76063013250E+02  0.20609728656E+03  0.17171637700E+03 0.  0.
         24    2    3    3    0    0  0.73160594741E+02  0.74967470446E+02 -0.86219552787E+02  0.15696815482E+03  0.78946792817E+02 0.  0.
         -6    2    1    2    0  502 -0.25691702268E+02 -0.80894572435E+02  0.40529149021E+02  0.19838254991E+03  0.17466833936E+03 0.  0.
        -24    2    5    5    0    0 -0.22105426725E+02 -0.77019465196E+02 -0.37493786794E+02  0.12004005607E+03  0.81136817185E+02 0.  0.
          5    1    3    3  501    0 -0.47468892474E+02  0.59271019892E+01  0.10156539537E+02  0.49129131745E+02  0.47000000000E+01 0. -1.
        -13    1    4    4    0    0  0.39966974016E+02  0.99083124610E+01  0.34454392555E+01  0.41320754101E+02  0.00000000000E+00 0.  1.
         14    1    4    4    0    0  0.33193620725E+02  0.65059157985E+02 -0.89664992043E+02  0.11564740072E+03  0.00000000000E+00 0. -1.
         -5    1    5    5    0  502 -0.35862755423E+01 -0.38751072396E+01  0.78022935815E+02  0.78342493843E+02  0.47000000000E+01 0.  1.
         11    1    6    6    0    0 -0.22018294969E+02  0.94154750234E+01 -0.21408006613E+02  0.32121009175E+02  0.00000000000E+00 0. -1.
        -12    1    6    6    0    0 -0.87131756401E-01 -0.86434940219E+02 -0.16085780181E+02  0.87919046893E+02  0.00000000000E+00 0.  1.
</event>
<event>
12    1  0.8344842E-002  0.1793954E+03  0.7818608E-02  0.1169143E+00
         21   -1    0    0  503  502  0.00000000000E+00  0.00000000000E+00  0.30327287283E+02  0.30327287283E+02  0.00000000000E+00 0. -1.
         21   -1    0    0  501  503 -0.00000000000E+00 -0.00000000000E+00 -0.10452436684E+04  0.10452436684E+04  0.00000000000E+00 0. -1.
          6    2    1    2  501    0  0.45338517284E+02 -0.21619006239E+02 -0.47866506503E+03  0.51010816673E+03  0.16901814904E+03 0.  0.
         24    2    3    3    0    0 -0.37541333759E+02 -0.33627104192E+02 -0.22709521337E+03  0.24492380749E+03  0.76650516373E+02 0.  0.
         -6    2    1    2    0  502 -0.45338517284E+02  0.21619006239E+02 -0.53625131609E+03  0.56546278895E+03  0.17222000204E+03 0.  0.
        -24    2    5    5    0    0  0.17658703811E+02 -0.23275749797E+02 -0.39639077609E+03  0.40556516660E+03  0.80646553813E+02 0.  0.
          5    1    3    3  501    0  0.82879851043E+02  0.12008097953E+02 -0.25156985165E+03  0.26518435924E+03  0.47000000000E+01 0. -1.
        -13    1    4    4    0    0 -0.25561595558E+02  0.11774324070E+02 -0.25649107188E+02  0.38077638770E+02  0.00000000000E+00 0.  1.
         14    1    4    4    0    0 -0.11979738201E+02 -0.45401428262E+02 -0.20144610618E+03  0.20684616872E+03  0.00000000000E+00 0. -1.
         -5    1    5    5    0  502 -0.62997221095E+02  0.44894756036E+02 -0.13986054000E+03  0.15989762236E+03  0.47000000000E+01 0.  1.
         11    1    6    6    0    0 -0.30629884790E+02  0.27984597368E+01 -0.13145187874E+03  0.13500228755E+03  0.00000000000E+00 0. -1.
        -12    1    6    6    0    0  0.48288588601E+02 -0.26074209533E+02 -0.26493889734E+03  0.27056287905E+03  0.00000000000E+00 0.  1.
</event>
<event>
12    1  0.8344842E-002  0.1735651E+03  0.7818608E-02  0.1174272E+00
         21   -1    0    0  501  502  0.00000000000E+00  0.00000000000E+00  0.68341159280E+03  0.68341159280E+03  0.00000000000E+00 0. -1.
         21   -1    0    0  502  503 -0.00000000000E+00 -0.00000000000E+00 -0.96644653065E+02  0.96644653065E+02  0.00000000000E+00 0. -1.
         -6    2    1    2    0  503 -0.11433325526E+02 -0.21819362017E+02  0.56291298190E+01  0.17365632990E+03  0.17180811483E+03 0.  0.
        -24    2    3    3    0    0 -0.12184095707E+02 -0.61922174327E+02  0.49990284475E+02  0.11366632029E+03  0.80238369648E+02 0.  0.
          6    2    1    2  501    0  0.11433325526E+02  0.21819362017E+02  0.58113780992E+03  0.60639991597E+03  0.17144357228E+03 0.  0.
         24    2    5    5    0    0 -0.25035367224E+02  0.73823569313E+02  0.34712577119E+03  0.36387542772E+03  0.76369737985E+02 0.  0.
          5    1    5    5  501    0  0.36468692750E+02 -0.52004207296E+02  0.23401203873E+03  0.24252448824E+03  0.47000000000E+01 0. -1.
        -11    1    6    6    0    0 -0.90269764064E+01  0.41165681564E+02  0.53985338707E+02  0.68487345086E+02  0.00000000000E+00 0.  1.
         12    1    6    6    0    0 -0.16008390817E+02  0.32657887748E+02  0.29314043248E+03  0.29538808264E+03  0.00000000000E+00 0. -1.
         -5    1    3    3    0  503  0.75077018075E+00  0.40102812311E+02 -0.44361154656E+02  0.59990009614E+02  0.47000000000E+01 0.  1.
         13    1    4    4    0    0 -0.24545701053E+02 -0.71586685859E+02  0.17632787042E+02  0.77704956157E+02  0.00000000000E+00 0. -1.
        -14    1    4    4    0    0  0.12361605346E+02  0.96645115318E+01  0.32357497433E+02  0.35961364129E+02  0.00000000000E+00 0.  1.
</event>
<event>
12    1  0.8344842E-002  0.3266196E+03  0.7818608E-02  0.1072886E+00
         21   -1    0    0  501  502  0.00000000000E+00  0.00000000000E+00  0.16546461472E+03  0.16546461472E+03  0.00000000000E+00 0. -1.
         21   -1    0    0  502  503 -0.00000000000E+00 -0.00000000000E+00 -0.67270146066E+03  0.67270146066E+03  0.00000000000E+00 0.  1.
         -6    2    1    2    0  503  0.27405936705E+03 -0.56434614831E+02 -0.16107260105E+03  0.36223537949E+03  0.16424580642E+03 0.  0.
        -24    2    3    3    0    0  0.19151811589E+03 -0.72315738974E+02 -0.55428752669E+02  0.22715029168E+03  0.81339741642E+02 0.  0.
          6    2    1    2  501    0 -0.27405936705E+03  0.56434614831E+02 -0.34616424489E+03  0.47593069590E+03  0.16848424391E+03 0.  0.
         24    2    5    5    0    0 -0.23581381792E+03  0.23651982748E+02 -0.19756106952E+03  0.31895166315E+03  0.80822114703E+02 0.  0.
          5    1    5    5  501    0 -0.38245549123E+02  0.32782632083E+02 -0.14860317537E+03  0.15697903275E+03  0.47000000000E+01 0. -1.
        -11    1    6    6    0    0 -0.77512549964E+02 -0.21849374622E+02 -0.96576797558E+02  0.12574843299E+03  0.00000000000E+00 0.  1.
         12    1    6    6    0    0 -0.15830126796E+03  0.45501357370E+02 -0.10098427196E+03  0.19320323016E+03  0.00000000000E+00 0. -1.
         -5    1    3    3    0  503  0.82541251157E+02  0.15881124144E+02 -0.10564384838E+03  0.13508508781E+03  0.47000000000E+01 0.  1.
         11    1    4    4    0    0  0.45353905988E+01 -0.26426673471E+02 -0.13856358309E+02  0.30181741239E+02  0.00000000000E+00 0. -1.
        -12    1    4    4    0    0  0.18698272529E+03 -0.45889065504E+02 -0.41572394360E+02  0.19696855044E+03  0.00000000000E+00 0.  1.
</event>
<event>
12    1  0.8344842E-002  0.2782179E+03  0.7818608E-02  0.1096704E+00
         21   -1    0    0  501  502  0.00000000000E+00  0.00000000000E+00  0.22038838843E+03  0.22038838843E+03  0.00000000000E+00 0. -1.
         21   -1    0    0  502  503 -0.00000000000E+00 -0.00000000000E+00 -0.86254210941E+03  0.86254210941E+03  0.00000000000E+00 0.  1.
         -6    2    1    2    0  503 -0.20073386331E+03 -0.85198590749E+02 -0.73804798122E+03  0.78865020085E+03  0.17234103681E+03 0.  0.
        -24    2    3    3    0    0 -0.13844340227E+03  0.88787346460E+01 -0.33611556905E+03  0.37115481328E+03  0.74409758093E+02 0.  0.
          6    2    1    2  501    0  0.20073386331E+03  0.85198590749E+02  0.95894260244E+02  0.29428029699E+03  0.17277818236E+03 0.  0.
         24    2    5    5    0    0  0.45425090695E+02  0.71729194033E+02  0.15492516441E+02  0.11881300685E+03  0.81657800546E+02 0.  0.
          5    1    5    5  501    0  0.15530877262E+03  0.13469396716E+02  0.80401743803E+02  0.17546729013E+03  0.47000000000E+01 0. -1.
        -13    1    6    6    0    0 -0.20194104612E+02  0.26135240180E+01 -0.57734601805E+01  0.21165188668E+02  0.00000000000E+00 0.  1.
         14    1    6    6    0    0  0.65619195307E+02  0.69115670015E+02  0.21265976622E+02  0.97647818184E+02  0.00000000000E+00 0. -1.
         -5    1    3    3    0  503 -0.62290461043E+02 -0.94077325395E+02 -0.40193241217E+03  0.41749538757E+03  0.47000000000E+01 0.  1.
         13    1    4    4    0    0 -0.23310388616E+02 -0.24825047390E+01 -0.15136710298E+03  0.15317159303E+03  0.00000000000E+00 0. -1.
        -14    1    4    4    0    0 -0.11513301366E+03  0.11361239385E+02 -0.18474846608E+03  0.21798322025E+03  0.00000000000E+00 0.  1.
</event>
<event>
12    1  0.8344842E-002  0.2175220E+03  0.7818608E-02  0.1136550E+00
         21   -1    0    0  501  502  0.00000000000E+00  0.00000000000E+00  0.52860506596E+03  0.52860506596E+03  0.00000000000E+00 0. -1.
         21   -1    0    0  502  503 -0.00000000000E+00 -0.00000000000E+00 -0.88248910264E+02  0.88248910264E+02  0.00000000000E+00 0.  1.
         -6    2    1    2    0  503  0.11629087667E+02  0.12634994823E+03  0.19995488527E+03  0.29546195738E+03  0.17668125826E+03 0.  0.
        -24    2    3    3    0    0 -0.93854213243E+01  0.15606593156E+03  0.12202212944E+03  0.20932106300E+03  0.66942110933E+02 0.  0.
          6    2    1    2  501    0 -0.11629087667E+02 -0.12634994823E+03  0.24040127043E+03  0.32139201885E+03  0.17146578042E+03 0.  0.
         24    2    5    5    0    0 -0.50947704397E+02 -0.34598030080E+02  0.42070594931E+02  0.99307541786E+02  0.65569509904E+02 0.  0.
          5    1    5    5  501    0  0.39318616729E+02 -0.91751918153E+02  0.19833067550E+03  0.22208447706E+03  0.47000000000E+01 0. -1.
        -13    1    6    6    0    0 -0.57077977683E+01  0.18682745683E+02  0.13763352456E+02  0.23896732255E+02  0.00000000000E+00 0.  1.
         14    1    6    6    0    0 -0.45239906628E+02 -0.53280775763E+02  0.28307242475E+02  0.75410809532E+02  0.00000000000E+00 0. -1.
         -5    1    3    3    0  503  0.21014508992E+02 -0.29715983327E+02  0.77932755834E+02  0.86140894383E+02  0.47000000000E+01 0.  1.
         13    1    4    4    0    0 -0.44033754091E+01  0.62116675890E+02  0.90980260333E+02  0.11025098144E+03  0.00000000000E+00 0. -1.
        -14    1    4    4    0    0 -0.49820459153E+01  0.93949255670E+02  0.31041869102E+02  0.99070081557E+02  0.00000000000E+00 0.  1.
</event>
<event>
12    1  0.8344842E-002  0.1912628E+03  0.7818608E-02  0.1160990E+00
         21   -1    0    0  501  502  0.00000000000E+00  0.00000000000E+00  0.18598636505E+03  0.18598636505E+03  0.00000000000E+00 0. -1.
         21   -1    0    0  502  503 -0.00000000000E+00 -0.00000000000E+00 -0.14753679703E+04  0.14753679703E+04  0.00000000000E+00 0. -1.
         -6    2    1    2    0  503  0.35258147904E+02 -0.26507791291E+01 -0.14260582855E+04  0.14388271997E+04  0.18796625511E+03 0.  0.
        -24    2    3    3    0    0  0.71235196469E+02 -0.35478029650E+02 -0.12775929350E+04  0.12825069300E+04  0.79039066677E+02 0.  0.
          6    2    1    2  501    0 -0.35258147904E+02  0.26507791291E+01  0.13667668032E+03  0.22252713567E+03  0.17201060299E+03 0.  0.
         24    2    5    5    0    0  0.44559919949E+02  0.97990350049E+00  0.74495456483E+02  0.12122407362E+03  0.84611797717E+02 0.  0.
          5    1    5    5  501    0 -0.79818067853E+02  0.16708756286E+01  0.62181223837E+02  0.10130306204E+03  0.47000000000E+01 0. -1.
        -11    1    6    6    0    0  0.11061661944E+02  0.41516441792E+02  0.35997321724E+02  0.56051605466E+02  0.00000000000E+00 0.  1.
         12    1    6    6    0    0  0.33498258005E+02 -0.40536538291E+02  0.38498134759E+02  0.65172468159E+02  0.00000000000E+00 0. -1.
         -5    1    3    3    0  503 -0.35977048565E+02  0.32827250521E+02 -0.14846535056E+03  0.15632026969E+03  0.47000000000E+01 0.  1.
         11    1    4    4    0    0  0.40141310563E+02 -0.29150853171E+02 -0.11485172816E+04  0.11495882060E+04  0.00000000000E+00 0. -1.
        -12    1    4    4    0    0  0.31093885906E+02 -0.63271764794E+01 -0.12907565335E+03  0.13291872400E+03  0.00000000000E+00 0.  1.
</event>
<event>
12    1  0.8344842E-002  0.2189405E+03  0.7818608E-02  0.1134712E+00
         21   -1    0    0  501  502  0.00000000000E+00  0.00000000000E+00  0.44226548684E+02  0.44226548684E+02  0.00000000000E+00 0. -1.
         21   -1    0    0  502  503 -0.00000000000E+00 -0.00000000000E+00 -0.15800909303E+04  0.15800909303E+04  0.00000000000E+00 0. -1.
         -6    2    1    2    0  503 -0.42983375536E+02  0.12812366481E+03 -0.12237450054E+04  0.12431760931E+04  0.17225480058E+03 0.  0.
        -24    2    3    3    0    0 -0.93053666859E+02  0.11703271537E+03 -0.94605067599E+03  0.96074685633E+03  0.75279472807E+02 0.  0.
          6    2    1    2  501    0  0.42983375536E+02 -0.12812366481E+03 -0.31211937628E+03  0.38114138588E+03  0.17200874084E+03 0.  0.
         24    2    5    5    0    0  0.12204542262E+02 -0.13267072876E+03 -0.14823932948E+03  0.21426786460E+03  0.78646969883E+02 0.  0.
          5    1    5    5  501    0  0.30778833274E+02  0.45470639466E+01 -0.16388004679E+03  0.16687352128E+03  0.47000000000E+01 0. -1.
        -13    1    6    6    0    0 -0.17706337583E+02 -0.25851509190E+02 -0.75163135609E+02  0.81432867275E+02  0.00000000000E+00 0.  1.
         14    1    6    6    0    0  0.29910879845E+02 -0.10681921957E+03 -0.73076193876E+02  0.13283499732E+03  0.00000000000E+00 0. -1.
         -5    1    3    3    0  503  0.50070291323E+02  0.11090949438E+02 -0.27769432937E+03  0.28242923680E+03  0.47000000000E+01 0.  1.
         13    1    4    4    0    0 -0.70994038648E+02  0.43744117213E+02 -0.34970499463E+03  0.35950978371E+03  0.00000000000E+00 0. -1.
        -14    1    4    4    0    0 -0.22059628211E+02  0.73288598160E+02 -0.59634568137E+03  0.60123707263E+03  0.00000000000E+00 0.  1.
</event>
<event>
12    1  0.8344842E-002  0.2071709E+03  0.7818608E-02  0.1143916E+00
         21   -1    0    0  503  502  0.00000000000E+00  0.00000000000E+00  0.15378639603E+04  0.15378639603E+04  0.00000000000E+00 0. -1.
         21   -1    0    0  501  503 -0.00000000000E+00 -0.00000000000E+00 -0.28556979760E+02  0.28556979760E+02  0.00000000000E+00 0. -1.
          6    2    1    2  501    0 -0.10979426882E+03  0.32289041847E+02  0.63211027398E+03  0.66519410622E+03  0.17269173921E+03 0.  0.
         24    2    3    3    0    0  0.96431030332E+01 -0.44128988569E+01  0.29592935405E+03  0.30651316280E+03  0.79143371615E+02 0.  0.
         -6    2    1    2    0  502  0.10979426882E+03 -0.32289041847E+02  0.87719670654E+03  0.90122683382E+03  0.17215800981E+03 0.  0.
        -24    2    5    5    0    0  0.11299496908E+03  0.31641115769E+02  0.58604084856E+03  0.60308067306E+03  0.80581628193E+02 0.  0.
          5    1    3    3  501    0 -0.11943737185E+03  0.36701940704E+02  0.33618091993E+03  0.35868094342E+03  0.47000000000E+01 0. -1.
        -13    1    4    4    0    0  0.24387521202E+02  0.22484546510E+02  0.24366576945E+03  0.24591322296E+03  0.00000000000E+00 0.  1.
         14    1    4    4    0    0 -0.14744418168E+02 -0.26897445367E+02  0.52263584599E+02  0.60599939848E+02  0.00000000000E+00 0. -1.
         -5    1    5    5    0  502 -0.32007002624E+01 -0.63930157615E+02  0.29115585799E+03  0.29814616076E+03  0.47000000000E+01 0.  1.
         11    1    6    6    0    0  0.48364294438E+02  0.48473662768E+02  0.39026113613E+03  0.39622286069E+03  0.00000000000E+00 0. -1.
        -12    1    6    6    0    0  0.64630674640E+02 -0.16832546999E+02  0.19577971242E+03  0.20685781237E+03  0.00000000000E+00 0.  1.
</event>
<event>
12    1  0.8344842E-002  0.2185605E+03  0.7818608E-02  0.1135082E+00
         21   -1    0    0  503  502  0.00000000000E+00  0.00000000000E+00  0.14072409310E+04  0.14072409310E+04  0.00000000000E+00 0.  1.
         21   -1    0    0  501  503 -0.00000000000E+00 -0.00000000000E+00 -0.36874787329E+02  0.36874787329E+02  0.00000000000E+00 0.  1.
          6    2    1    2  501    0 -0.12922171099E+03 -0.39968786458E+02  0.47913324856E+03  0.52662829570E+03  0.17167684022E+03 0.  0.
         24    2    3    3    0    0 -0.14379682050E+03 -0.40963263346E+01  0.44667416009E+03  0.47588433412E+03  0.79080899655E+02 0.  0.
         -6    2    1    2    0  502  0.12922171099E+03  0.39968786458E+02  0.89123289513E+03  0.91748742266E+03  0.17085474206E+03 0.  0.
        -24    2    5    5    0    0  0.12612761559E+02 -0.24907246221E+02  0.37621947359E+03  0.38544657735E+03  0.79047574380E+02 0.  0.
          5    1    3    3  501    0  0.14575109507E+02 -0.35872460123E+02  0.32459088473E+02  0.50743961581E+02  0.47000000000E+01 0. -1.
        -13    1    4    4    0    0 -0.60491205546E+02  0.27565946014E+02  0.11901734806E+03  0.13632386610E+03  0.00000000000E+00 0.  1.
         14    1    4    4    0    0 -0.83305614953E+02 -0.31662272348E+02  0.32765681203E+03  0.33956046802E+03  0.00000000000E+00 0. -1.
         -5    1    5    5    0  502  0.11660894943E+03  0.64876032679E+02  0.51501342154E+03  0.53204084531E+03  0.47000000000E+01 0.  1.
         13    1    6    6    0    0  0.10627989937E+02 -0.20035193224E+01  0.26037237917E+01  0.11124191538E+02  0.00000000000E+00 0. -1.
        -14    1    6    6    0    0  0.19847716222E+01 -0.22903726898E+02  0.37361574980E+03  0.37432238581E+03  0.00000000000E+00 0.  1.
</event>
<event>
12    1  0.8344842E-002  0.2220379E+03  0.7818608E-02  0.1132396E+00
         21   -1    0    0  501  502  0.00000000000E+00  0.00000000000E+00  0.33752047230E+02  0.33752047230E+02  0.00000000000E+00 0.  1.
         21   -1    0    0  502  503 -0.00000000000E+00 -0.00000000000E+00 -0.26381807218E+04  0.26381807218E+04  0.00000000000E+00 0. -1.
         -6    2    1    2    0  503  0.13136244507E+03 -0.48599110605E+02 -0.21952714535E+04  0.22064717539E+04  0.17228720388E+03 0.  0.
        -24    2    3    3    0    0  0.91129372312E+02  0.34739039898E+02 -0.14116355254E+04  0.14173765092E+04  0.82036264528E+02 0.  0.
          6    2    1    2  501    0 -0.13136244507E+03  0.48599110605E+02 -0.40915722103E+03  0.46546101510E+03  0.17212309414E+03 0.  0.
         24    2    5    5    0    0 -0.16134757324E+03  0.25990784687E+02 -0.35866066325E+03  0.40235604968E+03  0.80897213038E+02 0.  0.
          5    1    5    5  501    0  0.29985128177E+02  0.22608325918E+02 -0.50496557781E+02  0.63104965417E+02  0.47000000000E+01 0. -1.
        -11    1    6    6    0    0 -0.12100035274E+03  0.55191661632E+01 -0.17251737786E+03  0.21079324520E+03  0.00000000000E+00 0.  1.
         12    1    6    6    0    0 -0.40347220504E+02  0.20471618524E+02 -0.18614328539E+03  0.19156280449E+03  0.00000000000E+00 0. -1.
         -5    1    3    3    0  503  0.40233072754E+02 -0.83338150503E+02 -0.78363592808E+03  0.78909524472E+03  0.47000000000E+01 0.  1.
         11    1    4    4    0    0  0.86526803087E+02  0.20195159022E+02 -0.13724990069E+04  0.13753720428E+04  0.00000000000E+00 0. -1.
        -12    1    4    4    0    0  0.46025692245E+01  0.14543880876E+02 -0.39136518498E+02  0.42004466364E+02  0.00000000000E+00 0.  1.
</event>
<event>
12    1  0.8344842E-002  0.3170559E+03  0.7818608E-02  0.1077035E+00
         21   -1    0    0  503  502  0.00000000000E+00  0.00000000000E+00  0.16629054386E+03  0.16629054386E+03  0.00000000000E+00 0.  1.
         21   -1    0    0  501  503 -0.00000000000E+00 -0.00000000000E+00 -0.23246975272E+04  0.23246975272E+04  0.00000000000E+00 0. -1.
          6    2    1    2  501    0 -0.92112042437E+02 -0.25010936562E+03 -0.21507913557E+04  0.21740349375E+04  0.17171234793E+03 0.  0.
         24    2    3    3    0    0 -0.83681310807E+02 -0.14275560793E+03 -0.17287505312E+04  0.17384474559E+04  0.78990078690E+02 0.  0.
         -6    2    1    2    0  502  0.92112042437E+02  0.25010936562E+03 -0.76156276085E+01  0.31695313357E+03  0.17135334244E+03 0.  0.
        -24    2    5    5    0    0  0.32435566920E+02  0.38100433201E+02  0.78613998583E+01  0.96112246201E+02  0.81682637387E+02 0.  0.
          5    1    3    3  501    0 -0.84307316300E+01 -0.10735375769E+03 -0.42204082453E+03  0.43558748156E+03  0.47000000000E+01 0. -1.
        -11    1    4    4    0    0 -0.54881700576E+02 -0.36202678763E+02 -0.42776094309E+03  0.43278407947E+03  0.00000000000E+00 0.  1.
         12    1    4    4    0    0 -0.28799610230E+02 -0.10655292917E+03 -0.13009895881E+04  0.13056633765E+04  0.00000000000E+00 0. -1.
         -5    1    5    5    0  502  0.59676475516E+02  0.21200893242E+03 -0.15477027467E+02  0.22084088737E+03  0.47000000000E+01 0.  1.
         11    1    6    6    0    0  0.71269895584E+01  0.15768078255E+02  0.43627769239E+02  0.46934086982E+02  0.00000000000E+00 0. -1.
        -12    1    6    6    0    0  0.25308577362E+02  0.22332354946E+02 -0.35766369381E+02  0.49178159219E+02  0.00000000000E+00 0.  1.
</event>
<event>
12    1  0.8344842E-002  0.2218188E+03  0.7818608E-02  0.1132627E+00
         21   -1    0    0  501  502  0.00000000000E+00  0.00000000000E+00  0.12705514263E+04  0.12705514263E+04  0.00000000000E+00 0.  1.
         21   -1    0    0  502  503 -0.00000000000E+00 -0.00000000000E+00 -0.41942162783E+02  0.41942162783E+02  0.00000000000E+00 0.  1.
         -6    2    1    2    0  503 -0.13099377112E+03 -0.44837261037E+02  0.42948351106E+03  0.48315316609E+03  0.17265905008E+03 0.  0.
        -24    2    3    3    0    0 -0.40577906998E+01 -0.90376379385E+01  0.23372668123E+03  0.24706593101E+03  0.79468661643E+02 0.  0.
          6    2    1    2  501    0  0.13099377112E+03  0.44837261037E+02  0.79912575244E+03  0.82934042298E+03  0.17330268587E+03 0.  0.
         24    2    5    5    0    0  0.13567394182E+03 -0.63681850197E+01  0.69439832809E+03  0.71257645116E+03  0.84428599592E+02 0.  0.
          5    1    5    5  501    0 -0.46801707084E+01  0.51205446057E+02  0.10472742435E+03  0.11676397182E+03  0.47000000000E+01 0. -1.
        -11    1    6    6    0    0  0.11010841807E+02  0.76242043235E+01  0.26217388981E+03  0.26251574358E+03  0.00000000000E+00 0.  1.
         12    1    6    6    0    0  0.12466310002E+03 -0.13992389343E+02  0.43222443828E+03  0.45006070758E+03  0.00000000000E+00 0. -1.
         -5    1    3    3    0  503 -0.12693598042E+03 -0.35799623098E+02  0.19575682983E+03  0.23608723507E+03  0.47000000000E+01 0.  1.
         11    1    4    4    0    0 -0.41694131571E+02 -0.60321354729E+01  0.13192661657E+03  0.13848978094E+03  0.00000000000E+00 0. -1.
        -12    1    4    4    0    0  0.37636340871E+02 -0.30055024656E+01  0.10180006466E+03  0.10857615007E+03  0.00000000000E+00 0.  1.
</event>
<event>
12    1  0.8344842E-002  0.1871577E+03  0.7818608E-02  0.1162082E+00
         21   -1    0    0  503  502  0.00000000000E+00  0.00000000000E+00  0.17445198035E+03  0.17445198035E+03  0.00000000000E+00 0. -1.
         21   -1    0    0  501  503 -0.00000000000E+00 -0.00000000000E+00 -0.33029992305E+03  0.33029992305E+03  0.00000000000E+00 0. -1.
          6    2    1    2  501    0 -0.52052206324E+02 -0.33929087846E+02 -0.23825163070E+03  0.30025649839E+03  0.17184152616E+03 0.  0.
         24    2    3    3    0    0 -0.96068389279E+02 -0.77787843024E+00 -0.14042133212E+03  0.18787640955E+03  0.79684717725E+02 0.  0.
         -6    2    1    2    0  502  0.52052206324E+02  0.33929087846E+02  0.82403687988E+02  0.20449540501E+03  0.17654287777E+03 0.  0.
        -24    2    5    5    0    0  0.68201422011E+02  0.81398501594E+02  0.38648000785E+02  0.13778114438E+03  0.78821480293E+02 0.  0.
          5    1    3    3  501    0  0.44016182955E+02 -0.33151209416E+02 -0.97830298581E+02  0.11238008884E+03  0.47000000000E+01 0. -1.
        -13    1    4    4    0    0 -0.40308404929E+02  0.44869137536E+01 -0.44243798575E+01  0.40797978382E+02  0.00000000000E+00 0.  1.
         14    1    4    4    0    0 -0.55759984350E+02 -0.52647921838E+01 -0.13599695226E+03  0.14707843117E+03  0.00000000000E+00 0. -1.
         -5    1    5    5    0  502 -0.16149215686E+02 -0.47469413748E+02  0.43755687203E+02  0.66714260631E+02  0.47000000000E+01 0.  1.
         13    1    6    6    0    0  0.73741452734E+02  0.57131062782E+02  0.17841120145E+01  0.93300285325E+02  0.00000000000E+00 0. -1.
        -14    1    6    6    0    0 -0.55400307235E+01  0.24267438811E+02  0.36863888770E+02  0.44480859054E+02  0.00000000000E+00 0.  1.
</event>
<event>
12    1  0.8344842E-002  0.2281540E+03  0.7818608E-02  0.1128278E+00
         21   -1    0    0  501  502  0.00000000000E+00  0.00000000000E+00  0.96746827405E+03  0.96746827405E+03  0.00000000000E+00 0.  1.
         21   -1    0    0  502  503 -0.00000000000E+00 -0.00000000000E+00 -0.77924942888E+02  0.77924942888E+02  0.00000000000E+00 0.  1.
         -6    2    1    2    0  503  0.13601549636E+03  0.61070875188E+02  0.15009451395E+03  0.27154646881E+03  0.17023294205E+03 0.  0.
        -24    2    3    3    0    0  0.79311981140E+02  0.18129963711E+02  0.16243691625E+03  0.19920259961E+03  0.81711920764E+02 0.  0.
          6    2    1    2  501    0 -0.13601549636E+03 -0.61070875188E+02  0.73944881722E+03  0.77384674813E+03  0.17269733427E+03 0.  0.
         24    2    5    5    0    0 -0.67998266153E+02  0.30561424272E+02  0.29161236845E+03  0.31167535487E+03  0.80907283631E+02 0.  0.
          5    1    5    5  501    0 -0.68017230205E+02 -0.91632299460E+02  0.44783644877E+03  0.46217139326E+03  0.47000000000E+01 0. -1.
        -11    1    6    6    0    0 -0.74580852760E+02  0.41360088523E+01  0.15117296524E+03  0.16861991457E+03  0.00000000000E+00 0.  1.
         12    1    6    6    0    0  0.65825866073E+01  0.26425415420E+02  0.14043940321E+03  0.14305544030E+03  0.00000000000E+00 0. -1.
         -5    1    3    3    0  503  0.56703515219E+02  0.42940911477E+02 -0.12342402296E+02  0.72343869201E+02  0.47000000000E+01 0.  1.
         11    1    4    4    0    0 -0.12661606281E+02 -0.10496419014E+02  0.41173542877E+02  0.44336798698E+02  0.00000000000E+00 0. -1.
        -12    1    4    4    0    0  0.91973587421E+02  0.28626382725E+02  0.12126337337E+03  0.15486580091E+03  0.00000000000E+00 0.  1.
</event>
<event>
12    1  0.8344842E-002  0.2166029E+03  0.7818608E-02  0.1136815E+00
         21   -1    0    0  503  502  0.00000000000E+00  0.00000000000E+00  0.53750562389E+03  0.53750562389E+03  0.00000000000E+00 0.  1.
         21   -1    0    0  501  503 -0.00000000000E+00 -0.00000000000E+00 -0.11475697420E+03  0.11475697420E+03  0.00000000000E+00 0. -1.
          6    2    1    2  501    0  0.12800056308E+03  0.14087004926E+02  0.37392985476E+03  0.43213463930E+03  0.17416722524E+03 0.  0.
         24    2    3    3    0    0  0.13847992618E+03 -0.36981480924E+02  0.27039349866E+03  0.31611880274E+03  0.79209427741E+02 0.  0.
         -6    2    1    2    0  502 -0.12800056308E+03 -0.14087004926E+02  0.48818794941E+02  0.22012795879E+03  0.17172785343E+03 0.  0.
        -24    2    5    5    0    0 -0.54894937734E+02 -0.31628350042E+02 -0.33427507219E+02  0.10859914877E+03  0.81624568355E+02 0.  0.
          5    1    3    3  501    0 -0.10479363102E+02  0.51068485850E+02  0.10353635610E+03  0.11601583656E+03  0.47000000000E+01 0. -1.
        -11    1    4    4    0    0  0.18986709776E+02 -0.29085646457E+02  0.11380158576E+03  0.11898433048E+03  0.00000000000E+00 0.  1.
         12    1    4    4    0    0  0.11949321641E+03 -0.78958344668E+01  0.15659191290E+03  0.19713447226E+03  0.00000000000E+00 0. -1.
         -5    1    5    5    0  502 -0.73105625346E+02  0.17541345116E+02  0.82246302160E+02  0.11152881002E+03  0.47000000000E+01 0.  1.
         13    1    6    6    0    0 -0.39979796418E+02  0.22330628627E+02 -0.57641186891E+01  0.46154806475E+02  0.00000000000E+00 0. -1.
        -14    1    6    6    0    0 -0.14915141316E+02 -0.53958978669E+02 -0.27663388530E+02  0.62444342293E+02  0.00000000000E+00 0.  1.
</event>
<event>
12    1  0.8344842E-002  0.2239442E+03  0.7818608E-02  0.1130983E+00
         21   -1    0    0  501  502  0.00000000000E+00  0.00000000000E+00  0.16365826720E+03  0.16365826720E+03  0.00000000000E+00 0. -1.
         21   -1    0    0  502  503 -0.00000000000E+00 -0.00000000000E+00 -0.55152333556E+03  0.55152333556E+03  0.00000000000E+00 0. -1.
         -6    2    1    2    0  503 -0.90073228277E+00 -0.14361866877E+03 -0.43234483174E+03  0.48690146478E+03  0.17182505503E+03 0.  0.
        -24    2    3    3    0    0  0.64976263739E+02 -0.10910084828E+03 -0.30387572596E+03  0.33838325150E+03  0.77703655783E+02 0.  0.
          6    2    1    2  501    0  0.90073228277E+00  0.14361866877E+03  0.44479763387E+02  0.22828013798E+03  0.17177380099E+03 0.  0.
         24    2    5    5    0    0 -0.23478239112E+02  0.89075020221E+02 -0.32473410152E+02  0.13074437653E+03  0.86913650760E+02 0.  0.
          5    1    5    5  501    0  0.24378971395E+02  0.54543648548E+02  0.76953173540E+02  0.97535761447E+02  0.47000000000E+01 0. -1.
        -11    1    6    6    0    0 -0.14152982949E+02 -0.10193558467E+02  0.12405908566E+02  0.21403787700E+02  0.00000000000E+00 0.  1.
         12    1    6    6    0    0 -0.93252561627E+01  0.99268578688E+02 -0.44879318719E+02  0.10934058883E+03  0.00000000000E+00 0. -1.
         -5    1    3    3    0  503 -0.65876996022E+02 -0.34517820487E+02 -0.12846910578E+03  0.14851821328E+03  0.47000000000E+01 0.  1.
         13    1    4    4    0    0  0.20555105748E+02 -0.99188669079E+02 -0.18206358831E+03  0.20834599741E+03  0.00000000000E+00 0. -1.
        -14    1    4    4    0    0  0.44421157991E+02 -0.99121792029E+01 -0.12181213765E+03  0.13003725409E+03  0.00000000000E+00 0.  1.
</event>
<event>
12    1  0.8344842E-002  0.2247626E+03  0.7818608E-02  0.1130425E+00
         21   -1    0    0  501  502  0.00000000000E+00  0.00000000000E+00  0.78270508204E+03  0.78270508204E+03  0.00000000000E+00 0.  1.
         21   -1    0    0  502  503 -0.00000000000E+00 -0.00000000000E+00 -0.67748688373E+02  0.67748688373E+02  0.00000000000E+00 0. -1.
         -6    2    1    2    0  503  0.14317208938E+03 -0.20438472603E+02  0.26381093927E+03  0.34641961452E+03  0.17173921888E+03 0.  0.
        -24    2    3    3    0    0  0.29500237858E+02 -0.59678099927E+02  0.13797211490E+03  0.17229742208E+03  0.78856562943E+02 0.  0.
          6    2    1    2  501    0 -0.14317208938E+03  0.20438472603E+02  0.45114545440E+03  0.50403415590E+03  0.17205298877E+03 0.  0.
         24    2    5    5    0    0 -0.12495391373E+03  0.60252428350E+02  0.42053199488E+03  0.45040275744E+03  0.82290032908E+02 0.  0.
          5    1    5    5  501    0 -0.18218175660E+02 -0.39813955747E+02  0.30613459519E+02  0.53631398456E+02  0.47000000000E+01 0. -1.
        -11    1    6    6    0    0 -0.84545868200E+02  0.72083234816E+02  0.35934519864E+03  0.37612892518E+03  0.00000000000E+00 0.  1.
         12    1    6    6    0    0 -0.40408045525E+02 -0.11830806466E+02  0.61186796242E+02  0.74273832264E+02  0.00000000000E+00 0. -1.
         -5    1    3    3    0  503  0.11367185153E+03  0.39239627324E+02  0.12583882437E+03  0.17412219244E+03  0.47000000000E+01 0.  1.
         11    1    4    4    0    0  0.42864003597E+02 -0.18840012552E+02  0.28791441722E+02  0.54965589179E+02  0.00000000000E+00 0. -1.
        -12    1    4    4    0    0 -0.13363765739E+02 -0.40838087375E+02  0.10918067318E+03  0.11733183290E+03  0.00000000000E+00 0.  1.
</event>
<event>
12    1  0.8344842E-002  0.1890250E+03  0.7818608E-02  0.1159574E+00
         21   -1    0    0  501  502  0.00000000000E+00  0.00000000000E+00  0.12889249637E+03  0.12889249637E+03  0.00000000000E+00 0. -1.
         21   -1    0    0  502  503 -0.00000000000E+00 -0.00000000000E+00 -0.27716532948E+03  0.27716532948E+03  0.00000000000E+00 0.  1.
         -6    2    1    2    0  503 -0.69514952660E+02  0.33404929464E+02 -0.88537846054E+02  0.20781877239E+03  0.17146858027E+03 0.  0.
        -24    2    3    3    0    0 -0.63653922138E+02 -0.77575012817E+01  0.97915841352E+01  0.10095687916E+03  0.77359005295E+02 0.  0.
          6    2    1    2  501    0  0.69514952660E+02 -0.33404929464E+02 -0.59734987054E+02  0.19823905346E+03  0.17257530438E+03 0.  0.
         24    2    5    5    0    0 -0.42966463870E+01  0.28670166005E+02 -0.53945880329E+02  0.10150708672E+03  0.80951164672E+02 0.  0.
          5    1    5    5  501    0  0.73811599047E+02 -0.62075095470E+02 -0.57891067247E+01  0.96731966733E+02  0.47000000000E+01 0. -1.
        -11    1    6    6    0    0 -0.31442790940E+02 -0.32989403976E+01 -0.50298169964E+02  0.59409073479E+02  0.00000000000E+00 0.  1.
         12    1    6    6    0    0  0.27146144553E+02  0.31969106403E+02 -0.36477103647E+01  0.42098013245E+02  0.00000000000E+00 0. -1.
         -5    1    3    3    0  503 -0.58610305212E+01  0.41162430746E+02 -0.98329430190E+02  0.10686189323E+03  0.47000000000E+01 0.  1.
         13    1    4    4    0    0 -0.19893818655E+02 -0.40237539896E+02 -0.29730600264E+01  0.44985138918E+02  0.00000000000E+00 0. -1.
        -14    1    4    4    0    0 -0.43760103484E+02  0.32480038614E+02  0.12764644162E+02  0.55971740243E+02  0.00000000000E+00 0.  1.
</event>
<event>
12    1  0.8344842E-002  0.1868017E+03  0.7818608E-02  0.1164388E+00
         21   -1    0    0  501  502  0.00000000000E+00  0.00000000000E+00  0.17759955823E+03  0.17759955823E+03  0.00000000000E+00 0. -1.
         21   -1    0    0  502  503 -0.00000000000E+00 -0.00000000000E+00 -0.33107952599E+03  0.33107952599E+03  0.00000000000E+00 0.  1.
         -6    2    1    2    0  503 -0.43830647274E+02 -0.60229421452E+02 -0.24798952232E+03  0.31047329878E+03  0.17130720132E+03 0.  0.
        -24    2    3    3    0    0 -0.64795864981E+02  0.39586838666E+01 -0.82681051596E+02  0.13184341966E+03  0.79576100176E+02 0.  0.
          6    2    1    2  501    0  0.43830647274E+02  0.60229421452E+02  0.94509554568E+02  0.19820578544E+03  0.15749529716E+03 0.  0.
         24    2    5    5    0    0  0.43193066471E+02 -0.94654345265E+01  0.12999429540E+02  0.90856961779E+02  0.78299213875E+02 0.  0.
          5    1    5    5  501    0  0.63758080342E+00  0.69694855978E+02  0.81510125028E+02  0.10734882366E+03  0.47000000000E+01 0. -1.
        -13    1    6    6    0    0 -0.82010032704E+01 -0.47355316598E+01 -0.25021104880E+02  0.26753269037E+02  0.00000000000E+00 0.  1.
         14    1    6    6    0    0  0.51394069741E+02 -0.47299028667E+01  0.38020534420E+02  0.64103692743E+02  0.00000000000E+00 0. -1.
         -5    1    3    3    0  503  0.20965217707E+02 -0.64188105318E+02 -0.16530847073E+03  0.17862987911E+03  0.47000000000E+01 0.  1.
         13    1    4    4    0    0 -0.44478569160E+02 -0.25261832928E+02 -0.11749256945E+02  0.52483791366E+02  0.00000000000E+00 0. -1.
        -14    1    4    4    0    0 -0.20317295821E+02  0.29220516795E+02 -0.70931794651E+02  0.79359628298E+02  0.00000000000E+00 0.  1.
</event>
<event>
12    1  0.8344842E-002  0.3101351E+03  0.7818608E-02  0.1080301E+00
         21   -1    0    0  503  502  0.00000000000E+00  0.00000000000E+00  0.20879418892E+03  0.20879418892E+03  0.00000000000E+00 0.  1.
         21   -1    0    0  501  503 -0.00000000000E+00 -0.00000000000E+00 -0.46780014440E+03  0.46780014440E+03  0.00000000000E+00 0. -1.
          6    2    1    2  501    0 -0.18001814090E+03  0.18526135124E+03 -0.17204604027E+03  0.35465983164E+03  0.17162592138E+03 0.  0.
         24    2    3    3    0    0 -0.22391431433E+02  0.47220880828E+02 -0.80148809839E+02  0.12581809163E+03  0.81701729942E+02 0.  0.
         -6    2    1    2    0  502  0.18001814090E+03 -0.18526135124E+03 -0.86959915206E+02  0.32193450167E+03  0.17132278657E+03 0.  0.
        -24    2    5    5    0    0  0.35498596886E+02 -0.22559633226E+02 -0.19897354237E+02  0.94168778328E+02  0.81870426126E+02 0.  0.
          5    1    3    3  501    0 -0.15762670947E+03  0.13804047041E+03 -0.91897230433E+02  0.22884174001E+03  0.47000000000E+01 0. -1.
        -11    1    4    4    0    0 -0.22740634654E+02 -0.17975959712E+02 -0.11619841731E+02  0.31229670410E+02  0.00000000000E+00 0.  1.
         12    1    4    4    0    0  0.34920322113E+00  0.65196840541E+02 -0.68528968109E+02  0.94588421223E+02  0.00000000000E+00 0. -1.
         -5    1    5    5    0  502  0.14451954402E+03 -0.16270171802E+03 -0.67062560968E+02  0.22776572335E+03  0.47000000000E+01 0.  1.
         13    1    6    6    0    0 -0.23455483027E+02 -0.85094558378E+00 -0.20766243466E+02  0.31338804382E+02  0.00000000000E+00 0. -1.
        -14    1    6    6    0    0  0.58954079913E+02 -0.21708687643E+02  0.86888922855E+00  0.62829973946E+02  0.00000000000E+00 0.  1.
</event>
<event>
12    1  0.8344842E-002  0.1787173E+03  0.7818608E-02  0.1169253E+00
         21   -1    0    0  501  502  0.00000000000E+00  0.00000000000E+00  0.34483930666E+02  0.34483930666E+02  0.00000000000E+00 0. -1.
         21   -1    0    0  502  503 -0.00000000000E+00 -0.00000000000E+00 -0.97137288744E+03  0.97137288744E+03  0.00000000000E+00 0. -1.
         -6    2    1    2    0  503 -0.18653575005E+02  0.41834044954E+02 -0.35394248519E+03  0.39613026332E+03  0.17188909074E+03 0.  0.
        -24    2    3    3    0    0 -0.54428305415E+02 -0.25258893203E+02 -0.22941607140E+03  0.25015008858E+03  0.79642205401E+02 0.  0.
          6    2    1    2  501    0  0.18653575005E+02 -0.41834044954E+02 -0.58294647158E+03  0.60972655478E+03  0.17274790796E+03 0.  0.
         24    2    5    5    0    0  0.37745785692E+02  0.97744769652E+01 -0.51323280154E+03  0.52078816131E+03  0.79322857027E+02 0.  0.
          5    1    5    5  501    0 -0.19092210687E+02 -0.51608521919E+02 -0.69713670040E+02  0.88938393476E+02  0.47000000000E+01 0. -1.
        -11    1    6    6    0    0  0.55849178756E+02  0.19270627353E+00 -0.22497747589E+03  0.23180602357E+03  0.00000000000E+00 0.  1.
         12    1    6    6    0    0 -0.18103393064E+02  0.95817706916E+01 -0.28825532564E+03  0.28898213774E+03  0.00000000000E+00 0. -1.
         -5    1    3    3    0  503  0.35774730410E+02  0.67092938157E+02 -0.12452641379E+03  0.14598017474E+03  0.47000000000E+01 0.  1.
         13    1    4    4    0    0 -0.25264356183E+02 -0.17397334875E+02 -0.15980847216E+02  0.34588183413E+02  0.00000000000E+00 0. -1.
        -14    1    4    4    0    0 -0.29163949232E+02 -0.78615583279E+01 -0.21343522419E+03  0.21556190516E+03  0.00000000000E+00 0.  1.
</event>
<event>
12    1  0.8344842E-002  0.3203313E+03  0.7818608E-02  0.1075618E+00
         21   -1    0    0  503  502  0.00000000000E+00  0.00000000000E+00  0.14537666839E+03  0.14537666839E+03  0.00000000000E+00 0. -1.
         21   -1    0    0  501  503 -0.00000000000E+00 -0.00000000000E+00 -0.71626021534E+03  0.71626021534E+03  0.00000000000E+00 0. -1.
          6    2    1    2  501    0  0.25182477927E+03  0.94456216412E+02 -0.34335466184E+03  0.46957910781E+03  0.17399545514E+03 0.  0.
         24    2    3    3    0    0  0.14157980919E+03  0.11124841931E+03 -0.15522826064E+03  0.25083367510E+03  0.80004165446E+02 0.  0.
         -6    2    1    2    0  502 -0.25182477927E+03 -0.94456216412E+02 -0.22752888510E+03  0.39205777592E+03  0.17205292741E+03 0.  0.
        -24    2    5    5    0    0 -0.21904683309E+03 -0.29562050271E+02 -0.21370699921E+03  0.31790400943E+03  0.80850774894E+02 0.  0.
          5    1    3    3  501    0  0.11024497008E+03 -0.16792202900E+02 -0.18812640119E+03  0.21874543271E+03  0.47000000000E+01 0. -1.
        -13    1    4    4    0    0  0.25291995923E+02  0.60587884946E+02 -0.79491885287E+02  0.10309964445E+03  0.00000000000E+00 0.  1.
         14    1    4    4    0    0  0.11628781327E+03  0.50660534367E+02 -0.75736375357E+02  0.14773403064E+03  0.00000000000E+00 0. -1.
         -5    1    5    5    0  502 -0.32777946187E+02 -0.64894166141E+02 -0.13821885899E+02  0.74153766493E+02  0.47000000000E+01 0.  1.
         13    1    6    6    0    0 -0.28703322437E+02 -0.34520471583E+02 -0.38159085541E+02  0.58920789935E+02  0.00000000000E+00 0. -1.
        -14    1    6    6    0    0 -0.19034351065E+03  0.49584213116E+01 -0.17554791367E+03  0.25898321950E+03  0.00000000000E+00 0.  1.
</event>
<event>
12    1  0.8344842E-002  0.2441956E+03  0.7818608E-02  0.1117411E+00
         21   -1    0    0  503  502  0.00000000000E+00  0.00000000000E+00  0.85811736123E+02  0.85811736123E+02  0.00000000000E+00 0.  1.
         21   -1    0    0  501  503 -0.00000000000E+00 -0.00000000000E+00 -0.69490534155E+03  0.69490534155E+03  0.00000000000E+00 0. -1.
          6    2    1    2  501    0  0.10167010756E+03 -0.13720828197E+03 -0.26502253256E+03  0.35879721298E+03  0.17127630853E+03 0.  0.
         24    2    3    3    0    0  0.83172590889E+02 -0.46349078706E+02 -0.72048949767E+02  0.14465135942E+03  0.81651991076E+02 0.  0.
         -6    2    1    2    0  502 -0.10167010756E+03  0.13720828197E+03 -0.34407107286E+03  0.42191986469E+03  0.17455241514E+03 0.  0.
        -24    2    5    5    0    0 -0.60010828282E+00  0.65761046615E+02 -0.23362554054E+03  0.25596758901E+03  0.81324277124E+02 0.  0.
          5    1    3    3  501    0  0.18497516674E+02 -0.90859203262E+02 -0.19297358280E+03  0.21414585356E+03  0.47000000000E+01 0. -1.
        -11    1    4    4    0    0  0.59937363877E+02 -0.43285910486E+02 -0.89018066924E+02  0.11571678303E+03  0.00000000000E+00 0.  1.
         12    1    4    4    0    0  0.23235227012E+02 -0.30631682193E+01  0.16969117156E+02  0.28934576391E+02  0.00000000000E+00 0. -1.
         -5    1    5    5    0  502 -0.10106999928E+03  0.71447235353E+02 -0.11044553232E+03  0.16595227568E+03  0.47000000000E+01 0.  1.
         11    1    6    6    0    0  0.32615849698E+02  0.63284021639E+02 -0.16389143181E+03  0.17868705176E+03  0.00000000000E+00 0. -1.
        -12    1    6    6    0    0 -0.33215957980E+02  0.24770249758E+01 -0.69734108727E+02  0.77280537247E+02  0.00000000000E+00 0.  1.
</event>
<event>
12    1  0.8344842E-002  0.1815307E+03  0.7818608E-02  0.1166910E+00
         21   -1    0    0  501  502  0.00000000000E+00  0.00000000000E+00  0.36412915307E+03  0.36412915307E+03  0.00000000000E+00 0. -1.
         21   -1    0    0  502  503 -0.00000000000E+00 -0.00000000000E+00 -0.90566054169E+02  0.90566054169E+02  0.00000000000E+00 0. -1.
         -6    2    1    2    0  503  0.41337873550E+02 -0.30336574302E+02  0.16272069474E+03  0.24199956177E+03  0.17162935608E+03 0.  0.
        -24    2    3    3    0    0 -0.18753736151E+02  0.21174233368E+02  0.13252058860E+03  0.15715557981E+03  0.79599742987E+02 0.  0.
          6    2    1    2  501    0 -0.41337873550E+02  0.30336574302E+02  0.11084240416E+03  0.21269564547E+03  0.17413865600E+03 0.  0.
         24    2    5    5    0    0 -0.62882296614E+01 -0.48666897674E+02  0.41586528330E+02  0.10184217255E+03  0.78958090215E+02 0.  0.
          5    1    5    5  501    0 -0.35049643888E+02  0.79003471977E+02  0.69255875827E+02  0.11085347292E+03  0.47000000000E+01 0. -1.
        -11    1    6    6    0    0  0.32225942998E+02 -0.21498221192E+02 -0.36999648063E+00  0.38740441582E+02  0.00000000000E+00 0.  1.
         12    1    6    6    0    0 -0.38514172660E+02 -0.27168676482E+02  0.41956524811E+02  0.63101730972E+02  0.00000000000E+00 0. -1.
         -5    1    3    3    0  503  0.60091609701E+02 -0.51510807670E+02  0.30200106136E+02  0.84843981954E+02  0.47000000000E+01 0.  1.
         11    1    4    4    0    0  0.21337867285E+02 -0.31254678241E+01  0.62346844007E+01  0.22448706399E+02  0.00000000000E+00 0. -1.
        -12    1    4    4    0    0 -0.40091603436E+02  0.24299701192E+02  0.12628590420E+03  0.13470687341E+03  0.00000000000E+00 0.  1.
</event>
<event>
12    1  0.8344842E-002  0.1834811E+03  0.7818608E-02  0.1164587E+00
         21   -1    0    0  501  502  0.00000000000E+00  0.00000000000E+00  0.96920851057E+02  0.96920851057E+02  0.00000000000E+00 0. -1.
         21   -1    0    0  502  503 -0.00000000000E+00 -0.00000000000E+00 -0.40339498944E+03  0.40339498944E+03  0.00000000000E+00 0. -1.
         -6    2    1    2    0  503 -0.24070438810E+02 -0.63063200931E+02 -0.24738657848E+03  0.30800233113E+03  0.17061349135E+03 0.  0.
        -24    2    3    3    0    0 -0.72104391514E+02 -0.71140205859E+02 -0.21165566130E+03  0.24741118439E+03  0.78448728689E+02 0.  0.
          6    2    1    2  501    0  0.24070438810E+02  0.63063200931E+02 -0.59087559905E+02  0.19231350937E+03  0.17010817974E+03 0.  0.
         24    2    5    5    0    0  0.46835888170E+02 -0.97920724290E+01 -0.68152632117E+02  0.11530427567E+03  0.79754684003E+02 0.  0.
          5    1    5    5  501    0 -0.22765449360E+02  0.72855273360E+02  0.90650722115E+01  0.77009233700E+02  0.47000000000E+01 0. -1.
        -11    1    6    6    0    0 -0.21337815376E+02 -0.35718445279E+01 -0.29833468795E+02  0.36852358116E+02  0.00000000000E+00 0.  1.
         12    1    6    6    0    0  0.68173703546E+02 -0.62202279011E+01 -0.38319163321E+02  0.78451917555E+02  0.00000000000E+00 0. -1.
         -5    1    3    3    0  503  0.48033952703E+02  0.80770049282E+01 -0.35730917172E+02  0.60591146737E+02  0.47000000000E+01 0.  1.
         11    1    4    4    0    0 -0.16984386640E+02 -0.43637912875E+02 -0.16095808085E+03  0.16763126386E+03  0.00000000000E+00 0. -1.
        -12    1    4    4    0    0 -0.55120004874E+02 -0.27502292985E+02 -0.50697580450E+02  0.79779920533E+02  0.00000000000E+00 0.  1.
</event>
<event>
12    1  0.8344842E-002  0.1950250E+03  0.7818608E-02  0.1154293E+00
         21   -1    0    0  503  502  0.00000000000E+00  0.00000000000E+00  0.13493039478E+03  0.13493039478E+03  0.00000000000E+00 0. -1.
         21   -1    0    0  501  503 -0.00000000000E+00 -0.00000000000E+00 -0.28180144000E+03  0.28180144000E+03  0.00000000000E+00 0. -1.
          6    2    1    2  501    0  0.63711979097E+02 -0.63354185670E+02 -0.56476857802E+02  0.20177636836E+03  0.17161322280E+03 0.  0.
         24    2    3    3    0    0  0.10462532679E+03 -0.67036112082E+02 -0.25334512196E+02  0.15001350241E+03  0.80136845886E+02 0.  0.
         -6    2    1    2    0  502 -0.63711979097E+02  0.63354185670E+02 -0.90394187423E+02  0.21495546642E+03  0.17309469750E+03 0.  0.
        -24    2    5    5    0    0 -0.81014907888E+02  0.63193682407E+02 -0.90801852294E+01  0.13168798142E+03  0.81868296001E+02 0.  0.
          5    1    3    3  501    0 -0.40913347692E+02  0.36819264116E+01 -0.31142345606E+02  0.51762865950E+02  0.47000000000E+01 0. -1.
        -11    1    4    4    0    0  0.68253838923E+01 -0.45082127270E+02  0.34566044909E+01  0.45726711877E+02  0.00000000000E+00 0.  1.
         12    1    4    4    0    0  0.97799942897E+02 -0.21953984812E+02 -0.28791116687E+02  0.10428679053E+03  0.00000000000E+00 0. -1.
         -5    1    5    5    0  502  0.17302928790E+02  0.16050326274E+00 -0.81314002194E+02  0.83267485003E+02  0.47000000000E+01 0.  1.
         13    1    6    6    0    0 -0.40342809448E+02  0.75922134386E+02 -0.18730521325E+02  0.87991733663E+02  0.00000000000E+00 0. -1.
        -14    1    6    6    0    0 -0.40672098439E+02 -0.12728451978E+02  0.96503360952E+01  0.43696247756E+02  0.00000000000E+00 0.  1.
</event>
<event>
12    1  0.8344842E-002  0.2244892E+03  0.7818608E-02  0.1131019E+00
         21   -1    0    0  501  502  0.00000000000E+00  0.00000000000E+00  0.22471020184E+03  0.22471020184E+03  0.00000000000E+00 0. -1.
         21   -1    0    0  502  503 -0.00000000000E+00 -0.00000000000E+00 -0.81882109899E+03  0.81882109899E+03  0.00000000000E+00 0.  1.
         -6    2    1    2    0  503  0.10768452860E+03  0.93796900002E+02 -0.74298795962E+03  0.77616139063E+03  0.17320964177E+03 0.  0.
        -24    2    3    3    0    0 -0.24019067299E+01  0.36305541546E+02 -0.20477212881E+03  0.22378230877E+03  0.82601667508E+02 0.  0.
          6    2    1    2  501    0 -0.10768452860E+03 -0.93796900002E+02  0.14887706247E+03  0.26736991020E+03  0.17008372350E+03 0.  0.
         24    2    5    5    0    0  0.92424663349E+01 -0.20819807159E+02  0.69588527286E+02  0.10829024451E+03  0.79782995504E+02 0.  0.
          5    1    5    5  501    0 -0.11692699494E+03 -0.72977092843E+02  0.79288535186E+02  0.15907966569E+03  0.47000000000E+01 0. -1.
        -13    1    6    6    0    0 -0.48690047292E+01  0.20499508900E+02  0.59993516853E+02  0.63585840693E+02  0.00000000000E+00 0.  1.
         14    1    6    6    0    0  0.14111471064E+02 -0.41319316059E+02  0.95950104326E+01  0.44704403815E+02  0.00000000000E+00 0. -1.
         -5    1    3    3    0  503  0.11008643533E+03  0.57491358456E+02 -0.53821583081E+03  0.55237908186E+03  0.47000000000E+01 0.  1.
         11    1    4    4    0    0 -0.51541821762E+01  0.29607220328E+02 -0.14491634147E+02  0.33364060749E+02  0.00000000000E+00 0. -1.
        -12    1    4    4    0    0  0.27522754463E+01  0.66983212183E+01 -0.19028049467E+03  0.19041824802E+03  0.00000000000E+00 0.  1.
</event>
<event>
12    1  0.8344842E-002  0.2420643E+03  0.7818608E-02  0.1118491E+00
         21   -1    0    0  501  502  0.00000000000E+00  0.00000000000E+00  0.20534563506E+03  0.20534563506E+03  0.00000000000E+00 0.  1.
         21   -1    0    0  502  503 -0.00000000000E+00 -0.00000000000E+00 -0.31433365674E+03  0.31433365674E+03  0.00000000000E+00 0.  1.
         -6    2    1    2    0  503 -0.29500388247E+02  0.16614785934E+03 -0.13399244704E+03  0.27632701913E+03  0.17299497556E+03 0.  0.
        -24    2    3    3    0    0  0.12744667599E+02  0.14580513500E+03 -0.15248973835E+03  0.22570379360E+03  0.79167658800E+02 0.  0.
          6    2    1    2  501    0  0.29500388247E+02 -0.16614785934E+03  0.25004425361E+02  0.24335227267E+03  0.17355034791E+03 0.  0.
         24    2    5    5    0    0  0.31218817965E+02 -0.15503360768E+02  0.77116498100E+01  0.91635931972E+02  0.84396123699E+02 0.  0.
          5    1    5    5  501    0 -0.17184297174E+01 -0.15064449857E+03  0.17292775551E+02  0.15171634070E+03  0.47000000000E+01 0. -1.
        -11    1    6    6    0    0  0.58389520434E+01 -0.48725204536E+02 -0.26608456293E+00  0.49074532286E+02  0.00000000000E+00 0.  1.
         12    1    6    6    0    0  0.25379865921E+02  0.33221843768E+02  0.79777343729E+01  0.42561399686E+02  0.00000000000E+00 0. -1.
         -5    1    3    3    0  503 -0.42245055846E+02  0.20342724339E+02  0.18497291310E+02  0.50623225527E+02  0.47000000000E+01 0.  1.
         13    1    4    4    0    0  0.17943372606E+02  0.12850891491E+02 -0.59259771601E+02  0.63236307315E+02  0.00000000000E+00 0. -1.
        -14    1    4    4    0    0 -0.51987050074E+01  0.13295424351E+03 -0.93229966751E+02  0.16246748629E+03  0.00000000000E+00 0.  1.
</event>
<event>
12    1  0.8344842E-002  0.1739847E+03  0.7818608E-02  0.1174004E+00
         21   -1    0    0  503  502  0.00000000000E+00  0.00000000000E+00  0.25315661533E+03  0.25315661533E+03  0.00000000000E+00 0. -1.
         21   -1    0    0  501  503 -0.00000000000E+00 -0.00000000000E+00 -0.18809506824E+03  0.18809506824E+03  0.00000000000E+00 0. -1.
          6    2    1    2  501    0 -0.14500956365E+02 -0.14092812787E+02 -0.10122569063E+03  0.20128913713E+03  0.17280564567E+03 0.  0.
         24    2    3    3    0    0 -0.79917119906E+01 -0.41407592356E+02  0.93630157061E+01  0.87094481330E+02  0.75626228583E+02 0.  0.
         -6    2    1    2    0  502  0.14500956365E+02  0.14092812787E+02  0.16628723771E+03  0.23996254644E+03  0.17181877999E+03 0.  0.
        -24    2    5    5    0    0  0.33488057942E+02  0.55315334520E+02  0.25451327186E+02  0.91919816058E+02  0.60168482370E+02 0.  0.
          5    1    3    3  501    0 -0.65092443744E+01  0.27314779569E+02 -0.11058870633E+03  0.11419465580E+03  0.47000000000E+01 0. -1.
        -11    1    4    4    0    0  0.31679305322E+02 -0.33533283469E+02  0.57670870364E+01  0.46489985790E+02  0.00000000000E+00 0.  1.
         12    1    4    4    0    0 -0.39671017312E+02 -0.78743088866E+01  0.35959286697E+01  0.40604495540E+02  0.00000000000E+00 0. -1.
         -5    1    5    5    0  502 -0.18987101577E+02 -0.41222521733E+02  0.14083591053E+03  0.14804273038E+03  0.47000000000E+01 0.  1.
         11    1    6    6    0    0  0.33545515235E+02  0.30586903127E+02  0.42257718246E+02  0.62020762545E+02  0.00000000000E+00 0. -1.
        -12    1    6    6    0    0 -0.57457292889E-01  0.24728431393E+02 -0.16806391060E+02  0.29899053513E+02  0.00000000000E+00 0.  1.
</event>
<event>
12    1  0.8344842E-002  0.2753012E+03  0.7818608E-02  0.1098413E+00
         21   -1    0    0  501  502  0.00000000000E+00  0.00000000000E+00  0.11405428703E+04  0.11405428703E+04  0.00000000000E+00 0. -1.
         21   -1    0    0  502  503 -0.00000000000E+00 -0.00000000000E+00 -0.74118726824E+02  0.74118726824E+02  0.00000000000E+00 0.  1.
         -6    2    1    2    0  503 -0.21492401312E+03 -0.80011240759E+01  0.33585260723E+03  0.43426686192E+03  0.17185570745E+03 0.  0.
        -24    2    3    3    0    0 -0.14407844575E+03 -0.12515735092E+02  0.32194520012E+03  0.36177560659E+03  0.79483554787E+02 0.  0.
          6    2    1    2  501    0  0.21492401312E+03  0.80011240759E+01  0.73057153625E+03  0.78039473520E+03  0.17036673311E+03 0.  0.
         24    2    5    5    0    0  0.12113619563E+03  0.69823550436E+02  0.44533455421E+03  0.47379989990E+03  0.81327571500E+02 0.  0.
          5    1    5    5  501    0  0.93787817484E+02 -0.61822426360E+02  0.28523698204E+03  0.30659483530E+03  0.47000000000E+01 0. -1.
        -11    1    6    6    0    0  0.81560319373E+02  0.71649675809E+01  0.29559311558E+03  0.30672253330E+03  0.00000000000E+00 0.  1.
         12    1    6    6    0    0  0.39575876260E+02  0.62658582855E+02  0.14974143862E+03  0.16707736659E+03  0.00000000000E+00 0. -1.
         -5    1    3    3    0  503 -0.70845567366E+02  0.45146110163E+01  0.13907407102E+02  0.72491255337E+02  0.47000000000E+01 0.  1.
         13    1    4    4    0    0 -0.53168937918E+01  0.62202004128E+01  0.93332980012E+02  0.93691010298E+02  0.00000000000E+00 0. -1.
        -14    1    4    4    0    0 -0.13876155196E+03 -0.18735935505E+02  0.22861222011E+03  0.26808459629E+03  0.00000000000E+00 0.  1.
</event>
<event>
12    1  0.8344842E-002  0.1783992E+03  0.7818608E-02  0.1169519E+00
         21   -1    0    0  503  502  0.00000000000E+00  0.00000000000E+00  0.83017455047E+02  0.83017455047E+02  0.00000000000E+00 0. -1.
         21   -1    0    0  501  503 -0.00000000000E+00 -0.00000000000E+00 -0.41508657100E+03  0.41508657100E+03  0.00000000000E+00 0. -1.
          6    2    1    2  501    0 -0.27770953893E+02  0.32893175041E+02 -0.23608245424E+03  0.29552142045E+03  0.17246680232E+03 0.  0.
         24    2    3    3    0    0 -0.26923819223E+02  0.51593963460E+02 -0.45361863107E+02  0.10382668655E+03  0.73044185996E+02 0.  0.
         -6    2    1    2    0  502  0.27770953893E+02 -0.32893175041E+02 -0.95986661712E+02  0.20258260559E+03  0.17312736935E+03 0.  0.
        -24    2    5    5    0    0 -0.12199511353E+02  0.30611887375E+02 -0.85831069500E+02  0.12671589947E+03  0.87201094957E+02 0.  0.
          5    1    3    3  501    0 -0.84713466999E+00 -0.18700788419E+02 -0.19072059113E+03  0.19169473391E+03  0.47000000000E+01 0. -1.
        -11    1    4    4    0    0 -0.30808536538E+00 -0.88673133753E-02 -0.45761809710E+02  0.45762847630E+02  0.00000000000E+00 0.  1.
         12    1    4    4    0    0 -0.26615733858E+02  0.51602830773E+02  0.39994660296E+00  0.58063838918E+02  0.00000000000E+00 0. -1.
         -5    1    5    5    0  502  0.39970465246E+02 -0.63505062416E+02 -0.10155592212E+02  0.75866706121E+02  0.47000000000E+01 0.  1.
         13    1    6    6    0    0  0.60590161125E+00 -0.17302725148E+02 -0.73633766708E+02  0.75641807315E+02  0.00000000000E+00 0. -1.
        -14    1    6    6    0    0 -0.12805412964E+02  0.47914612522E+02 -0.12197302793E+02  0.51074092158E+02  0.00000000000E+00 0.  1.
</event>
<event>
12    1  0.8344842E-002  0.1994516E+03  0.7818608E-02  0.1155005E+00
         21   -1    0    0  503  502  0.00000000000E+00  0.00000000000E+00  0.15148275160E+04  0.15148275160E+04  0.00000000000E+00 0.  1.
         21   -1    0    0  501  503 -0.00000000000E+00 -0.00000000000E+00 -0.76715675122E+02  0.76715675122E+02  0.00000000000E+00 0.  1.
          6    2    1    2  501    0  0.56122617953E+02 -0.13124680920E+01  0.44282107348E+02  0.18351540116E+03  0.16901339182E+03 0.  0.
         24    2    3    3    0    0  0.42795189308E+02 -0.66107362599E+01 -0.36505642295E+02  0.10132998583E+03  0.84023651717E+02 0.  0.
         -6    2    1    2    0  502 -0.56122617953E+02  0.13124680920E+01  0.13938297335E+04  0.14080277899E+04  0.19138824523E+03 0.  0.
        -24    2    5    5    0    0 -0.33920491156E+02  0.65016465001E+02  0.50432072745E+03  0.51595184277E+03  0.80555369053E+02 0.  0.
          5    1    3    3  501    0  0.13327428645E+02  0.52982681679E+01  0.80787749643E+02  0.82185415326E+02  0.47000000000E+01 0. -1.
        -11    1    4    4    0    0  0.32422037352E+02  0.34424662564E+02 -0.30660846287E+01  0.47388255651E+02  0.00000000000E+00 0.  1.
         12    1    4    4    0    0  0.10373151957E+02 -0.41035398824E+02 -0.33439557667E+02  0.53941730183E+02  0.00000000000E+00 0. -1.
         -5    1    5    5    0  502 -0.22202126797E+02 -0.63703996909E+02  0.88950900604E+03  0.89207594715E+03  0.47000000000E+01 0.  1.
         13    1    6    6    0    0  0.17498582271E+02  0.27281514461E+02  0.30399850538E+03  0.30572139717E+03  0.00000000000E+00 0. -1.
        -14    1    6    6    0    0 -0.51419073427E+02  0.37734950540E+02  0.20032222207E+03  0.21023044561E+03  0.00000000000E+00 0.  1.
</event>
<event>
12    1  0.8344842E-002  0.1894904E+03  0.7818608E-02  0.1158954E+00
         21   -1    0    0  501  502  0.00000000000E+00  0.00000000000E+00  0.25108415496E+03  0.25108415496E+03  0.00000000000E+00 0. -1.
         21   -1    0    0  502  503 -0.00000000000E+00 -0.00000000000E+00 -0.35151426372E+03  0.35151426372E+03  0.00000000000E+00 0. -1.
         -6    2    1    2    0  503 -0.68064064575E+02  0.38865405075E+02 -0.28233670318E+03  0.34003031056E+03  0.17252061192E+03 0.  0.
        -24    2    3    3    0    0 -0.28358860159E+02 -0.41727271293E+02 -0.17568563145E+03  0.20050173340E+03  0.82402147305E+02 0.  0.
          6    2    1    2  501    0  0.68064064575E+02 -0.38865405075E+02  0.18190659442E+03  0.26256810813E+03  0.17236230943E+03 0.  0.
         24    2    5    5    0    0  0.38515069008E+02  0.46108993403E+02  0.98250160805E+02  0.13962795837E+03  0.78952028778E+02 0.  0.
          5    1    5    5  501    0  0.29548995567E+02 -0.84974398478E+02  0.83656433615E+02  0.12294014975E+03  0.47000000000E+01 0. -1.
        -11    1    6    6    0    0  0.35780455475E+02  0.71133943154E+01  0.29238636801E+01  0.36597682324E+02  0.00000000000E+00 0.  1.
         12    1    6    6    0    0  0.27346135329E+01  0.38995599088E+02  0.95326297125E+02  0.10303027605E+03  0.00000000000E+00 0. -1.
         -5    1    3    3    0  503 -0.39705204416E+02  0.80592676368E+02 -0.10665107173E+03  0.13952857716E+03  0.47000000000E+01 0.  1.
         13    1    4    4    0    0 -0.32076293464E+02  0.94840521948E+01 -0.12078914260E+03  0.12533496247E+03  0.00000000000E+00 0. -1.
        -14    1    4    4    0    0  0.37174333050E+01 -0.51211323488E+02 -0.54896488849E+02  0.75166770928E+02  0.00000000000E+00 0.  1.
</event>
<event>
12    1  0.8344842E-002  0.2066023E+03  0.7818608E-02  0.1144916E+00
         21   -1    0    0  501  502  0.00000000000E+00  0.00000000000E+00  0.66676402771E+02  0.66676402771E+02  0.00000000000E+00 0.  1.
         21   -1    0    0  502  503 -0.00000000000E+00 -0.00000000000E+00 -0.65033766883E+03  0.65033766883E+03  0.00000000000E+00 0. -1.
         -6    2    1    2    0  503 -0.20639587486E+02  0.11182915657E+03 -0.22726382296E+03  0.30506305189E+03  0.16876868067E+03 0.  0.
        -24    2    3    3    0    0  0.15555406345E+02  0.13237248856E+03 -0.20491717068E+03  0.25759128201E+03  0.81226691024E+02 0.  0.
          6    2    1    2  501    0  0.20639587486E+02 -0.11182915657E+03 -0.35639744311E+03  0.41195101971E+03  0.17248986161E+03 0.  0.
         24    2    5    5    0    0 -0.72742348099E+01  0.72660058368E+01 -0.15079005987E+03  0.17266181138E+03  0.83479037009E+02 0.  0.
          5    1    5    5  501    0  0.27913822296E+02 -0.11909516241E+03 -0.20560738323E+03  0.23928920833E+03  0.47000000000E+01 0. -1.
        -13    1    6    6    0    0 -0.36556502349E+00  0.12441545923E+02  0.72378297006E+01  0.14398329123E+02  0.00000000000E+00 0.  1.
         14    1    6    6    0    0 -0.69086697864E+01 -0.51755400865E+01 -0.15802788957E+03  0.15826348226E+03  0.00000000000E+00 0. -1.
         -5    1    3    3    0  503 -0.36194993831E+02 -0.20543331990E+02 -0.22346652281E+02  0.47471769884E+02  0.47000000000E+01 0.  1.
         13    1    4    4    0    0  0.12095874752E+01  0.53445543618E+02 -0.15291551822E+03  0.16199087921E+03  0.00000000000E+00 0. -1.
        -14    1    4    4    0    0  0.14345818870E+02  0.78926944943E+02 -0.52001652453E+02  0.95600402797E+02  0.00000000000E+00 0.  1.
</event>
<event>
12    1  0.8344842E-002  0.4255658E+03  0.7818608E-02  0.1035384E+00
         21   -1    0    0  501  502  0.00000000000E+00  0.00000000000E+00  0.20782059838E+03  0.20782059838E+03  0.00000000000E+00 0.  1.
         21   -1    0    0  502  503 -0.00000000000E+00 -0.00000000000E+00 -0.12169021937E+04  0.12169021937E+04  0.00000000000E+00 0. -1.
         -6    2    1    2    0  503  0.11746206681E+03  0.36994022042E+03 -0.88507544157E+03  0.98145789670E+03  0.17102035519E+03 0.  0.
        -24    2    3    3    0    0  0.21131531146E+02  0.25140876729E+03 -0.64230514565E+03  0.69459767976E+03  0.79102001942E+02 0.  0.
          6    2    1    2  501    0 -0.11746206681E+03 -0.36994022042E+03 -0.12400615375E+03  0.44326489538E+03  0.17450827340E+03 0.  0.
         24    2    5    5    0    0 -0.10446958776E+03 -0.13331448411E+03 -0.32173071609E+02  0.18906822237E+03  0.77621129407E+02 0.  0.
          5    1    5    5  501    0 -0.12992479044E+02 -0.23662573631E+03 -0.91833082136E+02  0.25419667301E+03  0.47000000000E+01 0. -1.
        -11    1    6    6    0    0 -0.43310545698E+02 -0.76192285344E+02 -0.53534653120E+02  0.10269871859E+03  0.00000000000E+00 0.  1.
         12    1    6    6    0    0 -0.61159042065E+02 -0.57122198767E+02  0.21361581511E+02  0.86369503779E+02  0.00000000000E+00 0. -1.
         -5    1    3    3    0  503  0.96330535661E+02  0.11853145313E+03 -0.24277029592E+03  0.28686021694E+03  0.47000000000E+01 0.  1.
         13    1    4    4    0    0  0.44078497721E+02  0.18136391287E+03 -0.40144636233E+03  0.44271318557E+03  0.00000000000E+00 0. -1.
        -14    1    4    4    0    0 -0.22946966576E+02  0.70044854424E+02 -0.24085878333E+03  0.25188449419E+03  0.00000000000E+00 0.  1.
</event>
<event>
12    1  0.8344842E-002  0.1904301E+03  0.7818608E-02  0.1158420E+00
         21   -1    0    0  501  502  0.00000000000E+00  0.00000000000E+00  0.66642628092E+02  0.66642628092E+02  0.00000000000E+00 0.  1.
         21   -1    0    0  502  503 -0.00000000000E+00 -0.00000000000E+00 -0.54687033016E+03  0.54687033016E+03  0.00000000000E+00 0.  1.
         -6    2    1    2    0  503 -0.47861235544E+02 -0.58317169469E+02 -0.27600431478E+03  0.33532372553E+03  0.17484858880E+03 0.  0.
        -24    2    3    3    0    0 -0.92872362470E+02 -0.70115208822E+02 -0.22958601298E+03  0.26943029626E+03  0.79633717524E+02 0.  0.
          6    2    1    2  501    0  0.47861235544E+02  0.58317169469E+02 -0.20422338729E+03  0.27818923272E+03  0.17317755964E+03 0.  0.
         24    2    5    5    0    0  0.90135672326E+02  0.59060046195E+02 -0.19109257781E+03  0.23366746244E+03  0.80446138683E+02 0.  0.
          5    1    5    5  501    0 -0.42274436782E+02 -0.74287672613E+00 -0.13130809485E+02  0.44521770279E+02  0.47000000000E+01 0. -1.
        -13    1    6    6    0    0  0.38608053147E+02 -0.54973146170E+01 -0.20334306292E+02  0.43980521235E+02  0.00000000000E+00 0.  1.
         14    1    6    6    0    0  0.51527619179E+02  0.64557360812E+02 -0.17075827152E+03  0.18968694121E+03  0.00000000000E+00 0. -1.
         -5    1    3    3    0  503  0.45011126927E+02  0.11798039353E+02 -0.46418301801E+02  0.65893429277E+02  0.47000000000E+01 0.  1.
         13    1    4    4    0    0  0.13179257993E+02 -0.18297556534E+02 -0.29619269881E+02  0.37226261760E+02  0.00000000000E+00 0. -1.
        -14    1    4    4    0    0 -0.10605162046E+03 -0.51817652288E+02 -0.19996674310E+03  0.23220403450E+03  0.00000000000E+00 0.  1.
</event>
<event>
12    1  0.8344842E-002  0.1826481E+03  0.7818608E-02  0.1166050E+00
         21   -1    0    0  501  502  0.00000000000E+00  0.00000000000E+00  0.34414344554E+02  0.34414344554E+02  0.00000000000E+00 0.  1.
         21   -1    0    0  502  503 -0.00000000000E+00 -0.00000000000E+00 -0.12651413403E+04  0.12651413403E+04  0.00000000000E+00 0.  1.
         -6    2    1    2    0  503  0.33328421553E+02 -0.37153568828E+02 -0.93440318546E+03  0.95146358386E+03  0.17228600368E+03 0.  0.
        -24    2    3    3    0    0 -0.44642322847E+02 -0.12480670339E+02 -0.38115513919E+03  0.39218397615E+03  0.79876948481E+02 0.  0.
          6    2    1    2  501    0 -0.33328421553E+02  0.37153568828E+02 -0.29632381027E+03  0.34809210097E+03  0.17569615496E+03 0.  0.
         24    2    5    5    0    0 -0.74317436957E+02 -0.18870240598E+02 -0.20646866715E+03  0.23444878462E+03  0.80360156046E+02 0.  0.
          5    1    5    5  501    0  0.40989015404E+02  0.56023809426E+02 -0.89855143125E+02  0.11364331636E+03  0.47000000000E+01 0. -1.
        -11    1    6    6    0    0 -0.23385455979E+02 -0.20487175348E+01 -0.25725762748E+01  0.23615565705E+02  0.00000000000E+00 0.  1.
         12    1    6    6    0    0 -0.50931980978E+02 -0.16821523063E+02 -0.20389609087E+03  0.21083321891E+03  0.00000000000E+00 0. -1.
         -5    1    3    3    0  503  0.77970744399E+02 -0.24672898489E+02 -0.55324804627E+03  0.55927960771E+03  0.47000000000E+01 0.  1.
         13    1    4    4    0    0 -0.21678578663E+02 -0.39917433734E+02 -0.30097198530E+03  0.30438051551E+03  0.00000000000E+00 0. -1.
        -14    1    4    4    0    0 -0.22963744184E+02  0.27436763395E+02 -0.80183153895E+02  0.87803460644E+02  0.00000000000E+00 0.  1.
</event>
<event>
12    1  0.8344842E-002  0.1992481E+03  0.7818608E-02  0.1150391E+00
         21   -1    0    0  503  502  0.00000000000E+00  0.00000000000E+00  0.15738218294E+03  0.15738218294E+03  0.00000000000E+00 0.  1.
         21   -1    0    0  501  503 -0.00000000000E+00 -0.00000000000E+00 -0.46716989872E+03  0.46716989872E+03  0.00000000000E+00 0.  1.
          6    2    1    2  501    0 -0.15968280667E+02 -0.99606833803E+02 -0.36673138090E+03  0.41732659774E+03  0.17173548297E+03 0.  0.
         24    2    3    3    0    0 -0.10746784211E+02 -0.12176046717E+03 -0.36611300050E+03  0.39407751408E+03  0.79481150158E+02 0.  0.
         -6    2    1    2    0  502  0.15968280667E+02  0.99606833803E+02  0.56943665122E+02  0.20722548393E+03  0.17182349334E+03 0.  0.
        -24    2    5    5    0    0 -0.43555409180E+02  0.93766224107E+02  0.11195260543E+02  0.13177888761E+03  0.80939254431E+02 0.  0.
          5    1    3    3  501    0 -0.52214964558E+01  0.22153633370E+02 -0.61838040618E+00  0.23249083660E+02  0.47000000000E+01 0. -1.
        -13    1    4    4    0    0  0.19264801944E+02  0.82677941054E+00 -0.57863751719E+02  0.60992048016E+02  0.00000000000E+00 0.  1.
         14    1    4    4    0    0 -0.30011586156E+02 -0.12258724658E+03 -0.30824924878E+03  0.33308546606E+03  0.00000000000E+00 0. -1.
         -5    1    5    5    0  502  0.59523689848E+02  0.58406096963E+01  0.45748404579E+02  0.75446596320E+02  0.47000000000E+01 0.  1.
         11    1    6    6    0    0 -0.40615489741E+01  0.15359336360E+02 -0.30651185527E+02  0.34523912983E+02  0.00000000000E+00 0. -1.
        -12    1    6    6    0    0 -0.39493860206E+02  0.78406887747E+02  0.41846446069E+02  0.97254974622E+02  0.00000000000E+00 0.  1.
</event>
<event>
12    1  0.8344842E-002  0.3506031E+03  0.7818608E-02  0.1062383E+00
         21   -1    0    0  503  502  0.00000000000E+00  0.00000000000E+00  0.10685394081E+04  0.10685394081E+04  0.00000000000E+00 0. -1.
         21   -1    0    0  501  503 -0.00000000000E+00 -0.00000000000E+00 -0.35381007026E+03  0.35381007026E+03  0.00000000000E+00 0.  1.
          6    2    1    2  501    0 -0.10173012926E+03  0.28757780826E+03 -0.22694591515E+03  0.41752369843E+03  0.17254441557E+03 0.  0.
         24    2    3    3    0    0 -0.10865717125E+03  0.27014452263E+03 -0.24689972169E+03  0.38973615169E+03  0.78424176055E+02 0.  0.
         -6    2    1    2    0  502  0.10173012926E+03 -0.28757780826E+03  0.94167525299E+03  0.10048257799E+04  0.17283677534E+03 0.  0.
        -24    2    5    5    0    0  0.19385561035E+02 -0.24939645549E+03  0.73934819519E+03  0.78302232654E+03  0.62560515870E+02 0.  0.
          5    1    3    3  501    0  0.69270419875E+01  0.17433285631E+02  0.19953806539E+02  0.27787546743E+02  0.47000000000E+01 0. -1.
        -13    1    4    4    0    0 -0.61520334224E+02  0.69565917975E+02 -0.10139348430E+03  0.13749475308E+03  0.00000000000E+00 0.  1.
         14    1    4    4    0    0 -0.47136837027E+02  0.20057860466E+03 -0.14550623739E+03  0.25224139860E+03  0.00000000000E+00 0. -1.
         -5    1    5    5    0  502  0.82344568228E+02 -0.38181352774E+02  0.20232705780E+03  0.22180345339E+03  0.47000000000E+01 0.  1.
         13    1    6    6    0    0  0.30101730337E+02 -0.24172781788E+03  0.71470351368E+03  0.75507586676E+03  0.00000000000E+00 0. -1.
        -14    1    6    6    0    0 -0.10716169302E+02 -0.76686376100E+01  0.24644681510E+02  0.27946459777E+02  0.00000000000E+00 0.  1.
</event>
<event>
12    1  0.8344842E-002  0.1913953E+03  0.7818608E-02  0.1157292E+00
         21   -1    0    0  503  502  0.00000000000E+00  0.00000000000E+00  0.12721797063E+03  0.12721797063E+03  0.00000000000E+00 0.  1.
         21   -1    0    0  501  503 -0.00000000000E+00 -0.00000000000E+00 -0.59353554796E+03  0.59353554796E+03  0.00000000000E+00 0.  1.
          6    2    1    2  501    0 -0.23387484768E+02 -0.78948983995E+02 -0.49186897627E+03  0.52766023280E+03  0.17236680351E+03 0.  0.
         24    2    3    3    0    0  0.50303799942E+02 -0.64885770829E+02 -0.34196289878E+03  0.35996377645E+03  0.76776693522E+02 0.  0.
         -6    2    1    2    0  502  0.23387484768E+02  0.78948983995E+02  0.25551398939E+02  0.19309328578E+03  0.17277796882E+03 0.  0.
        -24    2    5    5    0    0  0.49222417358E+02 -0.12917071077E+02  0.30256465309E+01  0.94928550068E+02  0.80078573821E+02 0.  0.
          5    1    3    3  501    0 -0.73691284710E+02 -0.14063213166E+02 -0.14990607748E+03  0.16769645635E+03  0.47000000000E+01 0. -1.
        -13    1    4    4    0    0  0.44052088295E+02 -0.22980375473E+02 -0.77028278676E+02  0.91662641549E+02  0.00000000000E+00 0.  1.
         14    1    4    4    0    0  0.62517116477E+01 -0.41905395357E+02 -0.26493462011E+03  0.26830113490E+03  0.00000000000E+00 0. -1.
         -5    1    5    5    0  502 -0.25834932591E+02  0.91866055072E+02  0.22525752408E+02  0.98164735715E+02  0.47000000000E+01 0.  1.
         13    1    6    6    0    0  0.27004360039E+02  0.98601544765E+01  0.37997769024E+02  0.47647545144E+02  0.00000000000E+00 0. -1.
        -14    1    6    6    0    0  0.22218057319E+02 -0.22777225553E+02 -0.34972122493E+02  0.47281004924E+02  0.00000000000E+00 0.  1.
</event>
<event>
12    1  0.8344842E-002  0.2250293E+03  0.7818608E-02  0.1130306E+00
         21   -1    0    0  503  502  0.00000000000E+00  0.00000000000E+00  0.11301413338E+03  0.11301413338E+03  0.00000000000E+00 0.  1.
         21   -1    0    0  501  503 -0.00000000000E+00 -0.00000000000E+00 -0.45579608171E+03  0.45579608171E+03  0.00000000000E+00 0.  1.
          6    2    1    2  501    0 -0.99489809483E+02  0.10450969189E+03 -0.13113290115E+03  0.25988711344E+03  0.17182833317E+03 0.  0.
         24    2    3    3    0    0 -0.69802686410E+02  0.13626836408E+03 -0.73948187675E+02  0.18790017024E+03  0.79979106257E+02 0.  0.
         -6    2    1    2    0  502  0.99489809483E+02 -0.10450969189E+03 -0.21164904717E+03  0.30892310165E+03  0.17267792468E+03 0.  0.
        -24    2    5    5    0    0 -0.30022319611E+02 -0.20717995468E+02 -0.52809309682E+02  0.87458449439E+02  0.59410286804E+02 0.  0.
          5    1    3    3  501    0 -0.29687123073E+02 -0.31758672190E+02 -0.57184713477E+02  0.71986943199E+02  0.47000000000E+01 0. -1.
        -13    1    4    4    0    0 -0.83885873004E+02  0.11521329806E+03 -0.45040317678E+02  0.14946428990E+03  0.00000000000E+00 0.  1.
         14    1    4    4    0    0  0.14083186594E+02  0.21055066021E+02 -0.28907869997E+02  0.38435880341E+02  0.00000000000E+00 0. -1.
         -5    1    5    5    0  502  0.12951212909E+03 -0.83791696421E+02 -0.15883973749E+03  0.22146465221E+03  0.47000000000E+01 0.  1.
         11    1    6    6    0    0  0.10828903970E+02  0.75957130113E+01 -0.29968022086E+02  0.32757325365E+02  0.00000000000E+00 0. -1.
        -12    1    6    6    0    0 -0.40851223581E+02 -0.28313708480E+02 -0.22841287596E+02  0.54701124074E+02  0.00000000000E+00 0.  1.
</event>
<event>
12    1  0.8344842E-002  0.2436194E+03  0.7818608E-02  0.1117720E+00
         21   -1    0    0  503  502  0.00000000000E+00  0.00000000000E+00  0.87887228363E+03  0.87887228363E+03  0.00000000000E+00 0. -1.
         21   -1    0    0  501  503 -0.00000000000E+00 -0.00000000000E+00 -0.75964516789E+02  0.75964516789E+02  0.00000000000E+00 0. -1.
          6    2    1    2  501    0 -0.15149322494E+03  0.79449833457E+02  0.56407056248E+03  0.61367170456E+03  0.17074802572E+03 0.  0.
         24    2    3    3    0    0 -0.61946077339E+02  0.36537976082E+02  0.13434464704E+03  0.17259736667E+03  0.81049531769E+02 0.  0.
         -6    2    1    2    0  502  0.15149322494E+03 -0.79449833457E+02  0.23883720437E+03  0.34116509586E+03  0.17345875361E+03 0.  0.
        -24    2    5    5    0    0  0.74879765573E+02 -0.70018688245E+02  0.49612672425E+02  0.13674742993E+03  0.75689142752E+02 0.  0.
          5    1    3    3  501    0 -0.89547147604E+02  0.42911857375E+02  0.42972591544E+03  0.44107433789E+03  0.47000000000E+01 0. -1.
        -11    1    4    4    0    0  0.59426051761E+01  0.32722659919E+02  0.76160204208E+02  0.83105136625E+02  0.00000000000E+00 0.  1.
         12    1    4    4    0    0 -0.67888682515E+02  0.38153161625E+01  0.58184442830E+02  0.89492230045E+02  0.00000000000E+00 0. -1.
         -5    1    5    5    0  502  0.76613459369E+02 -0.94311452119E+01  0.18922453194E+03  0.20441766593E+03  0.47000000000E+01 0.  1.
         13    1    6    6    0    0  0.65595185434E+02 -0.99359402609E+01  0.30496155401E+02  0.73016893629E+02  0.00000000000E+00 0. -1.
        -14    1    6    6    0    0  0.92845801391E+01 -0.60082747984E+02  0.19116517024E+02  0.63730536298E+02  0.00000000000E+00 0.  1.
</event>
<event>
12    1  0.8344842E-002  0.2955127E+03  0.7818608E-02  0.1087603E+00
         21   -1    0    0  501  502  0.00000000000E+00  0.00000000000E+00  0.11920757868E+03  0.11920757868E+03  0.00000000000E+00 0. -1.
         21   -1    0    0  502  503 -0.00000000000E+00 -0.00000000000E+00 -0.73432920984E+03  0.73432920984E+03  0.00000000000E+00 0.  1.
         -6    2    1    2    0  503  0.65658869885E+02 -0.23067090641E+03 -0.27787749353E+03  0.40563981594E+03  0.17264878976E+03 0.  0.
        -24    2    3    3    0    0  0.62350914631E+02 -0.25077490116E+03 -0.27292964475E+03  0.38415297390E+03  0.79418063246E+02 0.  0.
          6    2    1    2  501    0 -0.65658869885E+02  0.23067090641E+03 -0.33724413764E+03  0.44789697258E+03  0.17134157528E+03 0.  0.
         24    2    5    5    0    0  0.19912717062E+01  0.76237905523E+02 -0.67025011257E+02  0.12935881210E+03  0.80157137757E+02 0.  0.
          5    1    5    5  501    0 -0.67650141591E+02  0.15443300088E+03 -0.27021912638E+03  0.31853816048E+03  0.47000000000E+01 0. -1.
        -11    1    6    6    0    0 -0.37931672443E+02  0.28497675292E+02 -0.37512692282E+02  0.60482487991E+02  0.00000000000E+00 0.  1.
         12    1    6    6    0    0  0.39922944149E+02  0.47740230231E+02 -0.29512318975E+02  0.68876324113E+02  0.00000000000E+00 0. -1.
         -5    1    3    3    0  503  0.33079552536E+01  0.20103994754E+02 -0.49478487847E+01  0.21486842034E+02  0.47000000000E+01 0.  1.
         11    1    4    4    0    0  0.57571914501E+02 -0.14590389779E+03 -0.11490817342E+03  0.19443857911E+03  0.00000000000E+00 0. -1.
        -12    1    4    4    0    0  0.47790001304E+01 -0.10487100337E+03 -0.15802147132E+03  0.18971439479E+03  0.00000000000E+00 0.  1.
</event>
<event>
12    1  0.8344842E-002  0.2135604E+03  0.7818608E-02  0.1139263E+00
         21   -1    0    0  503  502  0.00000000000E+00  0.00000000000E+00  0.27276431315E+03  0.27276431315E+03  0.00000000000E+00 0.  1.
         21   -1    0    0  501  503 -0.00000000000E+00 -0.00000000000E+00 -0.17674815655E+03  0.17674815655E+03  0.00000000000E+00 0.  1.
          6    2    1    2  501    0 -0.10204041768E+03  0.75227687307E+02 -0.95522638039E+01  0.21128414565E+03  0.16875512639E+03 0.  0.
         24    2    3    3    0    0 -0.11181621908E+03  0.66320102900E+02 -0.56798936005E+02  0.16199672954E+03  0.78202291234E+02 0.  0.
         -6    2    1    2    0  502  0.10204041768E+03 -0.75227687307E+02  0.10556842040E+03  0.23822832404E+03  0.17186212849E+03 0.  0.
        -24    2    5    5    0    0 -0.12870521398E+02 -0.39824895289E+02  0.29882525079E+02  0.96072331011E+02  0.81149583332E+02 0.  0.
          5    1    3    3  501    0  0.97758013966E+01  0.89075844063E+01  0.47246672201E+02  0.49287416111E+02  0.47000000000E+01 0. -1.
        -13    1    4    4    0    0 -0.54412202169E+02  0.67153544108E+02 -0.82732608074E+01  0.86825877914E+02  0.00000000000E+00 0.  1.
         14    1    4    4    0    0 -0.57404016906E+02 -0.83344120783E+00 -0.48525675197E+02  0.75170851628E+02  0.00000000000E+00 0. -1.
         -5    1    5    5    0  502  0.11491093908E+03 -0.35402792018E+02  0.75685895326E+02  0.14215599303E+03  0.47000000000E+01 0.  1.
         13    1    6    6    0    0  0.19587227641E+02  0.12875215734E+02  0.24560097603E+02  0.33950391178E+02  0.00000000000E+00 0. -1.
        -14    1    6    6    0    0 -0.32457749039E+02 -0.52700111023E+02  0.53224274758E+01  0.62121939834E+02  0.00000000000E+00 0.  1.
</event>
<event>
12    1  0.8344842E-002  0.3188507E+03  0.7818608E-02  0.1076912E+00
         21   -1    0    0  503  502  0.00000000000E+00  0.00000000000E+00  0.20671512519E+04  0.20671512519E+04  0.00000000000E+00 0.  1.
         21   -1    0    0  501  503 -0.00000000000E+00 -0.00000000000E+00 -0.48317592783E+02  0.48317592783E+02  0.00000000000E+00 0. -1.
          6    2    1    2  501    0  0.23502410953E+03 -0.11070274756E+03  0.97153398197E+03  0.10225184923E+04  0.18486308083E+03 0.  0.
         24    2    3    3    0    0  0.19339920699E+03 -0.12981069470E+02  0.60076965657E+03  0.63681078711E+03  0.83857241113E+02 0.  0.
         -6    2    1    2    0  502 -0.23502410953E+03  0.11070274756E+03  0.10472996772E+04  0.10929503524E+04  0.17381722753E+03 0.  0.
        -24    2    5    5    0    0 -0.12561747466E+03  0.11355503756E+03  0.48443527185E+03  0.51952522554E+03  0.80959439633E+02 0.  0.
          5    1    3    3  501    0  0.41624902538E+02 -0.97721678093E+02  0.37076432540E+03  0.38570770522E+03  0.47000000000E+01 0. -1.
        -13    1    4    4    0    0  0.61406477471E+02  0.26429904190E+02  0.27704662535E+03  0.28499847005E+03  0.00000000000E+00 0.  1.
         14    1    4    4    0    0  0.13199272952E+03 -0.39410973660E+02  0.32372303122E+03  0.35181231706E+03  0.00000000000E+00 0. -1.
         -5    1    5    5    0  502 -0.10940663487E+03 -0.28522899998E+01  0.56286440532E+03  0.57342512683E+03  0.47000000000E+01 0.  1.
         13    1    6    6    0    0 -0.13728731158E+02  0.61604958775E+02  0.13700937889E+03  0.15084833081E+03  0.00000000000E+00 0. -1.
        -14    1    6    6    0    0 -0.11188874350E+03  0.51950078788E+02  0.34742589296E+03  0.36867689473E+03  0.00000000000E+00 0.  1.
</event>
<event>
12    1  0.8344842E-002  0.4839518E+03  0.7818608E-02  0.1018078E+00
         21   -1    0    0  503  502  0.00000000000E+00  0.00000000000E+00  0.19429901274E+03  0.19429901274E+03  0.00000000000E+00 0.  1.
         21   -1    0    0  501  503 -0.00000000000E+00 -0.00000000000E+00 -0.12189011506E+04  0.12189011506E+04  0.00000000000E+00 0. -1.
          6    2    1    2  501    0 -0.41915991763E+02 -0.45064750547E+03 -0.43547278427E+03  0.65078116186E+03  0.17040965416E+03 0.  0.
         24    2    3    3    0    0  0.32369111649E+02 -0.24132319647E+03 -0.27800599992E+03  0.37847100578E+03  0.81659792315E+02 0.  0.
         -6    2    1    2    0  502  0.41915991763E+02  0.45064750547E+03 -0.58912935361E+03  0.76241900151E+03  0.17137448474E+03 0.  0.
        -24    2    5    5    0    0  0.53242099681E+02  0.45604687155E+03 -0.58594241186E+03  0.74864654812E+03  0.79559246888E+02 0.  0.
          5    1    3    3  501    0 -0.74285103412E+02 -0.20932430900E+03 -0.15746678435E+03  0.27231015607E+03  0.47000000000E+01 0. -1.
        -11    1    4    4    0    0 -0.17562374871E+02 -0.12129284790E+03 -0.16932560761E+03  0.20902524573E+03  0.00000000000E+00 0.  1.
         12    1    4    4    0    0  0.49931486520E+02 -0.12003034858E+03 -0.10868039232E+03  0.16944576005E+03  0.00000000000E+00 0. -1.
         -5    1    5    5    0  502 -0.11326107918E+02 -0.53993660759E+01 -0.31869417483E+01  0.13772453387E+02  0.47000000000E+01 0.  1.
         13    1    6    6    0    0  0.55683464651E+02  0.28762541269E+03 -0.32003811623E+03  0.43388180660E+03  0.00000000000E+00 0. -1.
        -14    1    6    6    0    0 -0.24413649694E+01  0.16842145886E+03 -0.26590429564E+03  0.31476474152E+03  0.00000000000E+00 0.  1.
</event>
<event>
12    1  0.8344842E-002  0.2263596E+03  0.7818608E-02  0.1129570E+00
         21   -1    0    0  503  502  0.00000000000E+00  0.00000000000E+00  0.90372413600E+03  0.90372413600E+03  0.00000000000E+00 0. -1.
         21   -1    0    0  501  503 -0.00000000000E+00 -0.00000000000E+00 -0.83823900016E+02  0.83823900016E+02  0.00000000000E+00 0.  1.
          6    2    1    2  501    0  0.63788954947E+02 -0.13280295459E+03  0.12777317553E+03  0.25993201799E+03  0.17185172117E+03 0.  0.
         24    2    3    3    0    0  0.38067064935E+02 -0.13319050332E+03  0.31906742067E+02  0.16056286340E+03  0.74656421736E+02 0.  0.
         -6    2    1    2    0  502 -0.63788954947E+02  0.13280295459E+03  0.69212706046E+03  0.72761601803E+03  0.16935036566E+03 0.  0.
        -24    2    5    5    0    0  0.28313767253E+02  0.73064590803E+02  0.29099476225E+03  0.31170641942E+03  0.79641926194E+02 0.  0.
          5    1    3    3  501    0  0.25721890013E+02  0.38754872603E+00  0.95866433460E+02  0.99369154591E+02  0.47000000000E+01 0. -1.
        -13    1    4    4    0    0  0.48469015290E+02 -0.37991822709E+02  0.13420879624E+02  0.63029707645E+02  0.00000000000E+00 0.  1.
         14    1    4    4    0    0 -0.10401950355E+02 -0.95198680610E+02  0.18485862443E+02  0.97533155754E+02  0.00000000000E+00 0. -1.
         -5    1    5    5    0  502 -0.92102722200E+02  0.59738363790E+02  0.40113229821E+03  0.41590959860E+03  0.47000000000E+01 0.  1.
         13    1    6    6    0    0  0.34841830481E+02  0.35522176595E+02  0.25317664270E+03  0.25801974845E+03  0.00000000000E+00 0. -1.
        -14    1    6    6    0    0 -0.65280632278E+01  0.37542414208E+02  0.37818119553E+02  0.53686670977E+02  0.00000000000E+00 0.  1.
</event>
<event>
12    1  0.8344842E-002  0.2212448E+03  0.7818608E-02  0.1132961E+00
         21   -1    0    0  503  502  0.00000000000E+00  0.00000000000E+00  0.18916201511E+04  0.18916201511E+04  0.00000000000E+00 0. -1.
         21   -1    0    0  501  503 -0.00000000000E+00 -0.00000000000E+00 -0.46099847070E+02  0.46099847070E+02  0.00000000000E+00 0.  1.
          6    2    1    2  501    0 -0.53251024743E+02 -0.12820714943E+03  0.28104711871E+03  0.35768244438E+03  0.17226869503E+03 0.  0.
         24    2    3    3    0    0 -0.82697399946E+02 -0.75262456414E+02  0.10844178090E+03  0.17469358633E+03  0.79088127791E+02 0.  0.
         -6    2    1    2    0  502  0.53251024743E+02  0.12820714943E+03  0.15644731853E+04  0.15800375537E+04  0.17224859643E+03 0.  0.
        -24    2    5    5    0    0  0.51290421849E+02  0.79955109942E+02  0.14555694307E+04  0.14608141456E+04  0.79196423712E+02 0.  0.
          5    1    3    3  501    0  0.29446375203E+02 -0.52944693017E+02  0.17260533781E+03  0.18298885805E+03  0.47000000000E+01 0. -1.
        -13    1    4    4    0    0 -0.16120911548E+02  0.99850451647E+00 -0.99121757010E+01  0.18950779075E+02  0.00000000000E+00 0.  1.
         14    1    4    4    0    0 -0.66576488398E+02 -0.76260960931E+02  0.11835395660E+03  0.15574280725E+03  0.00000000000E+00 0. -1.
         -5    1    5    5    0  502  0.19606028942E+01  0.48252039490E+02  0.10890375460E+03  0.11922340813E+03  0.47000000000E+01 0.  1.
         11    1    6    6    0    0  0.13636810894E+02  0.33430666326E+02  0.10715824357E+04  0.10721905094E+04  0.00000000000E+00 0. -1.
        -12    1    6    6    0    0  0.37653610955E+02  0.46524443617E+02  0.38398699498E+03  0.38862363617E+03  0.00000000000E+00 0.  1.
</event>
<event>
12    1  0.8344842E-002  0.1769896E+03  0.7818608E-02  0.1171329E+00
         21   -1    0    0  501  502  0.00000000000E+00  0.00000000000E+00  0.18064674756E+03  0.18064674756E+03  0.00000000000E+00 0. -1.
         21   -1    0    0  502  503 -0.00000000000E+00 -0.00000000000E+00 -0.48310291972E+03  0.48310291972E+03  0.00000000000E+00 0. -1.
         -6    2    1    2    0  503 -0.15209016389E+02 -0.37592573464E+02 -0.41827509963E+03  0.45417990731E+03  0.17228120466E+03 0.  0.
        -24    2    3    3    0    0 -0.33057536153E+02 -0.54714972434E+02 -0.13240790204E+03  0.16720623106E+03  0.79621242632E+02 0.  0.
          6    2    1    2  501    0  0.15209016389E+02  0.37592573464E+02  0.11581892746E+03  0.20956975997E+03  0.16988509226E+03 0.  0.
         24    2    5    5    0    0  0.38583321264E+02  0.43926042395E+01 -0.23772954182E+01  0.84505643654E+02  0.75017228849E+02 0.  0.
          5    1    5    5  501    0 -0.23374304874E+02  0.33199969225E+02  0.11819622288E+03  0.12506411631E+03  0.47000000000E+01 0. -1.
        -11    1    6    6    0    0  0.55888995232E+01  0.24568471845E+02 -0.28343050121E+02  0.37923265904E+02  0.00000000000E+00 0.  1.
         12    1    6    6    0    0  0.32994421741E+02 -0.20175867605E+02  0.25965754703E+02  0.46582377751E+02  0.00000000000E+00 0. -1.
         -5    1    3    3    0  503  0.17848519763E+02  0.17122398969E+02 -0.28586719759E+03  0.28697367626E+03  0.47000000000E+01 0.  1.
         11    1    4    4    0    0 -0.28169267263E+02 -0.43331342500E+02 -0.14227300671E+03  0.15136948602E+03  0.00000000000E+00 0. -1.
        -12    1    4    4    0    0 -0.48882688892E+01 -0.11383629933E+02  0.98651046708E+01  0.15836745037E+02  0.00000000000E+00 0.  1.
</event>
<event>
12    1  0.8344842E-002  0.1792176E+03  0.7818608E-02  0.1168962E+00
         21   -1    0    0  501  502  0.00000000000E+00  0.00000000000E+00  0.22927447690E+03  0.22927447690E+03  0.00000000000E+00 0.  1.
         21   -1    0    0  502  503 -0.00000000000E+00 -0.00000000000E+00 -0.34167828750E+03  0.34167828750E+03  0.00000000000E+00 0.  1.
         -6    2    1    2    0  503  0.35111604964E+02 -0.25865381664E+02 -0.27606580227E+03  0.32825089943E+03  0.17214669041E+03 0.  0.
        -24    2    3    3    0    0  0.86027503711E+02 -0.16578844169E+02 -0.22863747134E+03  0.25789320547E+03  0.80982854113E+02 0.  0.
          6    2    1    2  501    0 -0.35111604964E+02  0.25865381664E+02  0.16366199168E+03  0.24270186497E+03  0.17383067902E+03 0.  0.
         24    2    5    5    0    0 -0.35735953668E+02 -0.50869144214E+02  0.99422153904E+02  0.14251491957E+03  0.81000057988E+02 0.  0.
          5    1    5    5  501    0  0.62434870400E+00  0.76734525878E+02  0.64239837771E+02  0.10018694541E+03  0.47000000000E+01 0. -1.
        -11    1    6    6    0    0 -0.26252256095E+02  0.11802303453E+02  0.63355183636E+02  0.69587029038E+02  0.00000000000E+00 0.  1.
         12    1    6    6    0    0 -0.94836975733E+01 -0.62671447667E+02  0.36066970269E+02  0.72927890527E+02  0.00000000000E+00 0. -1.
         -5    1    3    3    0  503 -0.50915898747E+02 -0.92865374944E+01 -0.47428330937E+02  0.70357693960E+02  0.47000000000E+01 0.  1.
         11    1    4    4    0    0  0.17440643229E+02  0.12327281280E+02 -0.46424160615E+01  0.21856118752E+02  0.00000000000E+00 0. -1.
        -12    1    4    4    0    0  0.68586860482E+02 -0.28906125450E+02 -0.22399505528E+03  0.23603708672E+03  0.00000000000E+00 0.  1.
</event>
<event>
12    1  0.8344842E-002  0.1843201E+03  0.7818608E-02  0.1164892E+00
         21   -1    0    0  501  502  0.00000000000E+00  0.00000000000E+00  0.14063233468E+03  0.14063233468E+03  0.00000000000E+00 0. -1.
         21   -1    0    0  502  503 -0.00000000000E+00 -0.00000000000E+00 -0.25038788521E+03  0.25038788521E+03  0.00000000000E+00 0. -1.
         -6    2    1    2    0  503  0.40621427964E+02  0.32963081873E+02 -0.10408027193E+03  0.21167566509E+03  0.17674054150E+03 0.  0.
        -24    2    3    3    0    0  0.29617619685E+02  0.16239303370E+02 -0.14410333704E+03  0.16667895071E+03  0.76649739041E+02 0.  0.
          6    2    1    2  501    0 -0.40621427964E+02 -0.32963081873E+02 -0.56752786023E+01  0.17934455480E+03  0.17145143736E+03 0.  0.
         24    2    5    5    0    0 -0.46462171765E+02 -0.85237842527E+02 -0.16196599938E+02  0.12549705632E+03  0.77864999142E+02 0.  0.
          5    1    5    5  501    0  0.58407438006E+01  0.52274760653E+02  0.10521321336E+02  0.53847498476E+02  0.47000000000E+01 0. -1.
        -11    1    6    6    0    0 -0.36316828527E+02 -0.37630403037E+02 -0.44952291656E+02  0.68961349988E+02  0.00000000000E+00 0.  1.
         12    1    6    6    0    0 -0.10145343238E+02 -0.47607439490E+02  0.28755691718E+02  0.56535706331E+02  0.00000000000E+00 0. -1.
         -5    1    3    3    0  503  0.11003808279E+02  0.16723778504E+02  0.40023065108E+02  0.44996714377E+02  0.47000000000E+01 0.  1.
         11    1    4    4    0    0  0.47037876195E+02 -0.63663106996E+01 -0.52706549792E+02  0.70930050753E+02  0.00000000000E+00 0. -1.
        -12    1    4    4    0    0 -0.17420256510E+02  0.22605614069E+02 -0.91396787246E+02  0.95748899959E+02  0.00000000000E+00 0.  1.
</event>
<event>
12    1  0.8344842E-002  0.2715077E+03  0.7818608E-02  0.1100509E+00
         21   -1    0    0  501  502  0.00000000000E+00  0.00000000000E+00  0.10247009003E+03  0.10247009003E+03  0.00000000000E+00 0.  1.
         21   -1    0    0  502  503 -0.00000000000E+00 -0.00000000000E+00 -0.19869918464E+04  0.19869918464E+04  0.00000000000E+00 0. -1.
         -6    2    1    2    0  503  0.18969391386E+03 -0.88200191157E+02 -0.17768574047E+04  0.17973865438E+04  0.17208456215E+03 0.  0.
        -24    2    3    3    0    0  0.13258891380E+03 -0.24552776129E+02 -0.14796526414E+04  0.14880893796E+04  0.82797364228E+02 0.  0.
          6    2    1    2  501    0 -0.18969391386E+03  0.88200191157E+02 -0.10766435162E+03  0.29207539259E+03  0.17307041246E+03 0.  0.
         24    2    5    5    0    0 -0.11243925190E+03  0.40829641197E+02  0.39080046131E+01  0.14826046821E+03  0.87499994090E+02 0.  0.
          5    1    5    5  501    0 -0.77254661964E+02  0.47370549960E+02 -0.11157235623E+03  0.14381492438E+03  0.47000000000E+01 0. -1.
        -11    1    6    6    0    0 -0.47282673939E+02  0.60147700652E+02  0.18587628367E+02  0.78733074860E+02  0.00000000000E+00 0.  1.
         12    1    6    6    0    0 -0.65156577957E+02 -0.19318059455E+02 -0.14679623754E+02  0.69527393348E+02  0.00000000000E+00 0. -1.
         -5    1    3    3    0  503  0.57105000061E+02 -0.63647415028E+02 -0.29720476331E+03  0.30929716424E+03  0.47000000000E+01 0.  1.
         11    1    4    4    0    0  0.11964153947E+03 -0.42672231555E+02 -0.10171359955E+04  0.10250369021E+04  0.00000000000E+00 0. -1.
        -12    1    4    4    0    0  0.12947374333E+02  0.18119455426E+02 -0.46251664588E+03  0.46305247747E+03  0.00000000000E+00 0.  1.
</event>
<event>
12    1  0.8344842E-002  0.1857775E+03  0.7818608E-02  0.1162787E+00
         21   -1    0    0  501  502  0.00000000000E+00  0.00000000000E+00  0.23648709731E+03  0.23648709731E+03  0.00000000000E+00 0.  1.
         21   -1    0    0  502  503 -0.00000000000E+00 -0.00000000000E+00 -0.14819248247E+03  0.14819248247E+03  0.00000000000E+00 0. -1.
         -6    2    1    2    0  503 -0.65831390921E+02  0.21259484344E+02  0.75168910654E+02  0.20040871135E+03  0.17241678791E+03 0.  0.
        -24    2    3    3    0    0 -0.67875924078E+02  0.56088590116E+02  0.33717761766E+01  0.12044518689E+03  0.82113355554E+02 0.  0.
          6    2    1    2  501    0  0.65831390921E+02 -0.21259484344E+02  0.13125704180E+02  0.18427086843E+03  0.17028720192E+03 0.  0.
         24    2    5    5    0    0  0.82460387394E+02  0.32114198330E+02 -0.17400574753E+02  0.12040211839E+03  0.79767492677E+02 0.  0.
          5    1    5    5  501    0 -0.16628996473E+02 -0.53373682674E+02  0.30526278933E+02  0.63868750037E+02  0.47000000000E+01 0. -1.
        -13    1    6    6    0    0  0.38029905961E+02  0.40014046033E+02  0.23028029089E+02  0.59813775597E+02  0.00000000000E+00 0.  1.
         14    1    6    6    0    0  0.44430481433E+02 -0.78998477033E+01 -0.40428603842E+02  0.60588342796E+02  0.00000000000E+00 0. -1.
         -5    1    3    3    0  503  0.20445331572E+01 -0.34829105772E+02  0.71797134478E+02  0.79963524459E+02  0.47000000000E+01 0.  1.
         13    1    4    4    0    0 -0.86751743821E+02  0.41628156219E+02 -0.12076396233E+01  0.96230072429E+02  0.00000000000E+00 0. -1.
        -14    1    4    4    0    0  0.18875819743E+02  0.14460433897E+02  0.45794157999E+01  0.24215114465E+02  0.00000000000E+00 0.  1.
</event>
<event>
12    1  0.8344842E-002  0.2090909E+03  0.7818608E-02  0.1142527E+00
         21   -1    0    0  501  502  0.00000000000E+00  0.00000000000E+00  0.17663566003E+03  0.17663566003E+03  0.00000000000E+00 0.  1.
         21   -1    0    0  502  503 -0.00000000000E+00 -0.00000000000E+00 -0.25658397191E+03  0.25658397191E+03  0.00000000000E+00 0. -1.
         -6    2    1    2    0  503 -0.26737112682E+02  0.11338467782E+03 -0.83661450149E+02  0.22409572112E+03  0.17218796597E+03 0.  0.
        -24    2    3    3    0    0 -0.44571861952E+02  0.41361367095E+02 -0.10708859726E+03  0.14614473144E+03  0.78694989037E+02 0.  0.
          6    2    1    2  501    0  0.26737112682E+02 -0.11338467782E+03  0.37131382745E+01  0.20912391082E+03  0.17363197954E+03 0.  0.
         24    2    5    5    0    0 -0.39097227600E+02 -0.42241693745E+02  0.38675057441E+02  0.10597396978E+03  0.80135936425E+02 0.  0.
          5    1    5    5  501    0  0.65834340283E+02 -0.71142984076E+02 -0.34961919167E+02  0.10314994103E+03  0.47000000000E+01 0. -1.
        -13    1    6    6    0    0 -0.40117789559E+02 -0.59615216832E+02  0.47819765962E+02  0.86314200070E+02  0.00000000000E+00 0.  1.
         14    1    6    6    0    0  0.10205619585E+01  0.17373523087E+02 -0.91447085212E+01  0.19659769711E+02  0.00000000000E+00 0. -1.
         -5    1    3    3    0  503  0.17834749269E+02  0.72023310727E+02  0.23427147114E+02  0.77950989676E+02  0.47000000000E+01 0.  1.
         11    1    4    4    0    0  0.19048919646E+02  0.12677550538E+02 -0.53395482900E+02  0.58091817164E+02  0.00000000000E+00 0. -1.
        -12    1    4    4    0    0 -0.63620781598E+02  0.28683816557E+02 -0.53693114363E+02  0.88052914281E+02  0.00000000000E+00 0.  1.
</event>
<event>
12    1  0.8344842E-002  0.2158363E+03  0.7818608E-02  0.1137225E+00
         21   -1    0    0  503  502  0.00000000000E+00  0.00000000000E+00  0.10481119658E+04  0.10481119658E+04  0.00000000000E+00 0.  1.
         21   -1    0    0  501  503 -0.00000000000E+00 -0.00000000000E+00 -0.44938990569E+02  0.44938990569E+02  0.00000000000E+00 0. -1.
          6    2    1    2  501    0  0.12855520989E+03  0.95537876764E+01  0.56890295710E+03  0.60810171979E+03  0.17181213625E+03 0.  0.
         24    2    3    3    0    0  0.69310773752E+02  0.19120698051E+02  0.51186313914E+03  0.52517367978E+03  0.92918976887E+02 0.  0.
         -6    2    1    2    0  502 -0.12855520989E+03 -0.95537876764E+01  0.43427001816E+03  0.48494923661E+03  0.17311151484E+03 0.  0.
        -24    2    5    5    0    0 -0.13920203281E+03  0.12028466835E+02  0.43194971105E+03  0.46031953151E+03  0.76102748074E+02 0.  0.
          5    1    3    3  501    0  0.59244436136E+02 -0.95669103743E+01  0.57039817959E+02  0.82928040011E+02  0.47000000000E+01 0. -1.
        -11    1    4    4    0    0  0.92200910262E+02  0.15787217654E+02  0.38354708920E+03  0.39478932828E+03  0.00000000000E+00 0.  1.
         12    1    4    4    0    0 -0.22890136510E+02  0.33334803965E+01  0.12831604994E+03  0.13038435149E+03  0.00000000000E+00 0. -1.
         -5    1    5    5    0  502  0.10646822920E+02 -0.21582254512E+02  0.23203071082E+01  0.24629705097E+02  0.47000000000E+01 0.  1.
         11    1    6    6    0    0 -0.42268304741E+02  0.30520664308E+02  0.22617561020E+03  0.23210671508E+03  0.00000000000E+00 0. -1.
        -12    1    6    6    0    0 -0.96933728068E+02 -0.18492197473E+02  0.20577410085E+03  0.22821281644E+03  0.00000000000E+00 0.  1.
</event>
<event>
12    1  0.8344842E-002  0.1787180E+03  0.7818608E-02  0.1169181E+00
         21   -1    0    0  503  502  0.00000000000E+00  0.00000000000E+00  0.15484955124E+04  0.15484955124E+04  0.00000000000E+00 0. -1.
         21   -1    0    0  501  503 -0.00000000000E+00 -0.00000000000E+00 -0.92440793801E+02  0.92440793801E+02  0.00000000000E+00 0. -1.
          6    2    1    2  501    0  0.93109007735E+01 -0.47066260018E+02  0.47981575583E+01  0.17878240861E+03  0.17215749071E+03 0.  0.
         24    2    3    3    0    0  0.37327597219E+02 -0.90346206437E+02 -0.54279791756E+01  0.12601165048E+03  0.79332758470E+02 0.  0.
         -6    2    1    2    0  502 -0.93109007735E+01  0.47066260018E+02  0.14512565610E+04  0.14621538976E+04  0.17159979185E+03 0.  0.
        -24    2    5    5    0    0  0.40073173460E+02 -0.20446831599E+02  0.50395734566E+03  0.51115721106E+03  0.72696327413E+02 0.  0.
          5    1    3    3  501    0 -0.28016696445E+02  0.43279946419E+02  0.10226136734E+02  0.52770758136E+02  0.47000000000E+01 0. -1.
        -11    1    4    4    0    0 -0.56444363496E+01  0.11907893773E+02 -0.73287741243E+01  0.15078744178E+02  0.00000000000E+00 0.  1.
         12    1    4    4    0    0  0.42972033568E+02 -0.10225410021E+03  0.19007949487E+01  0.11093290630E+03  0.00000000000E+00 0. -1.
         -5    1    5    5    0  502 -0.49384074233E+02  0.67513091617E+02  0.94729921535E+03  0.95099668650E+03  0.47000000000E+01 0.  1.
         11    1    6    6    0    0 -0.19040180515E+02  0.64538613571E+01  0.14254359552E+03  0.14395435882E+03  0.00000000000E+00 0. -1.
        -12    1    6    6    0    0  0.59113353975E+02 -0.26900692956E+02  0.36141375015E+03  0.36720285224E+03  0.00000000000E+00 0.  1.
</event>
<event>
12    1  0.8344842E-002  0.2317709E+03  0.7818608E-02  0.1125890E+00
         21   -1    0    0  503  502  0.00000000000E+00  0.00000000000E+00  0.10472061758E+04  0.10472061758E+04  0.00000000000E+00 0. -1.
         21   -1    0    0  501  503 -0.00000000000E+00 -0.00000000000E+00 -0.61635310469E+02  0.61635310469E+02  0.00000000000E+00 0. -1.
          6    2    1    2  501    0 -0.48452946329E+02  0.14391416544E+03  0.25657083328E+03  0.34388474276E+03  0.17137429443E+03 0.  0.
         24    2    3    3    0    0 -0.73936811409E+02  0.10055660231E+03  0.25287006974E+03  0.29323801225E+03  0.80417518676E+02 0.  0.
         -6    2    1    2    0  502  0.48452946329E+02 -0.14391416544E+03  0.72900003202E+03  0.76495674348E+03  0.17509653818E+03 0.  0.
        -24    2    5    5    0    0 -0.51069380420E+01 -0.15949143358E+03  0.54682800915E+03  0.57437854847E+03  0.73663065002E+02 0.  0.
          5    1    3    3  501    0  0.25483865080E+02  0.43357563134E+02  0.37007635393E+01  0.50646730508E+02  0.47000000000E+01 0. -1.
        -13    1    4    4    0    0  0.11806984939E+02  0.10591652846E+02  0.72382531188E+02  0.74100059544E+02  0.00000000000E+00 0.  1.
         14    1    4    4    0    0 -0.85743796348E+02  0.89964949465E+02  0.18048753855E+03  0.21913795271E+03  0.00000000000E+00 0. -1.
         -5    1    5    5    0  502  0.53559884371E+02  0.15577268140E+02  0.18217202287E+03  0.19057819501E+03  0.47000000000E+01 0.  1.
         11    1    6    6    0    0  0.84419061410E+01 -0.71870511375E+02  0.13559837358E+03  0.15369956117E+03  0.00000000000E+00 0. -1.
        -12    1    6    6    0    0 -0.13548844183E+02 -0.87620922209E+02  0.41122963556E+03  0.42067898730E+03  0.00000000000E+00 0.  1.
</event>
<event>
12    1  0.8344842E-002  0.2033698E+03  0.7818608E-02  0.1147818E+00
         21   -1    0    0  501  502  0.00000000000E+00  0.00000000000E+00  0.10273375765E+04  0.10273375765E+04  0.00000000000E+00 0.  1.
         21   -1    0    0  502  503 -0.00000000000E+00 -0.00000000000E+00 -0.10789032257E+03  0.10789032257E+03  0.00000000000E+00 0.  1.
         -6    2    1    2    0  503 -0.18450664877E+02 -0.10756283290E+03  0.57599960086E+01  0.19918105369E+03  0.16652244455E+03 0.  0.
        -24    2    3    3    0    0  0.28331180596E+02 -0.14489711423E+02  0.33790147301E+02  0.91204545182E+02  0.78510429091E+02 0.  0.
          6    2    1    2  501    0  0.18450664877E+02  0.10756283290E+03  0.91368725789E+03  0.93604684536E+03  0.17160740490E+03 0.  0.
         24    2    5    5    0    0  0.22082381490E+02  0.12162865096E+03  0.47729680902E+03  0.49938937036E+03  0.79349474004E+02 0.  0.
          5    1    5    5  501    0 -0.36317166134E+01 -0.14065818060E+02  0.43639044887E+03  0.43665747500E+03  0.47000000000E+01 0. -1.
        -13    1    6    6    0    0  0.39631523791E+02  0.56782516850E+02  0.33433176259E+03  0.34142735592E+03  0.00000000000E+00 0.  1.
         14    1    6    6    0    0 -0.17549142301E+02  0.64846134111E+02  0.14296504643E+03  0.15796201444E+03  0.00000000000E+00 0. -1.
         -5    1    3    3    0  503 -0.46781845473E+02 -0.93073121478E+02 -0.28030151293E+02  0.10797650851E+03  0.47000000000E+01 0.  1.
         11    1    4    4    0    0 -0.61819915098E+01  0.26020956989E+02 -0.23899889040E+01  0.26851801962E+02  0.00000000000E+00 0. -1.
        -12    1    4    4    0    0  0.34513172106E+02 -0.40510668412E+02  0.36180136205E+02  0.64352743220E+02  0.00000000000E+00 0.  1.
</event>
<event>
12    1  0.8344842E-002  0.1839288E+03  0.7818608E-02  0.1165172E+00
         21   -1    0    0  501  502  0.00000000000E+00  0.00000000000E+00  0.14556168276E+03  0.14556168276E+03  0.00000000000E+00 0.  1.
         21   -1    0    0  502  503 -0.00000000000E+00 -0.00000000000E+00 -0.30105260864E+03  0.30105260864E+03  0.00000000000E+00 0.  1.
         -6    2    1    2    0  503  0.48367516001E+02  0.44137539076E+02 -0.18959947727E+03  0.26415479733E+03  0.17187860893E+03 0.  0.
        -24    2    3    3    0    0  0.43858867903E+01  0.88503713380E+02 -0.14008203196E+03  0.18429987562E+03  0.80568760631E+02 0.  0.
          6    2    1    2  501    0 -0.48367516001E+02 -0.44137539076E+02  0.34108551397E+02  0.18245949407E+03  0.16685483133E+03 0.  0.
         24    2    5    5    0    0 -0.89240966481E+02 -0.61710197452E+02  0.23028317530E+02  0.13636937735E+03  0.79336026517E+02 0.  0.
          5    1    5    5  501    0  0.40873450481E+02  0.17572658377E+02  0.11080233867E+02  0.46090116719E+02  0.47000000000E+01 0. -1.
        -11    1    6    6    0    0 -0.85753603165E+02 -0.79046794720E+02  0.21756043382E+02  0.11863979785E+03  0.00000000000E+00 0.  1.
         12    1    6    6    0    0 -0.34873633160E+01  0.17336597268E+02  0.12722741478E+01  0.17729579499E+02  0.00000000000E+00 0. -1.
         -5    1    3    3    0  503  0.43981629210E+02 -0.44366174305E+02 -0.49517445313E+02  0.79854921706E+02  0.47000000000E+01 0.  1.
         11    1    4    4    0    0  0.23021378592E+01 -0.12992623826E+02 -0.38450832379E+02  0.40651871092E+02  0.00000000000E+00 0. -1.
        -12    1    4    4    0    0  0.20837489311E+01  0.10149633721E+03 -0.10163119958E+03  0.14364800453E+03  0.00000000000E+00 0.  1.
</event>
<event>
12    1  0.8344842E-002  0.2096182E+03  0.7818608E-02  0.1142045E+00
         21   -1    0    0  503  502  0.00000000000E+00  0.00000000000E+00  0.17165837265E+03  0.17165837265E+03  0.00000000000E+00 0.  1.
         21   -1    0    0  501  503 -0.00000000000E+00 -0.00000000000E+00 -0.32774183173E+03  0.32774183173E+03  0.00000000000E+00 0. -1.
          6    2    1    2  501    0 -0.75754946610E+02 -0.90623403753E+02 -0.19563777398E+03  0.28608275980E+03  0.17209820919E+03 0.  0.
         24    2    3    3    0    0 -0.78909847053E+02 -0.60032182452E+01 -0.15670694233E+03  0.19276486846E+03  0.79614233310E+02 0.  0.
         -6    2    1    2    0  502  0.75754946610E+02  0.90623403753E+02  0.39554314897E+02  0.21331744459E+03  0.17317151930E+03 0.  0.
        -24    2    5    5    0    0 -0.76592625705E+01  0.47021820048E+02  0.67050409848E+02  0.11514843913E+03  0.80583433223E+02 0.  0.
          5    1    3    3  501    0  0.31549004430E+01 -0.84620185508E+02 -0.38930831647E+02  0.93317891344E+02  0.47000000000E+01 0. -1.
        -11    1    4    4    0    0 -0.19578663472E+01  0.19111837104E+02 -0.76256236504E+02  0.78639107090E+02  0.00000000000E+00 0.  1.
         12    1    4    4    0    0 -0.76951980706E+02 -0.25115055349E+02 -0.80450705825E+02  0.11412576137E+03  0.00000000000E+00 0. -1.
         -5    1    5    5    0  502  0.83414209180E+02  0.43601583705E+02 -0.27496094952E+02  0.98169005457E+02  0.47000000000E+01 0.  1.
         13    1    6    6    0    0  0.31268597389E+02  0.63454031230E+01  0.43906348453E+02  0.54274826189E+02  0.00000000000E+00 0. -1.
        -14    1    6    6    0    0 -0.38927859959E+02  0.40676416925E+02  0.23144061396E+02  0.60873612943E+02  0.00000000000E+00 0.  1.
</event>
<event>
12    1  0.8344842E-002  0.2232209E+03  0.7818608E-02  0.1132191E+00
         21   -1    0    0  503  502  0.00000000000E+00  0.00000000000E+00  0.84762513499E+02  0.84762513499E+02  0.00000000000E+00 0.  1.
         21   -1    0    0  501  503 -0.00000000000E+00 -0.00000000000E+00 -0.83365232362E+03  0.83365232362E+03  0.00000000000E+00 0.  1.
          6    2    1    2  501    0 -0.31545374692E+02  0.13946591951E+03 -0.63087236368E+03  0.66919915526E+03  0.17141095871E+03 0.  0.
         24    2    3    3    0    0 -0.62200703234E+02  0.10033454134E+03 -0.33728589566E+03  0.37139700931E+03  0.10118307883E+03 0.  0.
         -6    2    1    2    0  502  0.31545374692E+02 -0.13946591951E+03 -0.11801744644E+03  0.24921568186E+03  0.16653673785E+03 0.  0.
        -24    2    5    5    0    0  0.24330629858E+02 -0.54187161310E+02 -0.12929172857E+03  0.16276501049E+03  0.79043466293E+02 0.  0.
          5    1    3    3  501    0  0.30655328542E+02  0.39131378172E+02 -0.29358646802E+03  0.29780214595E+03  0.47000000000E+01 0. -1.
        -11    1    4    4    0    0  0.10653937108E+02  0.71790319714E+02 -0.20775272677E+03  0.22006488102E+03  0.00000000000E+00 0.  1.
         12    1    4    4    0    0 -0.72854640342E+02  0.28544221626E+02 -0.12953316889E+03  0.15133212829E+03  0.00000000000E+00 0. -1.
         -5    1    5    5    0  502  0.72147448344E+01 -0.85278758201E+02  0.11274282130E+02  0.86450671373E+02  0.47000000000E+01 0.  1.
         11    1    6    6    0    0 -0.37123782714E+01  0.12696186592E+01  0.97271250575E+01  0.10488595991E+02  0.00000000000E+00 0. -1.
        -12    1    6    6    0    0  0.28043008129E+02 -0.55456779969E+02 -0.13901885363E+03  0.15227641450E+03  0.00000000000E+00 0.  1.
</event>
<event>
12    1  0.8344842E-002  0.1884723E+03  0.7818608E-02  0.1160439E+00
         21   -1    0    0  503  502  0.00000000000E+00  0.00000000000E+00  0.50048066250E+03  0.50048066250E+03  0.00000000000E+00 0.  1.
         21   -1    0    0  501  503 -0.00000000000E+00 -0.00000000000E+00 -0.79707893137E+02  0.79707893137E+02  0.00000000000E+00 0.  1.
          6    2    1    2  501    0 -0.60550128622E+02 -0.45161224738E+02  0.11045877926E+03  0.21845580196E+03  0.17267293128E+03 0.  0.
         24    2    3    3    0    0 -0.96594382879E+02 -0.36752947363E+02  0.37075534066E+02  0.13613279139E+03  0.80475385818E+02 0.  0.
         -6    2    1    2    0  502  0.60550128622E+02  0.45161224738E+02  0.31031399010E+03  0.36173275368E+03  0.16985275486E+03 0.  0.
        -24    2    5    5    0    0  0.35264382091E+02 -0.40865842422E+02  0.15029354404E+03  0.17824254027E+03  0.79174870114E+02 0.  0.
          5    1    3    3  501    0  0.36044254257E+02 -0.84082773754E+01  0.73383245198E+02  0.82323010569E+02  0.47000000000E+01 0. -1.
        -13    1    4    4    0    0 -0.50314046510E+02 -0.56721044165E+02  0.39844314026E+02  0.85652492594E+02  0.00000000000E+00 0.  1.
         14    1    4    4    0    0 -0.46280336370E+02  0.19968096802E+02 -0.27687799600E+01  0.50480298799E+02  0.00000000000E+00 0. -1.
         -5    1    5    5    0  502  0.25285746531E+02  0.86027067161E+02  0.16002044605E+03  0.18349021341E+03  0.47000000000E+01 0.  1.
         13    1    6    6    0    0  0.35672572195E+02 -0.16936913763E+02  0.14914321480E+03  0.15428250055E+03  0.00000000000E+00 0. -1.
        -14    1    6    6    0    0 -0.40819010456E+00 -0.23928928659E+02  0.11503292473E+01  0.23960039719E+02  0.00000000000E+00 0.  1.
</event>
<event>
12    1  0.8344842E-002  0.2987960E+03  0.7818608E-02  0.1086601E+00
         21   -1    0    0  501  502  0.00000000000E+00  0.00000000000E+00  0.27092680906E+03  0.27092680906E+03  0.00000000000E+00 0.  1.
         21   -1    0    0  502  503 -0.00000000000E+00 -0.00000000000E+00 -0.39549034771E+03  0.39549034771E+03  0.00000000000E+00 0.  1.
         -6    2    1    2    0  503 -0.21501217790E+03 -0.10740829197E+03 -0.20545550319E+03  0.36261690028E+03  0.17751697031E+03 0.  0.
        -24    2    3    3    0    0 -0.18944505383E+03 -0.21848146227E+02 -0.12308769364E+03  0.24104074134E+03  0.81137468202E+02 0.  0.
          6    2    1    2  501    0  0.21501217790E+03  0.10740829197E+03  0.80891964540E+02  0.30380025648E+03  0.16728511016E+03 0.  0.
         24    2    5    5    0    0  0.10989104826E+03 -0.15007267572E+01  0.47758163940E+02  0.14877908051E+03  0.88182072475E+02 0.  0.
          5    1    5    5  501    0  0.10512112965E+03  0.10890901873E+03  0.33133800599E+02  0.15502117598E+03  0.47000000000E+01 0. -1.
        -11    1    6    6    0    0  0.90907697884E+02 -0.17809298805E+02 -0.24620056780E+01  0.92668452725E+02  0.00000000000E+00 0.  1.
         12    1    6    6    0    0  0.18983350372E+02  0.16308572048E+02  0.50220169618E+02  0.56110627782E+02  0.00000000000E+00 0. -1.
         -5    1    3    3    0  503 -0.25567124072E+02 -0.85560145744E+02 -0.82367809549E+02  0.12157615894E+03  0.47000000000E+01 0.  1.
         11    1    4    4    0    0 -0.74303662108E+02 -0.10824104696E+02 -0.42545737582E+01  0.75208356205E+02  0.00000000000E+00 0. -1.
        -12    1    4    4    0    0 -0.11514139172E+03 -0.11024041530E+02 -0.11883311988E+03  0.16583238514E+03  0.00000000000E+00 0.  1.
</event>
<event>
12    1  0.8344842E-002  0.2282022E+03  0.7818608E-02  0.1128022E+00
         21   -1    0    0  501  502  0.00000000000E+00  0.00000000000E+00  0.17052071716E+03  0.17052071716E+03  0.00000000000E+00 0.  1.
         21   -1    0    0  502  503 -0.00000000000E+00 -0.00000000000E+00 -0.37123485287E+03  0.37123485287E+03  0.00000000000E+00 0.  1.
         -6    2    1    2    0  503  0.14932211997E+03 -0.81778501090E+00 -0.21525967071E+03  0.31370838237E+03  0.17256436206E+03 0.  0.
        -24    2    3    3    0    0  0.99725184043E+02  0.61477075717E+02 -0.10497919806E+03  0.17760409011E+03  0.82450213011E+02 0.  0.
          6    2    1    2  501    0 -0.14932211997E+03  0.81778501090E+00  0.14545534992E+02  0.22804718766E+03  0.17174452808E+03 0.  0.
         24    2    5    5    0    0 -0.54412391208E+02  0.61072868089E+02 -0.68922656018E-01  0.11458263803E+03  0.80240716933E+02 0.  0.
          5    1    5    5  501    0 -0.94909728763E+02 -0.60255083078E+02  0.14614457648E+02  0.11346454963E+03  0.47000000000E+01 0. -1.
        -11    1    6    6    0    0 -0.56953923655E+02  0.45624460521E+01 -0.71161183030E+01  0.57577812336E+02  0.00000000000E+00 0.  1.
         12    1    6    6    0    0  0.25415324465E+01  0.56510422036E+02  0.70471956470E+01  0.57004825694E+02  0.00000000000E+00 0. -1.
         -5    1    3    3    0  503  0.49596935928E+02 -0.62294860727E+02 -0.11028047264E+03  0.13610429227E+03  0.47000000000E+01 0.  1.
         11    1    4    4    0    0  0.19139685043E+02  0.59339261291E+02 -0.51447069559E+02  0.80834871438E+02  0.00000000000E+00 0. -1.
        -12    1    4    4    0    0  0.80585499000E+02  0.21378144253E+01 -0.53532128503E+02  0.96769218669E+02  0.00000000000E+00 0.  1.
</event>
<event>
12    1  0.8344842E-002  0.2180011E+03  0.7818608E-02  0.1135525E+00
         21   -1    0    0  501  502  0.00000000000E+00  0.00000000000E+00  0.55231348663E+02  0.55231348663E+02  0.00000000000E+00 0. -1.
         21   -1    0    0  502  503 -0.00000000000E+00 -0.00000000000E+00 -0.85790306791E+03  0.85790306791E+03  0.00000000000E+00 0. -1.
         -6    2    1    2    0  503 -0.13096462042E+03 -0.22386515522E+02 -0.41072271302E+03  0.46463858702E+03  0.17188071934E+03 0.  0.
        -24    2    3    3    0    0 -0.11135818946E+03 -0.75879651375E+02 -0.31455521965E+03  0.35276274289E+03  0.85663286841E+02 0.  0.
          6    2    1    2  501    0  0.13096462042E+03  0.22386515522E+02 -0.39194900622E+03  0.44849582955E+03  0.17283401796E+03 0.  0.
         24    2    5    5    0    0  0.55714067997E+02 -0.45212155574E+02 -0.11952122328E+03  0.15785651202E+03  0.74061860553E+02 0.  0.
          5    1    5    5  501    0  0.75250552421E+02  0.67598671096E+02 -0.27242778294E+03  0.29063931753E+03  0.47000000000E+01 0. -1.
        -11    1    6    6    0    0  0.14090942447E+02  0.60047430087E+01 -0.78871123897E+02  0.80344668662E+02  0.00000000000E+00 0.  1.
         12    1    6    6    0    0  0.41623125549E+02 -0.51216898582E+02 -0.40650099382E+02  0.77511843358E+02  0.00000000000E+00 0. -1.
         -5    1    3    3    0  503 -0.19606430962E+02  0.53493135853E+02 -0.96167493373E+02  0.11187584413E+03  0.47000000000E+01 0.  1.
         11    1    4    4    0    0 -0.15530739562E+02  0.99870555500E+01 -0.10683836207E+03  0.10842223370E+03  0.00000000000E+00 0. -1.
        -12    1    4    4    0    0 -0.95827449894E+02 -0.85866706925E+02 -0.20771685758E+03  0.24434050920E+03  0.00000000000E+00 0.  1.
</event>
<event>
12    1  0.8344842E-002  0.2063063E+03  0.7818608E-02  0.1145831E+00
         21   -1    0    0  501  502  0.00000000000E+00  0.00000000000E+00  0.56076775763E+02  0.56076775763E+02  0.00000000000E+00 0. -1.
         21   -1    0    0  502  503 -0.00000000000E+00 -0.00000000000E+00 -0.76289913481E+03  0.76289913481E+03  0.00000000000E+00 0.  1.
         -6    2    1    2    0  503  0.13469992764E+02  0.10365144528E+03 -0.28164958883E+03  0.34912572035E+03  0.17786853265E+03 0.  0.
        -24    2    3    3    0    0 -0.25239945750E+02  0.24435184377E+02 -0.62908825222E+02  0.11323742688E+03  0.87355946903E+02 0.  0.
          6    2    1    2  501    0 -0.13469992764E+02 -0.10365144528E+03 -0.42517277022E+03  0.46985019022E+03  0.17047654943E+03 0.  0.
         24    2    5    5    0    0 -0.44478493223E+02 -0.12979992453E+03 -0.34046914964E+03  0.37581794359E+03  0.80582430464E+02 0.  0.
          5    1    5    5  501    0  0.31008500458E+02  0.26148479255E+02 -0.84703620577E+02  0.94032246633E+02  0.47000000000E+01 0. -1.
        -11    1    6    6    0    0 -0.66989610973E+02 -0.92979007977E+02 -0.26797099934E+03  0.29144666817E+03  0.00000000000E+00 0.  1.
         12    1    6    6    0    0  0.22511117750E+02 -0.36820916557E+02 -0.72498150304E+02  0.84371275420E+02  0.00000000000E+00 0. -1.
         -5    1    3    3    0  503  0.38709938514E+02  0.79216260902E+02 -0.21874076361E+03  0.23588829347E+03  0.47000000000E+01 0.  1.
         11    1    4    4    0    0 -0.40694480281E+02  0.40603166498E+02 -0.69238940334E+02  0.89992714781E+02  0.00000000000E+00 0. -1.
        -12    1    4    4    0    0  0.15454534531E+02 -0.16167982120E+02  0.63301151114E+01  0.23244712103E+02  0.00000000000E+00 0.  1.
</event>
<event>
12    1  0.8344842E-002  0.2185603E+03  0.7818608E-02  0.1136117E+00
         21   -1    0    0  501  502  0.00000000000E+00  0.00000000000E+00  0.15427902777E+03  0.15427902777E+03  0.00000000000E+00 0. -1.
         21   -1    0    0  502  503 -0.00000000000E+00 -0.00000000000E+00 -0.30977724495E+03  0.30977724495E+03  0.00000000000E+00 0.  1.
         -6    2    1    2    0  503  0.39070707310E+02 -0.11775574371E+03 -0.11763359690E+03  0.24820611395E+03  0.17993242214E+03 0.  0.
        -24    2    3    3    0    0  0.66175209802E+02 -0.14091880217E+03 -0.11942527233E+03  0.21219942800E+03  0.80801821611E+02 0.  0.
          6    2    1    2  501    0 -0.39070707310E+02  0.11775574371E+03 -0.37864620275E+02  0.21585015877E+03  0.17252427721E+03 0.  0.
         24    2    5    5    0    0 -0.88445839927E+02  0.66065332519E+02  0.86855611478E+00  0.13441213766E+03  0.76671856632E+02 0.  0.
          5    1    5    5  501    0  0.49375132616E+02  0.51690411188E+02 -0.38733176389E+02  0.81438021113E+02  0.47000000000E+01 0. -1.
        -11    1    6    6    0    0 -0.53689102278E+02 -0.33171134263E+01  0.14293655709E+02  0.55658166862E+02  0.00000000000E+00 0.  1.
         12    1    6    6    0    0 -0.34756737649E+02  0.69382445945E+02 -0.13425099594E+02  0.78753970798E+02  0.00000000000E+00 0. -1.
         -5    1    3    3    0  503 -0.27104502491E+02  0.23163058461E+02  0.17916754272E+01  0.36006685954E+02  0.47000000000E+01 0.  1.
         13    1    4    4    0    0  0.20143344255E+02 -0.70248054243E+02 -0.95710900267E+01  0.73703115314E+02  0.00000000000E+00 0. -1.
        -14    1    4    4    0    0  0.46031865547E+02 -0.70670747925E+02 -0.10985418230E+03  0.13849631269E+03  0.00000000000E+00 0.  1.
</event>
<event>
12    1  0.8344842E-002  0.1933956E+03  0.7818608E-02  0.1155976E+00
         21   -1    0    0  503  502  0.00000000000E+00  0.00000000000E+00  0.11263988863E+03  0.11263988863E+03  0.00000000000E+00 0.  1.
         21   -1    0    0  501  503 -0.00000000000E+00 -0.00000000000E+00 -0.32813089278E+03  0.32813089278E+03  0.00000000000E+00 0.  1.
          6    2    1    2  501    0  0.45748225256E+02  0.75025038229E+02 -0.11468086461E+03  0.22484119267E+03  0.17227943795E+03 0.  0.
         24    2    3    3    0    0  0.24861913958E+02  0.10654547130E+02  0.97305577685E+01  0.83136957936E+02  0.78009203817E+02 0.  0.
         -6    2    1    2    0  502 -0.45748225256E+02 -0.75025038229E+02 -0.10081013954E+03  0.21592958874E+03  0.16953243520E+03 0.  0.
        -24    2    5    5    0    0 -0.78368472989E+01 -0.36893783362E+02  0.13848946582E+02  0.89201291951E+02  0.79639875301E+02 0.  0.
          5    1    3    3  501    0  0.20886311297E+02  0.64370491098E+02 -0.12441142237E+03  0.14170423473E+03  0.47000000000E+01 0. -1.
        -11    1    4    4    0    0 -0.25474664747E+02  0.43195021849E+01  0.18329889813E+02  0.31679670194E+02  0.00000000000E+00 0.  1.
         12    1    4    4    0    0  0.50336578705E+02  0.63350449453E+01 -0.85993320442E+01  0.51457287742E+02  0.00000000000E+00 0. -1.
         -5    1    5    5    0  502 -0.37911377957E+02 -0.38131254867E+02 -0.11465908612E+03  0.12672829679E+03  0.47000000000E+01 0.  1.
         11    1    6    6    0    0  0.10122339637E+02 -0.57148532726E+02 -0.15482369162E+01  0.58058708133E+02  0.00000000000E+00 0. -1.
        -12    1    6    6    0    0 -0.17959186936E+02  0.20254749364E+02  0.15397183498E+02  0.31142583818E+02  0.00000000000E+00 0.  1.
</event>
<event>
12    1  0.8344842E-002  0.2049280E+03  0.7818608E-02  0.1145952E+00
         21   -1    0    0  501  502  0.00000000000E+00  0.00000000000E+00  0.50729020053E+02  0.50729020053E+02  0.00000000000E+00 0.  1.
         21   -1    0    0  502  503 -0.00000000000E+00 -0.00000000000E+00 -0.88595680899E+03  0.88595680899E+03  0.00000000000E+00 0. -1.
         -6    2    1    2    0  503  0.84954894214E+02  0.70561939208E+02 -0.54219309135E+03  0.57910394373E+03  0.17085581061E+03 0.  0.
        -24    2    3    3    0    0  0.30910557979E+02  0.94741440417E+01 -0.44089679989E+03  0.44896733220E+03  0.78335529793E+02 0.  0.
          6    2    1    2  501    0 -0.84954894214E+02 -0.70561939208E+02 -0.29303469758E+03  0.35758188531E+03  0.17262430130E+03 0.  0.
         24    2    5    5    0    0 -0.64125705904E+02 -0.11387574015E+03 -0.24921714268E+03  0.29237445816E+03  0.79333783649E+02 0.  0.
          5    1    5    5  501    0 -0.20829188311E+02  0.43313800941E+02 -0.43817554901E+02  0.65207427147E+02  0.47000000000E+01 0. -1.
        -11    1    6    6    0    0  0.13033858362E+02  0.21472487742E+01 -0.16549154966E+02  0.21174670509E+02  0.00000000000E+00 0.  1.
         12    1    6    6    0    0 -0.77159564265E+02 -0.11602298892E+03 -0.23266798772E+03  0.27119978766E+03  0.00000000000E+00 0. -1.
         -5    1    3    3    0  503  0.54044336235E+02  0.61087795166E+02 -0.10129629146E+03  0.13013661153E+03  0.47000000000E+01 0.  1.
         11    1    4    4    0    0  0.25512554896E+02  0.18237242690E+02 -0.43674460397E+03  0.43786908611E+03  0.00000000000E+00 0. -1.
        -12    1    4    4    0    0  0.53980030836E+01 -0.87630986486E+01 -0.41521959236E+01  0.11098246087E+02  0.00000000000E+00 0.  1.
</event>
<event>
12    1  0.8344842E-002  0.1759448E+03  0.7818608E-02  0.1171866E+00
         21   -1    0    0  503  502  0.00000000000E+00  0.00000000000E+00  0.28217725425E+03  0.28217725425E+03  0.00000000000E+00 0. -1.
         21   -1    0    0  501  503 -0.00000000000E+00 -0.00000000000E+00 -0.33554966496E+03  0.33554966496E+03  0.00000000000E+00 0. -1.
          6    2    1    2  501    0  0.33584029365E+02 -0.40932816131E+01 -0.28018181201E+03  0.33067453226E+03  0.17233443220E+03 0.  0.
         24    2    3    3    0    0  0.52981912222E+02  0.19492079358E+02 -0.70843418268E+02  0.11906829368E+03  0.77275121915E+02 0.  0.
         -6    2    1    2    0  502 -0.33584029365E+02  0.40932816131E+01  0.22680940130E+03  0.28705238695E+03  0.17266130532E+03 0.  0.
        -24    2    5    5    0    0  0.40117467741E+02 -0.10746670159E+02  0.17294131152E+03  0.19444571364E+03  0.78584579833E+02 0.  0.
          5    1    3    3  501    0 -0.19397882858E+02 -0.23585360972E+02 -0.20933839374E+03  0.21160623858E+03  0.47000000000E+01 0. -1.
        -13    1    4    4    0    0  0.99982806419E+00 -0.26179616996E+02 -0.15311380872E+02  0.30344857660E+02  0.00000000000E+00 0.  1.
         14    1    4    4    0    0  0.51982084158E+02  0.45671696355E+02 -0.55532037396E+02  0.88723436018E+02  0.00000000000E+00 0. -1.
         -5    1    5    5    0  502 -0.73701497106E+02  0.14839951772E+02  0.53868089784E+02  0.92606673308E+02  0.47000000000E+01 0.  1.
         13    1    6    6    0    0  0.57922050716E+02 -0.24432106650E+02  0.99929761531E+02  0.11805866776E+03  0.00000000000E+00 0. -1.
        -14    1    6    6    0    0 -0.17804582974E+02  0.13685436491E+02  0.73011549988E+02  0.76387045881E+02  0.00000000000E+00 0.  1.
</event>
<event>
12    1  0.8344842E-002  0.1835982E+03  0.7818608E-02  0.1165735E+00
         21   -1    0    0  501  502  0.00000000000E+00  0.00000000000E+00  0.39969862169E+02  0.39969862169E+02  0.00000000000E+00 0. -1.
         21   -1    0    0  502  503 -0.00000000000E+00 -0.00000000000E+00 -0.82834724158E+03  0.82834724158E+03  0.00000000000E+00 0. -1.
         -6    2    1    2    0  503  0.16361168783E+02  0.40416367163E+02 -0.33794432817E+03  0.38190347677E+03  0.17246079568E+03 0.  0.
        -24    2    3    3    0    0 -0.22619511984E+02 -0.62518763268E+01 -0.29729805264E+03  0.30861208479E+03  0.79401249972E+02 0.  0.
          6    2    1    2  501    0 -0.16361168783E+02 -0.40416367163E+02 -0.45043305124E+03  0.48641362698E+03  0.17834548574E+03 0.  0.
         24    2    5    5    0    0  0.87243852654E+01 -0.94507388512E+02 -0.30032490107E+03  0.32482875652E+03  0.79441258048E+02 0.  0.
          5    1    5    5  501    0 -0.25085554049E+02  0.54091021350E+02 -0.15010815017E+03  0.16158487046E+03  0.47000000000E+01 0. -1.
        -13    1    6    6    0    0 -0.61553640646E+01 -0.23686324299E+02 -0.11435130848E+02  0.27012824419E+02  0.00000000000E+00 0.  1.
         14    1    6    6    0    0  0.14879749330E+02 -0.70821064213E+02 -0.28888977022E+03  0.29781593210E+03  0.00000000000E+00 0. -1.
         -5    1    3    3    0  503  0.38980680768E+02  0.46668243489E+02 -0.40646275533E+02  0.73291391979E+02  0.47000000000E+01 0.  1.
         13    1    4    4    0    0 -0.32418493070E+02  0.10943794704E+02 -0.50370499835E+02  0.60892631648E+02  0.00000000000E+00 0. -1.
        -14    1    4    4    0    0  0.97989810853E+01 -0.17195671030E+02 -0.24692755280E+03  0.24771945314E+03  0.00000000000E+00 0.  1.
</event>
<event>
12    1  0.8344842E-002  0.2291591E+03  0.7818608E-02  0.1127249E+00
         21   -1    0    0  503  502  0.00000000000E+00  0.00000000000E+00  0.28167886651E+03  0.28167886651E+03  0.00000000000E+00 0.  1.
         21   -1    0    0  501  503 -0.00000000000E+00 -0.00000000000E+00 -0.18771388940E+03  0.18771388940E+03  0.00000000000E+00 0.  1.
          6    2    1    2  501    0  0.15138656158E+03 -0.53215151553E+01  0.66942645713E+02  0.23873674336E+03  0.17195262507E+03 0.  0.
         24    2    3    3    0    0  0.17275042948E+03  0.24999800071E+02  0.34496349578E+02  0.18923271179E+03  0.64430739467E+02 0.  0.
         -6    2    1    2    0  502 -0.15138656158E+03  0.53215151553E+01  0.27022331397E+02  0.23065601255E+03  0.17183067300E+03 0.  0.
        -24    2    5    5    0    0 -0.76092474353E+02  0.42988953860E+02  0.67551808821E+02  0.13709980458E+03  0.81209572923E+02 0.  0.
          5    1    3    3  501    0 -0.21363867905E+02 -0.30321315226E+02  0.32446296134E+02  0.49504031571E+02  0.47000000000E+01 0. -1.
        -11    1    4    4    0    0  0.11230212183E+03  0.42322870636E+02  0.38999501388E+02  0.12619014642E+03  0.00000000000E+00 0.  1.
         12    1    4    4    0    0  0.60448307656E+02 -0.17323070565E+02 -0.45031518101E+01  0.63042565370E+02  0.00000000000E+00 0. -1.
         -5    1    5    5    0  502 -0.75294087224E+02 -0.37667438705E+02 -0.40529477424E+02  0.93556207970E+02  0.47000000000E+01 0.  1.
         11    1    6    6    0    0  0.14516529591E+02  0.98026847502E+01 -0.27233493308E+01  0.17726784572E+02  0.00000000000E+00 0. -1.
        -12    1    6    6    0    0 -0.90609003944E+02  0.33186269110E+02  0.70275158152E+02  0.11937302001E+03  0.00000000000E+00 0.  1.
</event>
<event>
12    1  0.8344842E-002  0.2007723E+03  0.7818608E-02  0.1149413E+00
         21   -1    0    0  503  502  0.00000000000E+00  0.00000000000E+00  0.64433520457E+02  0.64433520457E+02  0.00000000000E+00 0.  1.
         21   -1    0    0  501  503 -0.00000000000E+00 -0.00000000000E+00 -0.62409944997E+03  0.62409944997E+03  0.00000000000E+00 0.  1.
          6    2    1    2  501    0  0.99604129666E+02  0.34289073061E+02 -0.25382175649E+03  0.32267755532E+03  0.16911119850E+03 0.  0.
         24    2    3    3    0    0  0.13610092061E+03  0.32787138149E+02 -0.20073096690E+03  0.25806336572E+03  0.81886034441E+02 0.  0.
         -6    2    1    2    0  502 -0.99604129666E+02 -0.34289073061E+02 -0.30584417302E+03  0.36585541511E+03  0.17091753397E+03 0.  0.
        -24    2    5    5    0    0 -0.38030216611E+02  0.53948821895E+01 -0.51873706632E+02  0.10148966304E+03  0.78319015151E+02 0.  0.
          5    1    3    3  501    0 -0.36496790940E+02  0.15019349122E+01 -0.53090789592E+02  0.64614189594E+02  0.47000000000E+01 0. -1.
        -11    1    4    4    0    0  0.33086518772E+02  0.46944421561E+02 -0.59671474378E+02  0.82820174442E+02  0.00000000000E+00 0.  1.
         12    1    4    4    0    0  0.10301440183E+03 -0.14157283412E+02 -0.14105949252E+03  0.17524319128E+03  0.00000000000E+00 0. -1.
         -5    1    5    5    0  502 -0.61573913055E+02 -0.39683955251E+02 -0.25397046639E+03  0.26436575207E+03  0.47000000000E+01 0.  1.
         11    1    6    6    0    0 -0.46235561579E+02  0.25019378031E+02 -0.59031385211E+02  0.79046827081E+02  0.00000000000E+00 0. -1.
        -12    1    6    6    0    0  0.82053449680E+01 -0.19624495842E+02  0.71576785793E+01  0.22442835956E+02  0.00000000000E+00 0.  1.
</event>
<event>
12    1  0.8344842E-002  0.1774548E+03  0.7818608E-02  0.1170412E+00
         21   -1    0    0  503  502  0.00000000000E+00  0.00000000000E+00  0.90892007120E+02  0.90892007120E+02  0.00000000000E+00 0. -1.
         21   -1    0    0  501  503 -0.00000000000E+00 -0.00000000000E+00 -0.79636601352E+03  0.79636601352E+03  0.00000000000E+00 0. -1.
          6    2    1    2  501    0  0.26864002052E+02  0.28722949520E+02 -0.68675685845E+03  0.70931318025E+03  0.17304196777E+03 0.  0.
         24    2    3    3    0    0 -0.35651905734E+01  0.10075194262E+02 -0.14017926693E+03  0.16155152762E+03  0.79589252259E+02 0.  0.
         -6    2    1    2    0  502 -0.26864002052E+02 -0.28722949520E+02 -0.18717147944E+02  0.17794484039E+03  0.17253217717E+03 0.  0.
        -24    2    5    5    0    0 -0.63335930073E+02 -0.40177612897E+02  0.32590585277E+02  0.11378890274E+03  0.79120714877E+02 0.  0.
          5    1    3    3  501    0  0.30429192626E+02  0.18647755258E+02 -0.54657759152E+03  0.54776165263E+03  0.47000000000E+01 0. -1.
        -11    1    4    4    0    0 -0.18923828865E+02 -0.26552675659E+02 -0.99465897408E+02  0.10467387750E+03  0.00000000000E+00 0.  1.
         12    1    4    4    0    0  0.15358638292E+02  0.36627869920E+02 -0.40713369522E+02  0.56877650118E+02  0.00000000000E+00 0. -1.
         -5    1    5    5    0  502  0.36471928020E+02  0.11454663377E+02 -0.51307733222E+02  0.64155937644E+02  0.47000000000E+01 0.  1.
         13    1    6    6    0    0 -0.15007652321E+02 -0.55208925448E+02  0.88765358336E+01  0.57896873540E+02  0.00000000000E+00 0. -1.
        -14    1    6    6    0    0 -0.48328277752E+02  0.15031312552E+02  0.23714049444E+02  0.55892029203E+02  0.00000000000E+00 0.  1.
</event>
