<event>
12    1  0.8461994E-002  0.1945212E+03  0.7818608E-02  0.1154565E+00
         21   -1    0    0  501  502  0.00000000000E+00  0.00000000000E+00  0.34741396193E+02  0.34741396193E+02  0.00000000000E+00 0.  1.
         21   -1    0    0  502  503 -0.00000000000E+00 -0.00000000000E+00 -0.15249178557E+04  0.15249178557E+04  0.00000000000E+00 0.  1.
         -6    2    1    2    0  503  0.26440596829E+02  0.86268780953E+02 -0.11626757482E+04  0.11787456032E+04  0.17171165896E+03 0.  0.
        -24    2    3    3    0    0 -0.10642482644E+02  0.10751435769E+02 -0.25334789487E+03  0.26552204947E+03  0.78025297878E+02 0.  0.
          6    2    1    2  501    0 -0.26440596829E+02 -0.86268780953E+02 -0.32750071131E+03  0.38091364873E+03  0.17232841944E+03 0.  0.
         24    2    5    5    0    0  0.41598964986E+02 -0.86594847349E+02 -0.23444638970E+03  0.26554170646E+03  0.79486770923E+02 0.  0.
          5    1    5    5  501    0 -0.68039561815E+02  0.32606639636E+00 -0.93054321614E+02  0.11537194227E+03  0.47000000000E+01 0. -1.
        -11    1    6    6    0    0 -0.12263790278E+02 -0.65828008593E+02 -0.12546624148E+03  0.14221640207E+03  0.00000000000E+00 0.  1.
         12    1    6    6    0    0  0.53862755264E+02 -0.20766838756E+02 -0.10898014823E+03  0.12332530439E+03  0.00000000000E+00 0. -1.
         -5    1    3    3    0  503  0.37083079473E+02  0.75517345183E+02 -0.90932785337E+03  0.91322355375E+03  0.47000000000E+01 0.  1.
         13    1    4    4    0    0 -0.90606927561E+00 -0.33405623286E+02 -0.12713420074E+03  0.13145288748E+03  0.00000000000E+00 0. -1.
        -14    1    4    4    0    0 -0.97364133685E+01  0.44157059056E+02 -0.12621369413E+03  0.13406916199E+03  0.00000000000E+00 0.  1.
</event>
<event>
12    1  0.8461994E-002  0.1798143E+03  0.7818608E-02  0.1169593E+00
         21   -1    0    0  503  502  0.00000000000E+00  0.00000000000E+00  0.87814607256E+02  0.87814607256E+02  0.00000000000E+00 0.  1.
         21   -1    0    0  501  503 -0.00000000000E+00 -0.00000000000E+00 -0.46173031645E+03  0.46173031645E+03  0.00000000000E+00 0.  1.
          6    2    1    2  501    0 -0.13711643235E+02 -0.16567486326E+02 -0.31640791545E+03  0.36075846704E+03  0.17195991341E+03 0.  0.
         24    2    3    3    0    0  0.43593852248E+02 -0.33818157180E+02 -0.26281340461E+03  0.28028507362E+03  0.80279170030E+02 0.  0.
         -6    2    1    2    0  502  0.13711643235E+02  0.16567486326E+02 -0.57507793752E+02  0.18878645667E+03  0.17852363742E+03 0.  0.
        -24    2    5    5    0    0  0.28548642208E+02 -0.46364450673E+02 -0.72360054486E+02  0.12227897677E+03  0.82167410921E+02 0.  0.
          5    1    3    3  501    0 -0.57305495483E+02  0.17250670855E+02 -0.53594510838E+02  0.80473393426E+02  0.47000000000E+01 0. -1.
        -11    1    4    4    0    0 -0.90185933292E+01 -0.29268644256E+02 -0.17620248319E+03  0.17884435592E+03  0.00000000000E+00 0.  1.
         12    1    4    4    0    0  0.52612445577E+02 -0.45495129244E+01 -0.86610921417E+02  0.10144071769E+03  0.00000000000E+00 0. -1.
         -5    1    5    5    0  502 -0.14836998973E+02  0.62931936999E+02  0.14852260735E+02  0.66507479895E+02  0.47000000000E+01 0.  1.
         13    1    6    6    0    0  0.53210816275E+02 -0.99302277211E+01 -0.45653857924E+02  0.70811546620E+02  0.00000000000E+00 0. -1.
        -14    1    6    6    0    0 -0.24662174067E+02 -0.36434222952E+02 -0.26706196562E+02  0.51467430154E+02  0.00000000000E+00 0.  1.
</event>
<event>
12    1  0.8461994E-002  0.2331134E+03  0.7818608E-02  0.1124760E+00
         21   -1    0    0  503  502  0.00000000000E+00  0.00000000000E+00  0.33175307071E+03  0.33175307071E+03  0.00000000000E+00 0. -1.
         21   -1    0    0  501  503 -0.00000000000E+00 -0.00000000000E+00 -0.60577267277E+03  0.60577267277E+03  0.00000000000E+00 0. -1.
          6    2    1    2  501    0 -0.77841780582E+02  0.13327773027E+03 -0.53807933024E+03  0.58640532070E+03  0.17469842106E+03 0.  0.
         24    2    3    3    0    0 -0.34384583139E+02  0.14724896030E+03 -0.49438195584E+03  0.52303913249E+03  0.79321245532E+02 0.  0.
         -6    2    1    2    0  502  0.77841780582E+02 -0.13327773027E+03  0.26405972818E+03  0.35112042278E+03  0.17244046816E+03 0.  0.
        -24    2    5    5    0    0  0.52017207556E+02  0.44871247603E+01  0.10576379381E+03  0.13963577395E+03  0.74741187544E+02 0.  0.
          5    1    3    3  501    0 -0.43457197443E+02 -0.13971230031E+02 -0.43697374405E+02  0.63366188209E+02  0.47000000000E+01 0. -1.
        -11    1    4    4    0    0 -0.11062498726E+02  0.42784865492E+01 -0.13558465199E+03  0.13610246942E+03  0.00000000000E+00 0.  1.
         12    1    4    4    0    0 -0.23322084413E+02  0.14297047375E+03 -0.35879730384E+03  0.38693666307E+03  0.00000000000E+00 0. -1.
         -5    1    5    5    0  502  0.25824573026E+02 -0.13776485503E+03  0.15829593437E+03  0.21148464883E+03  0.47000000000E+01 0.  1.
         11    1    6    6    0    0 -0.13212124197E+02 -0.93773376273E+01  0.50471747933E+02  0.53008414673E+02  0.00000000000E+00 0. -1.
        -12    1    6    6    0    0  0.65229331754E+02  0.13864462388E+02  0.55292045880E+02  0.86627359280E+02  0.00000000000E+00 0.  1.
</event>
<event>
12    1  0.8461994E-002  0.2211899E+03  0.7818608E-02  0.1133252E+00
         21   -1    0    0  503  502  0.00000000000E+00  0.00000000000E+00  0.41680984981E+03  0.41680984981E+03  0.00000000000E+00 0. -1.
         21   -1    0    0  501  503 -0.00000000000E+00 -0.00000000000E+00 -0.11669117921E+03  0.11669117921E+03  0.00000000000E+00 0. -1.
          6    2    1    2  501    0  0.13815707098E+03 -0.15517557202E+02  0.14594502937E+03  0.26499984210E+03  0.17203718747E+03 0.  0.
         24    2    3    3    0    0  0.43201647628E+02  0.42939199212E+02  0.10975376117E+03  0.14767285165E+03  0.77789625512E+02 0.  0.
         -6    2    1    2    0  502 -0.13815707098E+03  0.15517557202E+02  0.15417364123E+03  0.26850118692E+03  0.17027978413E+03 0.  0.
        -24    2    5    5    0    0 -0.14124972807E+03  0.20315287707E+02  0.60579354117E+02  0.17461528102E+03  0.80351985828E+02 0.  0.
          5    1    3    3  501    0  0.94955423352E+02 -0.58456756414E+02  0.36191268199E+02  0.11732699045E+03  0.47000000000E+01 0. -1.
        -11    1    4    4    0    0 -0.86387850244E+01  0.14250012706E+02 -0.59390872737E+01  0.17690794964E+02  0.00000000000E+00 0.  1.
         12    1    4    4    0    0  0.51840432652E+02  0.28689186506E+02  0.11569284844E+03  0.12998205669E+03  0.00000000000E+00 0. -1.
         -5    1    5    5    0  502  0.30926570909E+01 -0.47977305058E+01  0.93594287117E+02  0.93885905900E+02  0.47000000000E+01 0.  1.
         13    1    6    6    0    0 -0.32265552880E+02  0.41591889452E+02  0.22176965469E+02  0.57120652730E+02  0.00000000000E+00 0. -1.
        -14    1    6    6    0    0 -0.10898417519E+03 -0.21276601744E+02  0.38402388648E+02  0.11749462829E+03  0.00000000000E+00 0.  1.
</event>
<event>
12    1  0.8461994E-002  0.3089683E+03  0.7818608E-02  0.1080935E+00
         21   -1    0    0  503  502  0.00000000000E+00  0.00000000000E+00  0.14055369127E+03  0.14055369127E+03  0.00000000000E+00 0. -1.
         21   -1    0    0  501  503 -0.00000000000E+00 -0.00000000000E+00 -0.11453278996E+04  0.11453278996E+04  0.00000000000E+00 0. -1.
          6    2    1    2  501    0  0.14294905156E+03 -0.21219622942E+03 -0.91293460106E+03  0.96355266117E+03  0.17182105197E+03 0.  0.
         24    2    3    3    0    0 -0.21729028083E+01 -0.77945290664E+02 -0.36396817060E+03  0.38005465091E+03  0.76736683702E+02 0.  0.
         -6    2    1    2    0  502 -0.14294905156E+03  0.21219622942E+03 -0.91839607220E+02  0.32232892966E+03  0.17320437153E+03 0.  0.
        -24    2    5    5    0    0 -0.27233124217E+02  0.15616124427E+03 -0.69108943899E+02  0.19168105001E+03  0.82689791027E+02 0.  0.
          5    1    3    3  501    0  0.14512195436E+03 -0.13425093876E+03 -0.54896643046E+03  0.58349801025E+03  0.47000000000E+01 0. -1.
        -13    1    4    4    0    0 -0.20342515746E+02 -0.76827089366E+02 -0.34388408596E+03  0.35294827409E+03  0.00000000000E+00 0.  1.
         14    1    4    4    0    0  0.18169612937E+02 -0.11182012982E+01 -0.20084084638E+02  0.27106376818E+02  0.00000000000E+00 0. -1.
         -5    1    5    5    0  502 -0.11571592734E+03  0.56034985153E+02 -0.22730663322E+02  0.13064787965E+03  0.47000000000E+01 0.  1.
         11    1    6    6    0    0 -0.54713912034E+02  0.12422297711E+03 -0.60812018329E+02  0.14873823242E+03  0.00000000000E+00 0. -1.
        -12    1    6    6    0    0  0.27480787817E+02  0.31938267163E+02 -0.82969255691E+01  0.42942817587E+02  0.00000000000E+00 0.  1.
</event>
<event>
12    1  0.8461994E-002  0.1727102E+03  0.7818608E-02  0.1175221E+00
         21   -1    0    0  501  502  0.00000000000E+00  0.00000000000E+00  0.81885247579E+03  0.81885247579E+03  0.00000000000E+00 0.  1.
         21   -1    0    0  502  503 -0.00000000000E+00 -0.00000000000E+00 -0.90882090683E+02  0.90882090683E+02  0.00000000000E+00 0.  1.
         -6    2    1    2    0  503  0.43774214814E+01  0.13849346664E+01  0.11715839664E+02  0.17310715010E+03  0.17264919535E+03 0.  0.
        -24    2    3    3    0    0 -0.17260236355E+02  0.26883207324E+02 -0.53292625707E+02  0.99850473168E+02  0.78162589786E+02 0.  0.
          6    2    1    2  501    0 -0.43774214814E+01 -0.13849346664E+01  0.71625454545E+03  0.73662741638E+03  0.17198342020E+03 0.  0.
         24    2    5    5    0    0 -0.21765219867E+02 -0.63874065035E+02  0.50101798244E+03  0.51178059074E+03  0.79666387796E+02 0.  0.
          5    1    5    5  501    0  0.17387798386E+02  0.62489130368E+02  0.21523656300E+03  0.22484682564E+03  0.47000000000E+01 0. -1.
        -13    1    6    6    0    0 -0.40352929663E+02 -0.30008937212E+01  0.17637274174E+03  0.18095498978E+03  0.00000000000E+00 0.  1.
         14    1    6    6    0    0  0.18587709796E+02 -0.60873171313E+02  0.32464524070E+03  0.33082560096E+03  0.00000000000E+00 0. -1.
         -5    1    3    3    0  503  0.21637657836E+02 -0.25498272657E+02  0.65008465371E+02  0.73256676931E+02  0.47000000000E+01 0.  1.
         13    1    4    4    0    0  0.87353536907E+01 -0.22410978903E+02 -0.20442574410E+01  0.24139953770E+02  0.00000000000E+00 0. -1.
        -14    1    4    4    0    0 -0.25995590046E+02  0.49294186227E+02 -0.51248368266E+02  0.75710519398E+02  0.00000000000E+00 0.  1.
</event>
<event>
12    1  0.8461994E-002  0.1742949E+03  0.7818608E-02  0.1174373E+00
         21   -1    0    0  501  502  0.00000000000E+00  0.00000000000E+00  0.33364530614E+03  0.33364530614E+03  0.00000000000E+00 0. -1.
         21   -1    0    0  502  503 -0.00000000000E+00 -0.00000000000E+00 -0.89170773872E+02  0.89170773872E+02  0.00000000000E+00 0. -1.
         -6    2    1    2    0  503 -0.29945351826E+01 -0.23172656866E+02  0.12385732717E+03  0.21085565199E+03  0.16903706462E+03 0.  0.
        -24    2    3    3    0    0 -0.38730436422E+02 -0.59767726389E+02  0.43739377137E+02  0.11568617333E+03  0.79987059985E+02 0.  0.
          6    2    1    2  501    0  0.29945351826E+01  0.23172656866E+02  0.12061720510E+03  0.21196042802E+03  0.17272166515E+03 0.  0.
         24    2    5    5    0    0  0.74890351251E+00 -0.41310527158E+02  0.18732659668E+02  0.91272091875E+02  0.79199505721E+02 0.  0.
          5    1    5    5  501    0  0.22456316701E+01  0.64483184023E+02  0.10188454543E+03  0.12068833614E+03  0.47000000000E+01 0. -1.
        -13    1    6    6    0    0 -0.17599887012E+01 -0.47842629649E+02  0.44018631209E+02  0.65035795263E+02  0.00000000000E+00 0.  1.
         14    1    6    6    0    0  0.25088922137E+01  0.65321024914E+01 -0.25285971541E+02  0.26236296612E+02  0.00000000000E+00 0. -1.
         -5    1    3    3    0  503  0.35735901240E+02  0.36595069524E+02  0.80117950033E+02  0.95169478660E+02  0.47000000000E+01 0.  1.
         13    1    4    4    0    0  0.23042986427E+02 -0.25138068103E+02  0.36180311527E+01  0.34292737436E+02  0.00000000000E+00 0. -1.
        -14    1    4    4    0    0 -0.61773422850E+02 -0.34629658286E+02  0.40121345984E+02  0.81393435897E+02  0.00000000000E+00 0.  1.
</event>
<event>
12    1  0.8461994E-002  0.2996020E+03  0.7818608E-02  0.1085530E+00
         21   -1    0    0  503  502  0.00000000000E+00  0.00000000000E+00  0.42768471145E+03  0.42768471145E+03  0.00000000000E+00 0.  1.
         21   -1    0    0  501  503 -0.00000000000E+00 -0.00000000000E+00 -0.21871381747E+03  0.21871381747E+03  0.00000000000E+00 0. -1.
          6    2    1    2  501    0  0.24459915932E+03 -0.11866284484E+01  0.37570273870E+02  0.30123259955E+03  0.17175388416E+03 0.  0.
         24    2    3    3    0    0  0.13883137389E+03  0.54219841744E+02  0.59546299214E+02  0.17973471041E+03  0.80900326094E+02 0.  0.
         -6    2    1    2    0  502 -0.24459915932E+03  0.11866284484E+01  0.17140062011E+03  0.34516592937E+03  0.17300632763E+03 0.  0.
        -24    2    5    5    0    0 -0.55637439984E+02  0.13304775443E+02  0.10693504246E+03  0.14508774075E+03  0.79641744283E+02 0.  0.
          5    1    3    3  501    0  0.10576778543E+03 -0.55406470192E+02 -0.21976025344E+02  0.12149788914E+03  0.47000000000E+01 0. -1.
        -13    1    4    4    0    0  0.47407608638E+02  0.18885075200E+02 -0.18667999795E+02  0.54338031234E+02  0.00000000000E+00 0.  1.
         14    1    4    4    0    0  0.91423765248E+02  0.35334766544E+02  0.78214299008E+02  0.12539667918E+03  0.00000000000E+00 0. -1.
         -5    1    5    5    0  502 -0.18896171933E+03 -0.12118146995E+02  0.64465577646E+02  0.20007818862E+03  0.47000000000E+01 0.  1.
         11    1    6    6    0    0  0.78762124072E+01  0.30612938816E+02  0.42548126772E+02  0.53004998223E+02  0.00000000000E+00 0. -1.
        -12    1    6    6    0    0 -0.63513652391E+02 -0.17308163373E+02  0.64386915688E+02  0.92082742526E+02  0.00000000000E+00 0.  1.
</event>
<event>
12    1  0.8461994E-002  0.2323425E+03  0.7818608E-02  0.1125196E+00
         21   -1    0    0  501  502  0.00000000000E+00  0.00000000000E+00  0.24172887390E+03  0.24172887390E+03  0.00000000000E+00 0. -1.
         21   -1    0    0  502  503 -0.00000000000E+00 -0.00000000000E+00 -0.22614326990E+03  0.22614326990E+03  0.00000000000E+00 0.  1.
         -6    2    1    2    0  503  0.12094152938E+03  0.99097716674E+02 -0.22910451260E+02  0.23236207715E+03  0.17035267871E+03 0.  0.
        -24    2    3    3    0    0  0.13008084957E+03  0.12394804364E+03 -0.38918329075E+02  0.20106658105E+03  0.81418601867E+02 0.  0.
          6    2    1    2  501    0 -0.12094152938E+03 -0.99097716674E+02  0.38496055266E+02  0.23551006665E+03  0.17185992623E+03 0.  0.
         24    2    5    5    0    0 -0.61318264118E+02  0.14477775485E+02  0.32489799910E+02  0.10700912781E+03  0.80161280176E+02 0.  0.
          5    1    5    5  501    0 -0.59623265257E+02 -0.11357549216E+03  0.60062553558E+01  0.12850093884E+03  0.47000000000E+01 0. -1.
        -13    1    6    6    0    0 -0.52325345366E+02  0.17702953498E+02 -0.16061651096E+02  0.57526628323E+02  0.00000000000E+00 0.  1.
         14    1    6    6    0    0 -0.89929187517E+01 -0.32251780124E+01  0.48551451006E+02  0.49482499489E+02  0.00000000000E+00 0. -1.
         -5    1    3    3    0  503 -0.91393201957E+01 -0.24850326966E+02  0.16007877815E+02  0.31295496099E+02  0.47000000000E+01 0.  1.
         13    1    4    4    0    0  0.43245842512E+01  0.32588358568E+02  0.15542644900E+02  0.36363126290E+02  0.00000000000E+00 0. -1.
        -14    1    4    4    0    0  0.12575626532E+03  0.91359685072E+02 -0.54460973975E+02  0.16470345476E+03  0.00000000000E+00 0.  1.
</event>
<event>
12    1  0.8461994E-002  0.2047896E+03  0.7818608E-02  0.1146599E+00
         21   -1    0    0  501  502  0.00000000000E+00  0.00000000000E+00  0.11143687688E+03  0.11143687688E+03  0.00000000000E+00 0.  1.
         21   -1    0    0  502  503 -0.00000000000E+00 -0.00000000000E+00 -0.60720602178E+03  0.60720602178E+03  0.00000000000E+00 0.  1.
         -6    2    1    2    0  503 -0.10006109529E+03 -0.26779153620E+02 -0.47146225167E+03  0.51241587424E+03  0.17194193081E+03 0.  0.
        -24    2    3    3    0    0 -0.60240412759E+01 -0.37271241126E+02 -0.14025067828E+03  0.16792168304E+03  0.84273390754E+02 0.  0.
          6    2    1    2  501    0  0.10006109529E+03  0.26779153620E+02 -0.24306893230E+02  0.20622702441E+03  0.17666186538E+03 0.  0.
         24    2    5    5    0    0  0.97402908256E+01  0.55425576189E+02 -0.44565283803E+02  0.10921693404E+03  0.82312856831E+02 0.  0.
          5    1    5    5  501    0  0.90320804463E+02 -0.28646422569E+02  0.20258390573E+02  0.97010090370E+02  0.47000000000E+01 0. -1.
        -11    1    6    6    0    0  0.36624820483E+02  0.56966747126E+02 -0.46605527427E+02  0.82211087696E+02  0.00000000000E+00 0.  1.
         12    1    6    6    0    0 -0.26884529658E+02 -0.15411709364E+01  0.20402436238E+01  0.27005846345E+02  0.00000000000E+00 0. -1.
         -5    1    3    3    0  503 -0.94037054013E+02  0.10492087506E+02 -0.33121157338E+03  0.34449419120E+03  0.47000000000E+01 0.  1.
         11    1    4    4    0    0 -0.93799075775E+01  0.25871594652E+02 -0.57791740997E+02  0.64009432144E+02  0.00000000000E+00 0. -1.
        -12    1    4    4    0    0  0.33558663016E+01 -0.63142835778E+02 -0.82458937287E+02  0.10391225090E+03  0.00000000000E+00 0.  1.
</event>
<event>
12    1  0.8461994E-002  0.1980901E+03  0.7818608E-02  0.1152772E+00
         21   -1    0    0  501  502  0.00000000000E+00  0.00000000000E+00  0.34338621665E+03  0.34338621665E+03  0.00000000000E+00 0. -1.
         21   -1    0    0  502  503 -0.00000000000E+00 -0.00000000000E+00 -0.11460564336E+03  0.11460564336E+03  0.00000000000E+00 0. -1.
         -6    2    1    2    0  503  0.43152760573E+02 -0.72136472782E+02  0.73205649115E+02  0.21118420897E+03  0.17937076575E+03 0.  0.
        -24    2    3    3    0    0  0.67940816429E+02 -0.11111236658E+03  0.58127836244E+02  0.16236824384E+03  0.77605983777E+02 0.  0.
          6    2    1    2  501    0 -0.43152760573E+02  0.72136472782E+02  0.15557492417E+03  0.24680765104E+03  0.17217615436E+03 0.  0.
         24    2    5    5    0    0 -0.30812730643E+02 -0.73422529855E+01  0.13962405470E+03  0.16467565712E+03  0.81362536528E+02 0.  0.
          5    1    5    5  501    0 -0.12340029930E+02  0.79478725767E+02  0.15950869477E+02  0.82131993920E+02  0.47000000000E+01 0. -1.
        -11    1    6    6    0    0 -0.37655564911E+02  0.23513923145E+02  0.11880652242E+03  0.12682994883E+03  0.00000000000E+00 0.  1.
         12    1    6    6    0    0  0.68428342676E+01 -0.30856176130E+02  0.20817532277E+02  0.37845708294E+02  0.00000000000E+00 0. -1.
         -5    1    3    3    0  503 -0.24788055857E+02  0.38975893798E+02  0.15077812870E+02  0.48815965129E+02  0.47000000000E+01 0.  1.
         11    1    4    4    0    0  0.65656147065E+02 -0.62362643555E+02  0.56864418495E+01  0.90731276743E+02  0.00000000000E+00 0. -1.
        -12    1    4    4    0    0  0.22846693644E+01 -0.48749723024E+02  0.52441394395E+02  0.71636967099E+02  0.00000000000E+00 0.  1.
</event>
<event>
12    1  0.8461994E-002  0.1779600E+03  0.7818608E-02  0.1171691E+00
         21   -1    0    0  503  502  0.00000000000E+00  0.00000000000E+00  0.56918539327E+03  0.56918539327E+03  0.00000000000E+00 0. -1.
         21   -1    0    0  501  503 -0.00000000000E+00 -0.00000000000E+00 -0.58917058978E+02  0.58917058978E+02  0.00000000000E+00 0. -1.
          6    2    1    2  501    0 -0.27557456694E+02  0.37532875542E+02  0.15321592820E+03  0.22915862767E+03  0.16392201138E+03 0.  0.
         24    2    3    3    0    0  0.39394032171E+02  0.44715882508E+02  0.78768692044E+02  0.12866694432E+03  0.82457721259E+02 0.  0.
         -6    2    1    2    0  502  0.27557456694E+02 -0.37532875542E+02  0.35705240609E+03  0.39894382458E+03  0.17176036886E+03 0.  0.
        -24    2    5    5    0    0  0.50777540007E+02 -0.91628783974E+01  0.34824775950E+03  0.36094855108E+03  0.79655744433E+02 0.  0.
          5    1    3    3  501    0 -0.66951488865E+02 -0.71830069667E+01  0.74447236161E+02  0.10049168335E+03  0.47000000000E+01 0. -1.
        -13    1    4    4    0    0  0.36797073738E+02  0.25268822749E+02  0.93847279417E+02  0.10392232625E+03  0.00000000000E+00 0.  1.
         14    1    4    4    0    0  0.25969584336E+01  0.19447059760E+02 -0.15078587373E+02  0.24744618073E+02  0.00000000000E+00 0. -1.
         -5    1    5    5    0  502 -0.23220083313E+02 -0.28369997144E+02  0.88046465938E+01  0.37995273504E+02  0.47000000000E+01 0.  1.
         13    1    6    6    0    0  0.36045433472E+02 -0.38818516660E+02  0.28147156988E+03  0.28641298008E+03  0.00000000000E+00 0. -1.
        -14    1    6    6    0    0  0.14732106535E+02  0.29655638263E+02  0.66776189619E+02  0.74535570996E+02  0.00000000000E+00 0.  1.
</event>
<event>
12    1  0.8461994E-002  0.2001457E+03  0.7818608E-02  0.1149708E+00
         21   -1    0    0  503  502  0.00000000000E+00  0.00000000000E+00  0.31340916451E+03  0.31340916451E+03  0.00000000000E+00 0.  1.
         21   -1    0    0  501  503 -0.00000000000E+00 -0.00000000000E+00 -0.13964926684E+03  0.13964926684E+03  0.00000000000E+00 0.  1.
          6    2    1    2  501    0  0.99118954754E+02 -0.24563744538E+02  0.20249476483E+02  0.20116744959E+03  0.17213470522E+03 0.  0.
         24    2    3    3    0    0  0.92399157915E+01  0.62105589760E+01  0.45777548579E+02  0.10268358357E+03  0.91238080287E+02 0.  0.
         -6    2    1    2    0  502 -0.99118954754E+02  0.24563744538E+02  0.15351042119E+03  0.25189098176E+03  0.17162654963E+03 0.  0.
        -24    2    5    5    0    0 -0.95885683940E+02  0.65455359475E+02  0.66180210607E+02  0.15529266970E+03  0.79104516413E+02 0.  0.
          5    1    3    3  501    0  0.89879038962E+02 -0.30774303514E+02 -0.25528072096E+02  0.98483866021E+02  0.47000000000E+01 0. -1.
        -13    1    4    4    0    0 -0.16711041836E+02  0.10355166244E+02 -0.22288902994E+02  0.29720087212E+02  0.00000000000E+00 0.  1.
         14    1    4    4    0    0  0.25950957628E+02 -0.41446072682E+01  0.68066451573E+02  0.72963496359E+02  0.00000000000E+00 0. -1.
         -5    1    5    5    0  502 -0.32332708140E+01 -0.40891614937E+02  0.87330210583E+02  0.96598312060E+02  0.47000000000E+01 0.  1.
         11    1    6    6    0    0 -0.27208077303E+02 -0.11775669438E+02 -0.46373386430E+01  0.30007511908E+02  0.00000000000E+00 0. -1.
        -12    1    6    6    0    0 -0.68677606637E+02  0.77231028913E+02  0.70817549250E+02  0.12528515779E+03  0.00000000000E+00 0.  1.
</event>
<event>
12    1  0.8461994E-002  0.2888681E+03  0.7818608E-02  0.1090994E+00
         21   -1    0    0  503  502  0.00000000000E+00  0.00000000000E+00  0.94693529018E+02  0.94693529018E+02  0.00000000000E+00 0.  1.
         21   -1    0    0  501  503 -0.00000000000E+00 -0.00000000000E+00 -0.12193533444E+04  0.12193533444E+04  0.00000000000E+00 0.  1.
          6    2    1    2  501    0 -0.74213236246E+02 -0.21942262780E+03 -0.21543188028E+03  0.36003417494E+03  0.17192968928E+03 0.  0.
         24    2    3    3    0    0  0.74696286670E+01 -0.14939412590E+03 -0.10239322173E+03  0.20390631124E+03  0.93375648315E+02 0.  0.
         -6    2    1    2    0  502  0.74213236246E+02  0.21942262780E+03 -0.90922793512E+03  0.95401269850E+03  0.17260039648E+03 0.  0.
        -24    2    5    5    0    0  0.64264674295E+02  0.84241455706E+02 -0.62985197744E+03  0.64345523376E+03  0.78067619067E+02 0.  0.
          5    1    3    3  501    0 -0.81682864913E+02 -0.70028501901E+02 -0.11303865855E+03  0.15612786370E+03  0.47000000000E+01 0. -1.
        -13    1    4    4    0    0 -0.21989863432E+02 -0.74184163539E+02 -0.95395873241E+02  0.12283003234E+03  0.00000000000E+00 0.  1.
         14    1    4    4    0    0  0.29459492099E+02 -0.75209962362E+02 -0.69973484940E+01  0.81076278894E+02  0.00000000000E+00 0. -1.
         -5    1    5    5    0  502  0.99485619508E+01  0.13518117210E+03 -0.27937595768E+03  0.31055746474E+03  0.47000000000E+01 0.  1.
         11    1    6    6    0    0  0.60377036366E+02  0.94140121506E+02 -0.46498211923E+03  0.47824274192E+03  0.00000000000E+00 0. -1.
        -12    1    6    6    0    0  0.38876379292E+01 -0.98986657994E+01 -0.16486985821E+03  0.16521249184E+03  0.00000000000E+00 0.  1.
</event>
<event>
12    1  0.8461994E-002  0.2647048E+03  0.7818608E-02  0.1104438E+00
         21   -1    0    0  503  502  0.00000000000E+00  0.00000000000E+00  0.16277517560E+03  0.16277517560E+03  0.00000000000E+00 0.  1.
         21   -1    0    0  501  503 -0.00000000000E+00 -0.00000000000E+00 -0.42999058584E+03  0.42999058584E+03  0.00000000000E+00 0. -1.
          6    2    1    2  501    0 -0.19882582530E+03  0.25955653698E+02 -0.12354441223E+03  0.29211619377E+03  0.17280984955E+03 0.  0.
         24    2    3    3    0    0 -0.52439207932E+02 -0.34354364865E+02 -0.20676623975E+02  0.10325060150E+03  0.79391882563E+02 0.  0.
         -6    2    1    2    0  502  0.19882582530E+03 -0.25955653698E+02 -0.14367099802E+03  0.30064956768E+03  0.17188194236E+03 0.  0.
        -24    2    5    5    0    0  0.19851494103E+03 -0.16730864306E+02 -0.16901172596E+03  0.27327374109E+03  0.80159032078E+02 0.  0.
          5    1    3    3  501    0 -0.14638661737E+03  0.60310018563E+02 -0.10286778825E+03  0.18886559227E+03  0.47000000000E+01 0. -1.
        -13    1    4    4    0    0 -0.29097146542E+02 -0.10174877941E+02  0.29626170626E+02  0.42753737426E+02  0.00000000000E+00 0.  1.
         14    1    4    4    0    0 -0.23342061391E+02 -0.24179486924E+02 -0.50302794601E+02  0.60496864072E+02  0.00000000000E+00 0. -1.
         -5    1    5    5    0  502  0.31088426851E+00 -0.92247893914E+01  0.25340727947E+02  0.27375826585E+02  0.47000000000E+01 0.  1.
         11    1    6    6    0    0  0.19847445864E+03 -0.15890752158E+02 -0.13801568718E+03  0.24226629283E+03  0.00000000000E+00 0. -1.
        -12    1    6    6    0    0  0.40482394021E-01 -0.84011214878E+00 -0.30996038782E+02  0.31007448257E+02  0.00000000000E+00 0.  1.
</event>
<event>
12    1  0.8461994E-002  0.2115213E+03  0.7818608E-02  0.1140868E+00
         21   -1    0    0  501  502  0.00000000000E+00  0.00000000000E+00  0.94281916648E+02  0.94281916648E+02  0.00000000000E+00 0. -1.
         21   -1    0    0  502  503 -0.00000000000E+00 -0.00000000000E+00 -0.65252471710E+03  0.65252471710E+03  0.00000000000E+00 0. -1.
         -6    2    1    2    0  503 -0.11282826217E+03 -0.42352168071E+02 -0.47843021075E+03  0.52310298544E+03  0.17383136635E+03 0.  0.
        -24    2    3    3    0    0 -0.46486775048E+02  0.17996748598E+02 -0.37257429024E+03  0.38428385648E+03  0.79859735715E+02 0.  0.
          6    2    1    2  501    0  0.11282826217E+03  0.42352168071E+02 -0.79812589698E+02  0.22370364831E+03  0.17073180696E+03 0.  0.
         24    2    5    5    0    0  0.14881876516E+02  0.54195825183E+02 -0.77055846589E+02  0.12489344484E+03  0.80635670482E+02 0.  0.
          5    1    5    5  501    0  0.97946385657E+02 -0.11843657111E+02 -0.27567431087E+01  0.98810203469E+02  0.47000000000E+01 0. -1.
        -11    1    6    6    0    0  0.24308388700E+02  0.58900798048E+02 -0.19871041195E+02  0.66746236224E+02  0.00000000000E+00 0.  1.
         12    1    6    6    0    0 -0.94265121847E+01 -0.47049728652E+01 -0.57184805394E+02  0.58147208614E+02  0.00000000000E+00 0. -1.
         -5    1    3    3    0  503 -0.66341487125E+02 -0.60348916669E+02 -0.10585592051E+03  0.13881912895E+03  0.47000000000E+01 0.  1.
         13    1    4    4    0    0 -0.62373429292E+02  0.24276936558E+02 -0.20077779797E+03  0.21164011550E+03  0.00000000000E+00 0. -1.
        -14    1    4    4    0    0  0.15886654244E+02 -0.62801879608E+01 -0.17179649227E+03  0.17264374098E+03  0.00000000000E+00 0.  1.
</event>
<event>
12    1  0.8461994E-002  0.2354247E+03  0.7818608E-02  0.1123449E+00
         21   -1    0    0  503  502  0.00000000000E+00  0.00000000000E+00  0.46060696676E+02  0.46060696676E+02  0.00000000000E+00 0. -1.
         21   -1    0    0  501  503 -0.00000000000E+00 -0.00000000000E+00 -0.12321267347E+04  0.12321267347E+04  0.00000000000E+00 0.  1.
          6    2    1    2  501    0 -0.11879806081E+03  0.10312491609E+03 -0.72016464386E+03  0.75766874499E+03  0.17514875190E+03 0.  0.
         24    2    3    3    0    0 -0.49185354945E+01  0.73489355917E+02 -0.23648657562E+03  0.25986017092E+03  0.78590906341E+02 0.  0.
         -6    2    1    2    0  502  0.11879806081E+03 -0.10312491609E+03 -0.46590139417E+03  0.52051868639E+03  0.17066887891E+03 0.  0.
        -24    2    5    5    0    0  0.59353071903E+02 -0.32046865104E+02 -0.10754058410E+03  0.15034257124E+03  0.80548884482E+02 0.  0.
          5    1    3    3  501    0 -0.11387952532E+03  0.29635560170E+02 -0.48367806824E+03  0.49780857407E+03  0.47000000000E+01 0. -1.
        -13    1    4    4    0    0  0.16156710818E+02  0.68197926159E+02 -0.22419673455E+03  0.23489608814E+03  0.00000000000E+00 0.  1.
         14    1    4    4    0    0 -0.21075246313E+02  0.52914297583E+01 -0.12289841066E+02  0.24964082788E+02  0.00000000000E+00 0. -1.
         -5    1    5    5    0  502  0.59444988909E+02 -0.71078050983E+02 -0.35836081006E+03  0.37017611515E+03  0.47000000000E+01 0.  1.
         13    1    6    6    0    0  0.46400678568E+00  0.19771945397E+02 -0.35643642405E+01  0.20096015016E+02  0.00000000000E+00 0. -1.
        -14    1    6    6    0    0  0.58889065118E+02 -0.51818810501E+02 -0.10397621986E+03  0.13024655623E+03  0.00000000000E+00 0.  1.
</event>
<event>
12    1  0.8461994E-002  0.1956681E+03  0.7818608E-02  0.1153537E+00
         21   -1    0    0  501  502  0.00000000000E+00  0.00000000000E+00  0.28938709022E+02  0.28938709022E+02  0.00000000000E+00 0. -1.
         21   -1    0    0  502  503 -0.00000000000E+00 -0.00000000000E+00 -0.13263676169E+04  0.13263676169E+04  0.00000000000E+00 0. -1.
         -6    2    1    2    0  503  0.74732441175E+02  0.55213509081E+02 -0.60177290710E+03  0.63265614726E+03  0.17172565210E+03 0.  0.
        -24    2    3    3    0    0  0.12559912180E+00  0.50855786392E+00 -0.34573120315E+03  0.36037273474E+03  0.10167678548E+03 0.  0.
          6    2    1    2  501    0 -0.74732441175E+02 -0.55213509081E+02 -0.69565600082E+03  0.72265017871E+03  0.17219912881E+03 0.  0.
         24    2    5    5    0    0 -0.21288626223E+02 -0.32997538638E+02 -0.62827206597E+03  0.63369808275E+03  0.72838369315E+02 0.  0.
          5    1    5    5  501    0 -0.53443814953E+02 -0.22215970443E+02 -0.67383934859E+02  0.88952095964E+02  0.47000000000E+01 0. -1.
        -11    1    6    6    0    0  0.13000884684E+02  0.16387735116E+02 -0.11196907249E+03  0.11390633897E+03  0.00000000000E+00 0.  1.
         12    1    6    6    0    0 -0.34289510907E+02 -0.49385273754E+02 -0.51630299348E+03  0.51979174378E+03  0.00000000000E+00 0. -1.
         -5    1    3    3    0  503  0.74606842054E+02  0.54704951217E+02 -0.25604170395E+03  0.27228341251E+03  0.47000000000E+01 0.  1.
         11    1    4    4    0    0  0.19138063872E+02  0.45057336928E+02 -0.12192962057E+03  0.13138973123E+03  0.00000000000E+00 0. -1.
        -12    1    4    4    0    0 -0.19012464750E+02 -0.44548779064E+02 -0.22380158258E+03  0.22898300352E+03  0.00000000000E+00 0.  1.
</event>
<event>
12    1  0.8461994E-002  0.2171342E+03  0.7818608E-02  0.1136181E+00
         21   -1    0    0  501  502  0.00000000000E+00  0.00000000000E+00  0.14958340146E+03  0.14958340146E+03  0.00000000000E+00 0.  1.
         21   -1    0    0  502  503 -0.00000000000E+00 -0.00000000000E+00 -0.31798890235E+03  0.31798890235E+03  0.00000000000E+00 0. -1.
         -6    2    1    2    0  503 -0.13333337493E+03 -0.47776392777E+02 -0.58193068596E+02  0.22406860766E+03  0.16358464209E+03 0.  0.
        -24    2    3    3    0    0 -0.75741267762E+01 -0.20380873025E+02  0.48640875036E+01  0.80666383355E+02  0.77528437845E+02 0.  0.
          6    2    1    2  501    0  0.13333337493E+03  0.47776392777E+02 -0.11021243230E+03  0.24350369615E+03  0.16458097468E+03 0.  0.
         24    2    5    5    0    0  0.25269554380E+02 -0.26475293181E+01 -0.24920743005E+01  0.82736389900E+02  0.78699046940E+02 0.  0.
          5    1    5    5  501    0  0.10806382055E+03  0.50423922095E+02 -0.10772035800E+03  0.16076730625E+03  0.47000000000E+01 0. -1.
        -11    1    6    6    0    0  0.53356375148E+02  0.13842528928E+01 -0.75775834540E+01  0.53909541790E+02  0.00000000000E+00 0.  1.
         12    1    6    6    0    0 -0.28086820768E+02 -0.40317822108E+01  0.50855091535E+01  0.28826848110E+02  0.00000000000E+00 0. -1.
         -5    1    3    3    0  503 -0.12575924816E+03 -0.27395519752E+02 -0.63057156100E+02  0.14340222430E+03  0.47000000000E+01 0.  1.
         11    1    4    4    0    0  0.14957841908E+02 -0.10655229529E+02 -0.31696699329E+02  0.36632658916E+02  0.00000000000E+00 0. -1.
        -12    1    4    4    0    0 -0.22531968684E+02 -0.97256434957E+01  0.36560786833E+02  0.44033724439E+02  0.00000000000E+00 0.  1.
</event>
<event>
12    1  0.8461994E-002  0.1961557E+03  0.7818608E-02  0.1153094E+00
         21   -1    0    0  503  502  0.00000000000E+00  0.00000000000E+00  0.10794985085E+03  0.10794985085E+03  0.00000000000E+00 0.  1.
         21   -1    0    0  501  503 -0.00000000000E+00 -0.00000000000E+00 -0.46199177857E+03  0.46199177857E+03  0.00000000000E+00 0.  1.
          6    2    1    2  501    0 -0.64251478600E+02  0.70576208855E+02 -0.31373089977E+03  0.37000559148E+03  0.17137037813E+03 0.  0.
         24    2    3    3    0    0 -0.86495133476E+02  0.16991794822E+02 -0.13609115545E+03  0.18307234572E+03  0.84997364489E+02 0.  0.
         -6    2    1    2    0  502  0.64251478600E+02 -0.70576208855E+02 -0.40311027958E+02  0.19993603794E+03  0.17099762143E+03 0.  0.
        -24    2    5    5    0    0  0.88349421553E+02  0.19363663195E+01 -0.23454051959E+02  0.12154578311E+03  0.80086921748E+02 0.  0.
          5    1    3    3  501    0  0.22243654876E+02  0.53584414033E+02 -0.17763974432E+03  0.18693324576E+03  0.47000000000E+01 0. -1.
        -13    1    4    4    0    0 -0.24891318723E+02 -0.42753483024E+01 -0.11001661745E+03  0.11287830822E+03  0.00000000000E+00 0.  1.
         14    1    4    4    0    0 -0.61603814753E+02  0.21267143124E+02 -0.26074537993E+02  0.70194037498E+02  0.00000000000E+00 0. -1.
         -5    1    5    5    0  502 -0.24097942953E+02 -0.72512575174E+02 -0.16856975999E+02  0.78390254833E+02  0.47000000000E+01 0.  1.
         13    1    6    6    0    0  0.45446195141E+02 -0.15673203637E+02 -0.48962189929E+02  0.68617067904E+02  0.00000000000E+00 0. -1.
        -14    1    6    6    0    0  0.42903226413E+02  0.17609569957E+02  0.25508137970E+02  0.52928715206E+02  0.00000000000E+00 0.  1.
</event>
<event>
12    1  0.8461994E-002  0.2205975E+03  0.7818608E-02  0.1134397E+00
         21   -1    0    0  503  502  0.00000000000E+00  0.00000000000E+00  0.93554630076E+03  0.93554630076E+03  0.00000000000E+00 0. -1.
         21   -1    0    0  501  503 -0.00000000000E+00 -0.00000000000E+00 -0.76535466080E+02  0.76535466080E+02  0.00000000000E+00 0. -1.
          6    2    1    2  501    0 -0.12885673721E+03  0.40090215944E+02  0.13953162424E+03  0.26102168346E+03  0.17450490233E+03 0.  0.
         24    2    3    3    0    0 -0.13280799998E+03  0.70421514777E+02  0.14443145112E+03  0.22968961571E+03  0.96435060471E+02 0.  0.
         -6    2    1    2    0  502  0.12885673721E+03 -0.40090215944E+02  0.71947921044E+03  0.75106008337E+03  0.16801675644E+03 0.  0.
        -24    2    5    5    0    0  0.70311408001E+02 -0.53760585769E+02  0.64125554106E+03  0.65229031556E+03  0.80250184746E+02 0.  0.
          5    1    3    3  501    0  0.39512627718E+01 -0.30331298833E+02 -0.48998268814E+01  0.31332067756E+02  0.47000000000E+01 0. -1.
        -11    1    4    4    0    0  0.43497215372E-01 -0.18350628950E+02  0.20235394330E+02  0.27317003104E+02  0.00000000000E+00 0.  1.
         12    1    4    4    0    0 -0.13285149720E+03  0.88772143727E+02  0.12419605679E+03  0.20237261260E+03  0.00000000000E+00 0. -1.
         -5    1    5    5    0  502  0.58545329210E+02  0.13670369824E+02  0.78223669377E+02  0.98769767815E+02  0.47000000000E+01 0.  1.
         13    1    6    6    0    0  0.77663052725E+02 -0.14965189107E+02  0.46373805027E+03  0.47043435877E+03  0.00000000000E+00 0. -1.
        -14    1    6    6    0    0 -0.73516447240E+01 -0.38795396661E+02  0.17751749079E+03  0.18185595678E+03  0.00000000000E+00 0.  1.
</event>
<event>
12    1  0.8461994E-002  0.1860845E+03  0.7818608E-02  0.1162566E+00
         21   -1    0    0  503  502  0.00000000000E+00  0.00000000000E+00  0.67645815037E+03  0.67645815037E+03  0.00000000000E+00 0.  1.
         21   -1    0    0  501  503 -0.00000000000E+00 -0.00000000000E+00 -0.54591132568E+02  0.54591132568E+02  0.00000000000E+00 0.  1.
          6    2    1    2  501    0  0.51003821617E+02 -0.46769668685E+02  0.21350688782E+03  0.28321832846E+03  0.17273864274E+03 0.  0.
         24    2    3    3    0    0  0.76198886097E+02 -0.49023657958E+02  0.69365545645E+02  0.13679876601E+03  0.75450209921E+02 0.  0.
         -6    2    1    2    0  502 -0.51003821617E+02  0.46769668685E+02  0.40836012998E+03  0.44783095448E+03  0.17031082264E+03 0.  0.
        -24    2    5    5    0    0 -0.46884038504E+02 -0.24022213601E+02  0.31690081523E+03  0.33200626167E+03  0.83826316172E+02 0.  0.
          5    1    3    3  501    0 -0.25195064480E+02  0.22539892723E+01  0.14414134218E+03  0.14641956245E+03  0.47000000000E+01 0. -1.
        -11    1    4    4    0    0  0.25483644010E+02 -0.57070605022E+02  0.55557969947E+02  0.83625104450E+02  0.00000000000E+00 0.  1.
         12    1    4    4    0    0  0.50715242088E+02  0.80469470643E+01  0.13807575699E+02  0.53173661560E+02  0.00000000000E+00 0. -1.
         -5    1    5    5    0  502 -0.41197831135E+01  0.70791882287E+02  0.91459314754E+02  0.11582469282E+03  0.47000000000E+01 0.  1.
         11    1    6    6    0    0  0.14216670205E+02 -0.12965286249E+02  0.18743756735E+03  0.18842254115E+03  0.00000000000E+00 0. -1.
        -12    1    6    6    0    0 -0.61100708709E+02 -0.11056927352E+02  0.12946324788E+03  0.14358372052E+03  0.00000000000E+00 0.  1.
</event>
<event>
12    1  0.8461994E-002  0.1809023E+03  0.7818608E-02  0.1167239E+00
         21   -1    0    0  503  502  0.00000000000E+00  0.00000000000E+00  0.18924775227E+04  0.18924775227E+04  0.00000000000E+00 0. -1.
         21   -1    0    0  501  503 -0.00000000000E+00 -0.00000000000E+00 -0.77529199331E+02  0.77529199331E+02  0.00000000000E+00 0. -1.
          6    2    1    2  501    0  0.32367206974E+02  0.44336993044E+02  0.37662853734E+02  0.18353833661E+03  0.17103925109E+03 0.  0.
         24    2    3    3    0    0 -0.28331499926E+01 -0.33122390988E+02  0.43635834101E+02  0.98117099202E+02  0.81349613488E+02 0.  0.
         -6    2    1    2    0  502 -0.32367206974E+02 -0.44336993044E+02  0.17772854696E+04  0.17864683854E+04  0.17237240646E+03 0.  0.
        -24    2    5    5    0    0 -0.54727242443E+02  0.28973902368E+02  0.11606646813E+04  0.11650846512E+04  0.80281902848E+02 0.  0.
          5    1    3    3  501    0  0.35200356966E+02  0.77459384031E+02 -0.59729803666E+01  0.85421237403E+02  0.47000000000E+01 0. -1.
        -11    1    4    4    0    0  0.10436411378E+02 -0.18373056797E+02  0.65363491546E+02  0.68694060337E+02  0.00000000000E+00 0.  1.
         12    1    4    4    0    0 -0.13269561371E+02 -0.14749334191E+02 -0.21727657445E+02  0.29423038866E+02  0.00000000000E+00 0. -1.
         -5    1    5    5    0  502  0.22360035470E+02 -0.73310895412E+02  0.61662078829E+03  0.62138373420E+03  0.47000000000E+01 0.  1.
         11    1    6    6    0    0 -0.48507619090E+02  0.72777258272E+01  0.10854228413E+04  0.10865305788E+04  0.00000000000E+00 0. -1.
        -12    1    6    6    0    0 -0.62196233534E+01  0.21696176541E+02  0.75241840075E+02  0.78554072390E+02  0.00000000000E+00 0.  1.
</event>
<event>
12    1  0.8461994E-002  0.1805799E+03  0.7818608E-02  0.1169534E+00
         21   -1    0    0  501  502  0.00000000000E+00  0.00000000000E+00  0.20565264222E+03  0.20565264222E+03  0.00000000000E+00 0. -1.
         21   -1    0    0  502  503 -0.00000000000E+00 -0.00000000000E+00 -0.34461781098E+03  0.34461781098E+03  0.00000000000E+00 0. -1.
         -6    2    1    2    0  503  0.47253896578E+02  0.17322573166E+02 -0.27512317625E+03  0.32411099460E+03  0.16377476126E+03 0.  0.
        -24    2    3    3    0    0  0.18223618269E+02  0.63478264871E+02 -0.11617790543E+03  0.15600747277E+03  0.80494940678E+02 0.  0.
          6    2    1    2  501    0 -0.47253896578E+02 -0.17322573166E+02  0.13615800749E+03  0.22615945860E+03  0.17342461022E+03 0.  0.
         24    2    5    5    0    0  0.38945489576E+02 -0.32228076855E+02  0.72264746945E+02  0.11773000247E+03  0.77992049180E+02 0.  0.
          5    1    5    5  501    0 -0.86199386154E+02  0.14905503690E+02  0.63893260541E+02  0.10842945613E+03  0.47000000000E+01 0. -1.
        -11    1    6    6    0    0  0.24285379545E+02 -0.18442205011E+02 -0.10732673586E+02  0.32327772389E+02  0.00000000000E+00 0.  1.
         12    1    6    6    0    0  0.14660110031E+02 -0.13785871844E+02  0.82997420531E+02  0.85402230084E+02  0.00000000000E+00 0. -1.
         -5    1    3    3    0  503  0.29030278309E+02 -0.46155691705E+02 -0.15894527082E+03  0.16810352183E+03  0.47000000000E+01 0.  1.
         13    1    4    4    0    0  0.20264446443E+02 -0.97338049530E+01 -0.58852478864E+02  0.63000071563E+02  0.00000000000E+00 0. -1.
        -14    1    4    4    0    0 -0.20408281734E+01  0.73212069824E+02 -0.57325426567E+02  0.93007401203E+02  0.00000000000E+00 0.  1.
</event>
<event>
12    1  0.8461994E-002  0.1920398E+03  0.7818608E-02  0.1156651E+00
         21   -1    0    0  503  502  0.00000000000E+00  0.00000000000E+00  0.96651773608E+03  0.96651773608E+03  0.00000000000E+00 0.  1.
         21   -1    0    0  501  503 -0.00000000000E+00 -0.00000000000E+00 -0.43319349932E+02  0.43319349932E+02  0.00000000000E+00 0. -1.
          6    2    1    2  501    0  0.70875878495E+02 -0.48727412261E+02  0.28696090879E+03  0.34524894108E+03  0.17161735717E+03 0.  0.
         24    2    3    3    0    0 -0.21421444063E+02 -0.95635336972E+01  0.17703400693E+03  0.19639122751E+03  0.81719857996E+02 0.  0.
         -6    2    1    2    0  502 -0.70875878495E+02  0.48727412261E+02  0.63623747736E+03  0.66458814494E+03  0.17170184606E+03 0.  0.
        -24    2    5    5    0    0 -0.25676050402E+02  0.94751101618E+02  0.46752843677E+03  0.48390600742E+03  0.77104824799E+02 0.  0.
          5    1    3    3  501    0  0.92297322558E+02 -0.39163878564E+02  0.10992690187E+03  0.14885771357E+03  0.47000000000E+01 0. -1.
        -13    1    4    4    0    0 -0.32531919240E+02 -0.13309717357E+02  0.23209984353E+02  0.42120989058E+02  0.00000000000E+00 0.  1.
         14    1    4    4    0    0  0.11110475177E+02  0.37461836598E+01  0.15382402257E+03  0.15427023845E+03  0.00000000000E+00 0. -1.
         -5    1    5    5    0  502 -0.45199828093E+02 -0.46023689357E+02  0.16870904059E+03  0.18068213752E+03  0.47000000000E+01 0.  1.
         13    1    6    6    0    0 -0.10617056813E+02 -0.10048406575E+02  0.25676126075E+02  0.29545825767E+02  0.00000000000E+00 0. -1.
        -14    1    6    6    0    0 -0.15058993589E+02  0.10479950819E+03  0.44185231069E+03  0.45436018165E+03  0.00000000000E+00 0.  1.
</event>
<event>
12    1  0.8461994E-002  0.2987039E+03  0.7818608E-02  0.1086067E+00
         21   -1    0    0  503  502  0.00000000000E+00  0.00000000000E+00  0.27535898144E+03  0.27535898144E+03  0.00000000000E+00 0.  1.
         21   -1    0    0  501  503 -0.00000000000E+00 -0.00000000000E+00 -0.32825558873E+03  0.32825558873E+03  0.00000000000E+00 0. -1.
          6    2    1    2  501    0 -0.55967197762E+01 -0.24213870272E+03 -0.66440357297E+02  0.30600386294E+03  0.17481867299E+03 0.  0.
         24    2    3    3    0    0 -0.52877454286E+02 -0.71485968949E+02 -0.11738099652E+02  0.12060631605E+03  0.80633935531E+02 0.  0.
         -6    2    1    2    0  502  0.55967197762E+01  0.24213870272E+03  0.13543750003E+02  0.29761070723E+03  0.17241294982E+03 0.  0.
        -24    2    5    5    0    0 -0.16324553754E+02  0.53947013674E+02  0.38833504696E+02  0.10640841709E+03  0.81473546637E+02 0.  0.
          5    1    3    3  501    0  0.47280734510E+02 -0.17065273377E+03 -0.54702257645E+02  0.18539754689E+03  0.47000000000E+01 0. -1.
        -13    1    4    4    0    0  0.30785387576E+01 -0.57228471481E+02  0.11338543127E+02  0.58422066971E+02  0.00000000000E+00 0.  1.
         14    1    4    4    0    0 -0.55955993043E+02 -0.14257497468E+02 -0.23076642779E+02  0.62184249079E+02  0.00000000000E+00 0. -1.
         -5    1    5    5    0  502  0.21921273530E+02  0.18819168905E+03 -0.25289754693E+02  0.19120229014E+03  0.47000000000E+01 0.  1.
         13    1    6    6    0    0 -0.38043836672E+02  0.39418163892E+02 -0.53844907196E+01  0.55046506643E+02  0.00000000000E+00 0. -1.
        -14    1    6    6    0    0  0.21719282918E+02  0.14528849782E+02  0.44217995416E+02  0.51361910450E+02  0.00000000000E+00 0.  1.
</event>
<event>
12    1  0.8461994E-002  0.1870233E+03  0.7818608E-02  0.1163767E+00
         21   -1    0    0  503  502  0.00000000000E+00  0.00000000000E+00  0.98594672932E+03  0.98594672932E+03  0.00000000000E+00 0. -1.
         21   -1    0    0  501  503 -0.00000000000E+00 -0.00000000000E+00 -0.50215007639E+02  0.50215007639E+02  0.00000000000E+00 0. -1.
          6    2    1    2  501    0 -0.49291900141E+02 -0.53672829828E+02  0.75788472717E+03  0.77807788941E+03  0.16032928062E+03 0.  0.
         24    2    3    3    0    0 -0.19898066219E+02 -0.12261429722E+02  0.67914412900E+03  0.68426385351E+03  0.80212203347E+02 0.  0.
         -6    2    1    2    0  502  0.49291900141E+02  0.53672829828E+02  0.17784699450E+03  0.25808384755E+03  0.17224184982E+03 0.  0.
        -24    2    5    5    0    0  0.72030437392E+02  0.47307936736E+02  0.49462912437E+02  0.12746181468E+03  0.79834263990E+02 0.  0.
          5    1    3    3  501    0 -0.29393833921E+02 -0.41411400106E+02  0.78740598176E+02  0.93814035903E+02  0.47000000000E+01 0. -1.
        -11    1    4    4    0    0  0.83087713947E+01 -0.37966757181E+02  0.47470266784E+03  0.47629101732E+03  0.00000000000E+00 0.  1.
         12    1    4    4    0    0 -0.28206837614E+02  0.25705327459E+02  0.20444146116E+03  0.20797283618E+03  0.00000000000E+00 0. -1.
         -5    1    5    5    0  502 -0.22738537252E+02  0.63648930922E+01  0.12838408207E+03  0.13062203286E+03  0.47000000000E+01 0.  1.
         13    1    6    6    0    0  0.85467434326E+02  0.26083646934E+02  0.49880469848E+02  0.10233816610E+03  0.00000000000E+00 0. -1.
        -14    1    6    6    0    0 -0.13436996934E+02  0.21224289802E+02 -0.41755741168E+00  0.25123648588E+02  0.00000000000E+00 0.  1.
</event>
<event>
12    1  0.8461994E-002  0.2496102E+03  0.7818608E-02  0.1113555E+00
         21   -1    0    0  503  502  0.00000000000E+00  0.00000000000E+00  0.62309616751E+02  0.62309616751E+02  0.00000000000E+00 0.  1.
         21   -1    0    0  501  503 -0.00000000000E+00 -0.00000000000E+00 -0.14250406262E+04  0.14250406262E+04  0.00000000000E+00 0.  1.
          6    2    1    2  501    0  0.17865382513E+03  0.31021588658E+02 -0.10876212670E+04  0.11158966302E+04  0.17153932693E+03 0.  0.
         24    2    3    3    0    0  0.48887196219E+02  0.29061226784E+01 -0.70046891135E+03  0.70658147792E+03  0.78754591412E+02 0.  0.
         -6    2    1    2    0  502 -0.17865382513E+03 -0.31021588658E+02 -0.27510974253E+03  0.37145361282E+03  0.17150185960E+03 0.  0.
        -24    2    5    5    0    0 -0.18896800271E+02  0.13222973823E+02 -0.12621069510E+03  0.14857942269E+03  0.74931763571E+02 0.  0.
          5    1    3    3  501    0  0.12976662891E+03  0.28115465979E+02 -0.38715235561E+03  0.40931515225E+03  0.47000000000E+01 0. -1.
        -11    1    4    4    0    0  0.52307774225E+02 -0.11041515555E+02 -0.23972059564E+03  0.24560941001E+03  0.00000000000E+00 0.  1.
         12    1    4    4    0    0 -0.34205780053E+01  0.13947638234E+02 -0.46074831570E+03  0.46097206791E+03  0.00000000000E+00 0. -1.
         -5    1    5    5    0  502 -0.15975702486E+03 -0.44244562481E+02 -0.14889904743E+03  0.22287419013E+03  0.47000000000E+01 0.  1.
         13    1    6    6    0    0  0.13496571990E+02 -0.89078101676E+01  0.25010018528E+00  0.16173097649E+02  0.00000000000E+00 0. -1.
        -14    1    6    6    0    0 -0.32393372261E+02  0.22130783990E+02 -0.12646079529E+03  0.13240632504E+03  0.00000000000E+00 0.  1.
</event>
<event>
12    1  0.8461994E-002  0.2865110E+03  0.7818608E-02  0.1092260E+00
         21   -1    0    0  503  502  0.00000000000E+00  0.00000000000E+00  0.17864988869E+03  0.17864988869E+03  0.00000000000E+00 0. -1.
         21   -1    0    0  501  503 -0.00000000000E+00 -0.00000000000E+00 -0.62466066231E+03  0.62466066231E+03  0.00000000000E+00 0. -1.
          6    2    1    2  501    0  0.20571012371E+03  0.98127146800E+02 -0.42994547406E+03  0.51634953171E+03  0.17267928738E+03 0.  0.
         24    2    3    3    0    0  0.29318857356E+02  0.55675786332E+01 -0.87037884846E+02  0.11975293912E+03  0.76645806810E+02 0.  0.
         -6    2    1    2    0  502 -0.20571012371E+03 -0.98127146800E+02 -0.16065299565E+02  0.28696101930E+03  0.17361722498E+03 0.  0.
        -24    2    5    5    0    0 -0.20428691663E+03 -0.80461144828E+02 -0.56443823305E+02  0.24261433596E+03  0.86421471214E+02 0.  0.
          5    1    3    3  501    0  0.17639126636E+03  0.92559568167E+02 -0.34290758921E+03  0.39659659258E+03  0.47000000000E+01 0. -1.
        -11    1    4    4    0    0  0.33736004038E+02  0.37140568390E+02 -0.49157244468E+02  0.70242255605E+02  0.00000000000E+00 0.  1.
         12    1    4    4    0    0 -0.44171466818E+01 -0.31572989756E+02 -0.37880640378E+02  0.49510683518E+02  0.00000000000E+00 0. -1.
         -5    1    5    5    0  502 -0.14232070801E+01 -0.17666001972E+02  0.40378523740E+02  0.44346683343E+02  0.47000000000E+01 0.  1.
         11    1    6    6    0    0 -0.12630164169E+03 -0.65392155905E+02  0.48153208490E+01  0.14230750529E+03  0.00000000000E+00 0. -1.
        -12    1    6    6    0    0 -0.77985274946E+02 -0.15068988922E+02 -0.61259144154E+02  0.10030683067E+03  0.00000000000E+00 0.  1.
</event>
<event>
12    1  0.8461994E-002  0.3832080E+03  0.7818608E-02  0.1049785E+00
         21   -1    0    0  501  502  0.00000000000E+00  0.00000000000E+00  0.93859866666E+03  0.93859866666E+03  0.00000000000E+00 0.  1.
         21   -1    0    0  502  503 -0.00000000000E+00 -0.00000000000E+00 -0.24262107476E+03  0.24262107476E+03  0.00000000000E+00 0.  1.
         -6    2    1    2    0  503  0.15009760469E+03 -0.30735276533E+03 -0.41593251048E+01  0.38323059957E+03  0.17278130447E+03 0.  0.
        -24    2    3    3    0    0  0.84930603986E+02 -0.13462855005E+03  0.60419854929E+02  0.18759585568E+03  0.78762886032E+02 0.  0.
          6    2    1    2  501    0 -0.15009760469E+03  0.30735276533E+03  0.70013691700E+03  0.79798914185E+03  0.17204637362E+03 0.  0.
         24    2    5    5    0    0 -0.16590813263E+03  0.22585731189E+03  0.60480531261E+03  0.67149136906E+03  0.81081186171E+02 0.  0.
          5    1    5    5  501    0  0.15810527948E+02  0.81495453444E+02  0.95331604387E+02  0.12649777279E+03  0.47000000000E+01 0. -1.
        -11    1    6    6    0    0 -0.12830712289E+03  0.16103164734E+03  0.51431454138E+03  0.55399761435E+03  0.00000000000E+00 0.  1.
         12    1    6    6    0    0 -0.37601009740E+02  0.64825664547E+02  0.90490771226E+02  0.11749375470E+03  0.00000000000E+00 0. -1.
         -5    1    3    3    0  503  0.65167000700E+02 -0.17272421528E+03 -0.64579180034E+02  0.19563474389E+03  0.47000000000E+01 0.  1.
         13    1    4    4    0    0  0.21040191171E+02  0.36211036148E+00  0.27562661834E+02  0.34677385943E+02  0.00000000000E+00 0. -1.
        -14    1    4    4    0    0  0.63890412815E+02 -0.13499066042E+03  0.32857193095E+02  0.15291846974E+03  0.00000000000E+00 0.  1.
</event>
<event>
12    1  0.8461994E-002  0.1890995E+03  0.7818608E-02  0.1159512E+00
         21   -1    0    0  503  502  0.00000000000E+00  0.00000000000E+00  0.11438122846E+04  0.11438122846E+04  0.00000000000E+00 0. -1.
         21   -1    0    0  501  503 -0.00000000000E+00 -0.00000000000E+00 -0.39364161653E+02  0.39364161653E+02  0.00000000000E+00 0.  1.
          6    2    1    2  501    0  0.48079569020E+02 -0.61404337225E+02  0.28222098232E+03  0.33971653121E+03  0.17226868875E+03 0.  0.
         24    2    3    3    0    0 -0.35937344188E+02 -0.37366994062E+02  0.17667633497E+03  0.20260928065E+03  0.84547077493E+02 0.  0.
         -6    2    1    2    0  502 -0.48079569020E+02  0.61404337225E+02  0.82222714066E+03  0.84345991508E+03  0.17112866484E+03 0.  0.
        -24    2    5    5    0    0 -0.92231958037E+02  0.18362992919E+02  0.46524417164E+03  0.48116042441E+03  0.78862419300E+02 0.  0.
          5    1    3    3  501    0  0.84016913207E+02 -0.24037343163E+02  0.10554464735E+03  0.13710725056E+03  0.47000000000E+01 0. -1.
        -11    1    4    4    0    0 -0.18213324146E+02 -0.34005848916E+02  0.17407277761E+02  0.42321817731E+02  0.00000000000E+00 0.  1.
         12    1    4    4    0    0 -0.17724020042E+02 -0.33611451454E+01  0.15926905721E+03  0.16028746292E+03  0.00000000000E+00 0. -1.
         -5    1    5    5    0  502  0.44152389017E+02  0.43041344306E+02  0.35698296902E+03  0.36229949067E+03  0.47000000000E+01 0.  1.
         11    1    6    6    0    0 -0.33432698433E+02  0.32144675203E+02  0.32737569099E+03  0.33064462573E+03  0.00000000000E+00 0. -1.
        -12    1    6    6    0    0 -0.58799259604E+02 -0.13781682284E+02  0.13786848065E+03  0.15051579868E+03  0.00000000000E+00 0.  1.
</event>
<event>
12    1  0.8461994E-002  0.2390208E+03  0.7818608E-02  0.1122284E+00
         21   -1    0    0  503  502  0.00000000000E+00  0.00000000000E+00  0.18107589871E+02  0.18107589871E+02  0.00000000000E+00 0.  1.
         21   -1    0    0  501  503 -0.00000000000E+00 -0.00000000000E+00 -0.35568628745E+04  0.35568628745E+04  0.00000000000E+00 0.  1.
          6    2    1    2  501    0  0.10020745110E+03 -0.13169808732E+03 -0.25010596297E+04  0.25124550171E+04  0.17246745187E+03 0.  0.
         24    2    3    3    0    0  0.49742430482E+02 -0.63041159165E+02 -0.67294265102E+03  0.68234729623E+03  0.79356940283E+02 0.  0.
         -6    2    1    2    0  502 -0.10020745110E+03  0.13169808732E+03 -0.10376956549E+04  0.10625154473E+04  0.15729235222E+03 0.  0.
        -24    2    5    5    0    0 -0.11966378474E+02  0.34986509400E+02 -0.55224055667E+03  0.55969504336E+03  0.83196508848E+02 0.  0.
          5    1    3    3  501    0  0.50465020617E+02 -0.68656928155E+02 -0.18281169787E+04  0.18301077209E+04  0.47000000000E+01 0. -1.
        -13    1    4    4    0    0  0.64991208494E+02 -0.29346489954E+02 -0.52647052087E+03  0.53127797150E+03  0.00000000000E+00 0.  1.
         14    1    4    4    0    0 -0.15248778012E+02 -0.33694669211E+02 -0.14647213015E+03  0.15106932473E+03  0.00000000000E+00 0. -1.
         -5    1    5    5    0  502 -0.88241072625E+02  0.96711577919E+02 -0.48545509827E+03  0.50282040396E+03  0.47000000000E+01 0.  1.
         13    1    6    6    0    0 -0.38824025262E+02  0.52713399042E+01 -0.13598471916E+03  0.14151655665E+03  0.00000000000E+00 0. -1.
        -14    1    6    6    0    0  0.26857646788E+02  0.29715169496E+02 -0.41625583751E+03  0.41817848671E+03  0.00000000000E+00 0.  1.
</event>
<event>
12    1  0.8461994E-002  0.2654309E+03  0.7818608E-02  0.1103940E+00
         21   -1    0    0  503  502  0.00000000000E+00  0.00000000000E+00  0.25458776432E+03  0.25458776432E+03  0.00000000000E+00 0. -1.
         21   -1    0    0  501  503 -0.00000000000E+00 -0.00000000000E+00 -0.28631173719E+03  0.28631173719E+03  0.00000000000E+00 0.  1.
          6    2    1    2  501    0 -0.13749110435E+03 -0.14799847917E+03 -0.65636146646E+02  0.27342577951E+03  0.17218071768E+03 0.  0.
         24    2    3    3    0    0 -0.67826421854E+02 -0.14031039744E+03 -0.94520831374E+02  0.19747388948E+03  0.75988935578E+02 0.  0.
         -6    2    1    2    0  502  0.13749110435E+03  0.14799847917E+03  0.33912173776E+02  0.26747372199E+03  0.17200233374E+03 0.  0.
        -24    2    5    5    0    0  0.86399248574E+02  0.12993452996E+03  0.83497577825E+02  0.19387014679E+03  0.79157918626E+02 0.  0.
          5    1    3    3  501    0 -0.69664682498E+02 -0.76880817345E+01  0.28884684728E+02  0.75951890037E+02  0.47000000000E+01 0. -1.
        -11    1    4    4    0    0 -0.85479187977E+01  0.85464632255E+01 -0.12821230222E+02  0.17620808547E+02  0.00000000000E+00 0.  1.
         12    1    4    4    0    0 -0.59278503056E+02 -0.14885686067E+03 -0.81699601152E+02  0.17985308093E+03  0.00000000000E+00 0. -1.
         -5    1    5    5    0  502  0.51091855778E+02  0.18063949210E+02 -0.49585404049E+02  0.73603575203E+02  0.47000000000E+01 0.  1.
         13    1    6    6    0    0  0.59560191286E+02  0.10944142261E+03  0.96589539623E+02  0.15765272130E+03  0.00000000000E+00 0. -1.
        -14    1    6    6    0    0  0.26839057288E+02  0.20493107355E+02 -0.13091961798E+02  0.36217425486E+02  0.00000000000E+00 0.  1.
</event>
<event>
12    1  0.8461994E-002  0.2565844E+03  0.7818608E-02  0.1109233E+00
         21   -1    0    0  503  502  0.00000000000E+00  0.00000000000E+00  0.51209192097E+02  0.51209192097E+02  0.00000000000E+00 0. -1.
         21   -1    0    0  501  503 -0.00000000000E+00 -0.00000000000E+00 -0.14999468038E+04  0.14999468038E+04  0.00000000000E+00 0.  1.
          6    2    1    2  501    0 -0.15911325068E+03  0.10451638798E+03 -0.10178312989E+04  0.10496424970E+04  0.17183747144E+03 0.  0.
         24    2    3    3    0    0 -0.57504235804E+02  0.51471960363E+00 -0.58168938643E+03  0.58987886562E+03  0.79293957814E+02 0.  0.
         -6    2    1    2    0  502  0.15911325068E+03 -0.10451638798E+03 -0.43090631283E+03  0.50151349892E+03  0.17203150080E+03 0.  0.
        -24    2    5    5    0    0  0.13472392312E+03 -0.61492990048E+02 -0.41706919135E+03  0.44994405061E+03  0.81061797548E+02 0.  0.
          5    1    3    3  501    0 -0.10160901487E+03  0.10400166838E+03 -0.43614191247E+03  0.45976363138E+03  0.47000000000E+01 0. -1.
        -13    1    4    4    0    0 -0.58718519370E+02  0.42826747387E+01 -0.20808465010E+03  0.21625315588E+03  0.00000000000E+00 0.  1.
         14    1    4    4    0    0  0.12142835665E+01 -0.37679551350E+01 -0.37360473633E+03  0.37362570974E+03  0.00000000000E+00 0. -1.
         -5    1    5    5    0  502  0.24389327561E+02 -0.43023397931E+02 -0.13837121479E+02  0.51569448312E+02  0.47000000000E+01 0.  1.
         13    1    6    6    0    0  0.47421286293E+02 -0.69258712628E+01 -0.52355259582E+02  0.70977597116E+02  0.00000000000E+00 0. -1.
        -14    1    6    6    0    0  0.87302636822E+02 -0.54567118785E+02 -0.36471393177E+03  0.37896645349E+03  0.00000000000E+00 0.  1.
</event>
<event>
12    1  0.8461994E-002  0.2366429E+03  0.7818608E-02  0.1122989E+00
         21   -1    0    0  503  502  0.00000000000E+00  0.00000000000E+00  0.92516113795E+02  0.92516113795E+02  0.00000000000E+00 0. -1.
         21   -1    0    0  501  503 -0.00000000000E+00 -0.00000000000E+00 -0.61929698957E+03  0.61929698957E+03  0.00000000000E+00 0.  1.
          6    2    1    2  501    0  0.28811995131E+02 -0.15371935101E+03 -0.18489029325E+03  0.29601385295E+03  0.17023516282E+03 0.  0.
         24    2    3    3    0    0 -0.31536594854E+02 -0.22295627513E+02 -0.72547495791E+02  0.11282776846E+03  0.77300157621E+02 0.  0.
         -6    2    1    2    0  502 -0.28811995131E+02  0.15371935101E+03 -0.34189058252E+03  0.41579925041E+03  0.17759525975E+03 0.  0.
        -24    2    5    5    0    0 -0.59894763903E+02  0.24992083787E+02 -0.16837806863E+03  0.19747488091E+03  0.80207029613E+02 0.  0.
          5    1    3    3  501    0  0.60348589984E+02 -0.13142372350E+03 -0.11234279746E+03  0.18318608450E+03  0.47000000000E+01 0. -1.
        -11    1    4    4    0    0 -0.10398648152E+02 -0.32930404596E+02 -0.80717641843E+02  0.87794539323E+02  0.00000000000E+00 0.  1.
         12    1    4    4    0    0 -0.21137946702E+02  0.10634777083E+02  0.81701460517E+01  0.25033229134E+02  0.00000000000E+00 0. -1.
         -5    1    5    5    0  502  0.31082768772E+02  0.12872726723E+03 -0.17351251389E+03  0.21832436950E+03  0.47000000000E+01 0.  1.
         13    1    6    6    0    0 -0.12469798435E+02  0.33709726322E+01  0.68767464632E+01  0.14633829690E+02  0.00000000000E+00 0. -1.
        -14    1    6    6    0    0 -0.47424965468E+02  0.21621111155E+02 -0.17525481509E+03  0.18284105122E+03  0.00000000000E+00 0.  1.
</event>
<event>
12    1  0.8461994E-002  0.2643088E+03  0.7818608E-02  0.1104712E+00
         21   -1    0    0  501  502  0.00000000000E+00  0.00000000000E+00  0.43855253647E+02  0.43855253647E+02  0.00000000000E+00 0.  1.
         21   -1    0    0  502  503 -0.00000000000E+00 -0.00000000000E+00 -0.24078205990E+04  0.24078205990E+04  0.00000000000E+00 0.  1.
         -6    2    1    2    0  503  0.14128091977E+03  0.14154597680E+03 -0.18987305325E+04  0.19170385474E+04  0.17281086633E+03 0.  0.
        -24    2    3    3    0    0  0.65226818201E+01  0.30162635217E+02 -0.76940792256E+03  0.77425349382E+03  0.80793511209E+02 0.  0.
          6    2    1    2  501    0 -0.14128091977E+03 -0.14154597680E+03 -0.46523481282E+03  0.53463730517E+03  0.17145861069E+03 0.  0.
         24    2    5    5    0    0 -0.15436186533E+03 -0.13325119283E+03 -0.31470325841E+03  0.38323798730E+03  0.79055348921E+02 0.  0.
          5    1    5    5  501    0  0.13080945569E+02 -0.82947839610E+01 -0.15053155441E+03  0.15139931786E+03  0.47000000000E+01 0. -1.
        -11    1    6    6    0    0 -0.11649516405E+03 -0.59794577170E+02 -0.23149469691E+03  0.26596298503E+03  0.00000000000E+00 0.  1.
         12    1    6    6    0    0 -0.37866701280E+02 -0.73456615665E+02 -0.83208561501E+02  0.11727500227E+03  0.00000000000E+00 0. -1.
         -5    1    3    3    0  503  0.13475823795E+03  0.11138334158E+03 -0.11293226099E+04  0.11427850536E+04  0.47000000000E+01 0.  1.
         11    1    4    4    0    0 -0.29296064897E+02 -0.11344255884E+02 -0.25280911638E+03  0.25475360818E+03  0.00000000000E+00 0. -1.
        -12    1    4    4    0    0  0.35818746717E+02  0.41506891101E+02 -0.51659880618E+03  0.51949988563E+03  0.00000000000E+00 0.  1.
</event>
<event>
12    1  0.8461994E-002  0.1993133E+03  0.7818608E-02  0.1150798E+00
         21   -1    0    0  503  502  0.00000000000E+00  0.00000000000E+00  0.50392046031E+03  0.50392046031E+03  0.00000000000E+00 0. -1.
         21   -1    0    0  501  503 -0.00000000000E+00 -0.00000000000E+00 -0.14828487450E+03  0.14828487450E+03  0.00000000000E+00 0. -1.
          6    2    1    2  501    0  0.47448547861E+01  0.98219895726E+02 -0.47302661409E+02  0.20266666829E+03  0.17078224467E+03 0.  0.
         24    2    3    3    0    0  0.43887380406E+02  0.11689644412E+03 -0.69691141773E+02  0.15363316113E+03  0.56173055373E+02 0.  0.
         -6    2    1    2    0  502 -0.47448547861E+01 -0.98219895726E+02  0.40293824722E+03  0.44953866652E+03  0.17336700972E+03 0.  0.
        -24    2    5    5    0    0 -0.59888759213E+02 -0.55073731919E+02  0.32646334593E+03  0.34574588173E+03  0.79637422558E+02 0.  0.
          5    1    3    3  501    0 -0.39142525620E+02 -0.18676548390E+02  0.22388480364E+02  0.49033507163E+02  0.47000000000E+01 0. -1.
        -13    1    4    4    0    0  0.52938062310E+02  0.11103215981E+03 -0.53403750774E+02  0.13409899160E+03  0.00000000000E+00 0.  1.
         14    1    4    4    0    0 -0.90506819037E+01  0.58642843113E+01 -0.16287390999E+02  0.19534169523E+02  0.00000000000E+00 0. -1.
         -5    1    5    5    0  502  0.55143904427E+02 -0.43146163808E+02  0.76474901294E+02  0.10379278479E+03  0.47000000000E+01 0.  1.
         11    1    6    6    0    0  0.14127077031E+02  0.56983192739E+01  0.77818554207E+02  0.79295476081E+02  0.00000000000E+00 0. -1.
        -12    1    6    6    0    0 -0.74015836244E+02 -0.60772051193E+02  0.24864479172E+03  0.26645040565E+03  0.00000000000E+00 0.  1.
</event>
<event>
12    1  0.8461994E-002  0.1808478E+03  0.7818608E-02  0.1167531E+00
         21   -1    0    0  501  502  0.00000000000E+00  0.00000000000E+00  0.37341811533E+02  0.37341811533E+02  0.00000000000E+00 0. -1.
         21   -1    0    0  502  503 -0.00000000000E+00 -0.00000000000E+00 -0.87340580986E+03  0.87340580986E+03  0.00000000000E+00 0. -1.
         -6    2    1    2    0  503 -0.60186191267E+01  0.54243313201E+02 -0.46017675644E+03  0.49361795830E+03  0.17005140628E+03 0.  0.
        -24    2    3    3    0    0  0.28828549396E+02  0.46692477706E+02 -0.44335429367E+03  0.45391373277E+03  0.80395113943E+02 0.  0.
          6    2    1    2  501    0  0.60186191267E+01 -0.54243313201E+02 -0.37588724188E+03  0.41712966310E+03  0.17241628816E+03 0.  0.
         24    2    5    5    0    0 -0.55198955417E+02  0.45862328889E+01 -0.18795372755E+03  0.21085411259E+03  0.77877435027E+02 0.  0.
          5    1    5    5  501    0  0.61217574543E+02 -0.58829546090E+02 -0.18793351434E+03  0.20627555051E+03  0.47000000000E+01 0. -1.
        -13    1    6    6    0    0 -0.53949679217E+02  0.94172941375E+01 -0.19481717188E+03  0.20236843572E+03  0.00000000000E+00 0.  1.
         14    1    6    6    0    0 -0.12492761997E+01 -0.48310612486E+01  0.68634443341E+01  0.84856768697E+01  0.00000000000E+00 0. -1.
         -5    1    3    3    0  503 -0.34847168523E+02  0.75508354956E+01 -0.16822462771E+02  0.39704225523E+02  0.47000000000E+01 0.  1.
         11    1    4    4    0    0  0.37781315621E+00 -0.55515519859E+01 -0.28015528748E+03  0.28021054151E+03  0.00000000000E+00 0. -1.
        -12    1    4    4    0    0  0.28450736240E+02  0.52244029692E+02 -0.16319900620E+03  0.17370319126E+03  0.00000000000E+00 0.  1.
</event>
<event>
12    1  0.8461994E-002  0.2064044E+03  0.7818608E-02  0.1144694E+00
         21   -1    0    0  503  502  0.00000000000E+00  0.00000000000E+00  0.11659006058E+03  0.11659006058E+03  0.00000000000E+00 0. -1.
         21   -1    0    0  501  503 -0.00000000000E+00 -0.00000000000E+00 -0.36949558319E+03  0.36949558319E+03  0.00000000000E+00 0. -1.
          6    2    1    2  501    0  0.10496461876E+03 -0.38483609982E+02 -0.94455106818E+02  0.22587548673E+03  0.17204478741E+03 0.  0.
         24    2    3    3    0    0  0.14339096953E+02 -0.15216967899E+02  0.96809275266E+01  0.85801486698E+02  0.82649918018E+02 0.  0.
         -6    2    1    2    0  502 -0.10496461876E+03  0.38483609982E+02 -0.15845041580E+03  0.26021015704E+03  0.17350571211E+03 0.  0.
        -24    2    5    5    0    0 -0.80368328376E+02  0.63994493859E+00 -0.17814683773E+03  0.21074138385E+03  0.78842611184E+02 0.  0.
          5    1    3    3  501    0  0.90625521803E+02 -0.23266642083E+02 -0.10413603434E+03  0.14007400003E+03  0.47000000000E+01 0. -1.
        -11    1    4    4    0    0  0.38059411336E+02  0.15542375448E+02  0.19846005266E+02  0.45650280950E+02  0.00000000000E+00 0.  1.
         12    1    4    4    0    0 -0.23720314383E+02 -0.30759343347E+02 -0.10165077739E+02  0.40151205748E+02  0.00000000000E+00 0. -1.
         -5    1    5    5    0  502 -0.24596290380E+02  0.37843665044E+02  0.19696421931E+02  0.49468773193E+02  0.47000000000E+01 0.  1.
         13    1    6    6    0    0 -0.15136022043E+02  0.10612405469E+02  0.22796250428E+01  0.18625761822E+02  0.00000000000E+00 0. -1.
        -14    1    6    6    0    0 -0.65232306334E+02 -0.99724605308E+01 -0.18042646277E+03  0.19211562203E+03  0.00000000000E+00 0.  1.
</event>
<event>
12    1  0.8461994E-002  0.1779155E+03  0.7818608E-02  0.1169847E+00
         21   -1    0    0  503  502  0.00000000000E+00  0.00000000000E+00  0.13865575301E+04  0.13865575301E+04  0.00000000000E+00 0. -1.
         21   -1    0    0  501  503 -0.00000000000E+00 -0.00000000000E+00 -0.28477358391E+02  0.28477358391E+02  0.00000000000E+00 0. -1.
          6    2    1    2  501    0 -0.54689596908E+01  0.44267845745E+02  0.36384767066E+03  0.40501733409E+03  0.17223345141E+03 0.  0.
         24    2    3    3    0    0 -0.24430235166E+02 -0.92544500960E+01  0.32516451163E+03  0.33615048494E+03  0.81133887273E+02 0.  0.
         -6    2    1    2    0  502  0.54689596908E+01 -0.44267845745E+02  0.99423250105E+03  0.10100175544E+04  0.17218490747E+03 0.  0.
        -24    2    5    5    0    0  0.59212422267E+01 -0.61119891390E+02  0.98807859681E+03  0.99146609787E+03  0.54175709768E+02 0.  0.
          5    1    3    3  501    0  0.18961275475E+02  0.53522295841E+02  0.38683159026E+02  0.68866849151E+02  0.47000000000E+01 0. -1.
        -13    1    4    4    0    0  0.23470532209E+02 -0.92414913908E+01  0.20871827831E+03  0.21023698710E+03  0.00000000000E+00 0.  1.
         14    1    4    4    0    0 -0.47900767375E+02 -0.12958705217E-01  0.11644623333E+03  0.12591349784E+03  0.00000000000E+00 0. -1.
         -5    1    5    5    0  502 -0.45228253593E+00  0.16852045645E+02  0.61539042463E+01  0.18551456530E+02  0.47000000000E+01 0.  1.
         13    1    6    6    0    0 -0.18656347423E+02 -0.47768825267E+02  0.51055956681E+03  0.51312863029E+03  0.00000000000E+00 0. -1.
        -14    1    6    6    0    0  0.24577589649E+02 -0.13351066123E+02  0.47751903000E+03  0.47833746758E+03  0.00000000000E+00 0.  1.
</event>
<event>
12    1  0.8461994E-002  0.2035167E+03  0.7818608E-02  0.1147076E+00
         21   -1    0    0  501  502  0.00000000000E+00  0.00000000000E+00  0.46138274254E+03  0.46138274254E+03  0.00000000000E+00 0. -1.
         21   -1    0    0  502  503 -0.00000000000E+00 -0.00000000000E+00 -0.17378213640E+03  0.17378213640E+03  0.00000000000E+00 0. -1.
         -6    2    1    2    0  503 -0.52164072587E+02  0.95170793039E+02 -0.78002080211E+02  0.21673403374E+03  0.17061871688E+03 0.  0.
        -24    2    3    3    0    0 -0.59383887022E+02  0.67967221371E+02  0.80974701181E+01  0.12602911327E+03  0.87588693048E+02 0.  0.
          6    2    1    2  501    0  0.52164072587E+02 -0.95170793039E+02  0.36560268635E+03  0.41843084519E+03  0.17216410085E+03 0.  0.
         24    2    5    5    0    0 -0.37450719722E+02 -0.35722757231E+02  0.14244212652E+03  0.17066562280E+03  0.78474987132E+02 0.  0.
          5    1    5    5  501    0  0.89614792309E+02 -0.59448035808E+02  0.22316055984E+03  0.24776522239E+03  0.47000000000E+01 0. -1.
        -11    1    6    6    0    0  0.18688587342E+02 -0.30172554401E+02  0.38235129075E+02  0.52168682476E+02  0.00000000000E+00 0.  1.
         12    1    6    6    0    0 -0.56139307064E+02 -0.55502028304E+01  0.10420699744E+03  0.11849694032E+03  0.00000000000E+00 0. -1.
         -5    1    3    3    0  503  0.72198144345E+01  0.27203571668E+02 -0.86099550329E+02  0.90704920477E+02  0.47000000000E+01 0.  1.
         11    1    4    4    0    0 -0.38889015706E+02  0.44550917988E+02 -0.38086177084E+02  0.70339865802E+02  0.00000000000E+00 0. -1.
        -12    1    4    4    0    0 -0.20494871316E+02  0.23416303383E+02  0.46183647202E+02  0.55689247465E+02  0.00000000000E+00 0.  1.
</event>
<event>
12    1  0.8461994E-002  0.4452554E+03  0.7818608E-02  0.1029155E+00
         21   -1    0    0  501  502  0.00000000000E+00  0.00000000000E+00  0.81164480802E+03  0.81164480802E+03  0.00000000000E+00 0. -1.
         21   -1    0    0  502  503 -0.00000000000E+00 -0.00000000000E+00 -0.38112143511E+03  0.38112143511E+03  0.00000000000E+00 0.  1.
         -6    2    1    2    0  503  0.14889053013E+03 -0.38286990339E+03 -0.14222076533E+03  0.46730900458E+03  0.17144447145E+03 0.  0.
        -24    2    3    3    0    0  0.70176984476E+01 -0.16099654381E+03 -0.81250963036E+02  0.19694795922E+03  0.78852041413E+02 0.  0.
          6    2    1    2  501    0 -0.14889053013E+03  0.38286990339E+03  0.57274413824E+03  0.72545723855E+03  0.17173993187E+03 0.  0.
         24    2    5    5    0    0 -0.92037457574E+02  0.10682996774E+03  0.24429303662E+03  0.29263795284E+03  0.77938104263E+02 0.  0.
          5    1    5    5  501    0 -0.56853072557E+02  0.27603993565E+03  0.32845110162E+03  0.43281928571E+03  0.47000000000E+01 0. -1.
        -13    1    6    6    0    0 -0.10193680665E+02 -0.93903820609E+01  0.58579961256E+01  0.15046810936E+02  0.00000000000E+00 0.  1.
         14    1    6    6    0    0 -0.81843776910E+02  0.11622034980E+03  0.23843504050E+03  0.27759114190E+03  0.00000000000E+00 0. -1.
         -5    1    3    3    0  503  0.14187283168E+03 -0.22187335958E+03 -0.60969802292E+02  0.27036104536E+03  0.47000000000E+01 0.  1.
         13    1    4    4    0    0 -0.82887970338E+01  0.59790454731E+01 -0.11383570600E+02  0.15298327381E+02  0.00000000000E+00 0. -1.
        -14    1    4    4    0    0  0.15306495481E+02 -0.16697558928E+03 -0.69867392436E+02  0.18164963184E+03  0.00000000000E+00 0.  1.
</event>
<event>
12    1  0.8461994E-002  0.1924149E+03  0.7818608E-02  0.1159921E+00
         21   -1    0    0  501  502  0.00000000000E+00  0.00000000000E+00  0.36212156335E+03  0.36212156335E+03  0.00000000000E+00 0.  1.
         21   -1    0    0  502  503 -0.00000000000E+00 -0.00000000000E+00 -0.10711781422E+03  0.10711781422E+03  0.00000000000E+00 0.  1.
         -6    2    1    2    0  503 -0.44701995105E+02 -0.34108222052E+01  0.41101643681E+02  0.18152841146E+03  0.17103601077E+03 0.  0.
        -24    2    3    3    0    0 -0.35790320634E+02 -0.68537441979E+02  0.23051361810E+02  0.11319981408E+03  0.79400910713E+02 0.  0.
          6    2    1    2  501    0  0.44701995105E+02  0.34108222052E+01  0.21390210545E+03  0.28771096610E+03  0.18711917920E+03 0.  0.
         24    2    5    5    0    0  0.54104433893E+02 -0.59220964586E+02  0.18653515106E+03  0.21855760924E+03  0.80855757767E+02 0.  0.
          5    1    5    5  501    0 -0.94024387887E+01  0.62631786791E+02  0.27366954393E+02  0.69153356857E+02  0.47000000000E+01 0. -1.
        -11    1    6    6    0    0 -0.12649448159E+02 -0.42594832792E+02  0.61889084240E+02  0.76187840679E+02  0.00000000000E+00 0.  1.
         12    1    6    6    0    0  0.66753882052E+02 -0.16626131794E+02  0.12464606682E+03  0.14236976856E+03  0.00000000000E+00 0. -1.
         -5    1    3    3    0  503 -0.89116744711E+01  0.65126619774E+02  0.18050281871E+02  0.68328597385E+02  0.47000000000E+01 0.  1.
         11    1    4    4    0    0  0.14528230007E+02 -0.26217666743E+02 -0.18686713169E+02  0.35321788823E+02  0.00000000000E+00 0. -1.
        -12    1    4    4    0    0 -0.50318550641E+02 -0.42319775236E+02  0.41738074979E+02  0.77878025255E+02  0.00000000000E+00 0.  1.
</event>
<event>
12    1  0.8461994E-002  0.1996466E+03  0.7818608E-02  0.1150323E+00
         21   -1    0    0  501  502  0.00000000000E+00  0.00000000000E+00  0.39461959181E+03  0.39461959181E+03  0.00000000000E+00 0. -1.
         21   -1    0    0  502  503 -0.00000000000E+00 -0.00000000000E+00 -0.12902822303E+03  0.12902822303E+03  0.00000000000E+00 0. -1.
         -6    2    1    2    0  503  0.89506203005E+02 -0.44510599311E+02  0.96565955407E+01  0.19988000656E+03  0.17281844044E+03 0.  0.
        -24    2    3    3    0    0  0.60082002774E+02 -0.19741206148E+02  0.73375745449E+02  0.12530436401E+03  0.79483465840E+02 0.  0.
          6    2    1    2  501    0 -0.89506203005E+02  0.44510599311E+02  0.25593477323E+03  0.32376780828E+03  0.17126129656E+03 0.  0.
         24    2    5    5    0    0 -0.96307442246E+02  0.45741943447E+02  0.27368939151E+03  0.30414411001E+03  0.78932298858E+02 0.  0.
          5    1    5    5  501    0  0.68012392404E+01 -0.12313441365E+01 -0.17754618279E+02  0.19623698270E+02  0.47000000000E+01 0. -1.
        -13    1    6    6    0    0 -0.20634976349E+02  0.47723174723E+02  0.15385757366E+03  0.16240522352E+03  0.00000000000E+00 0.  1.
         14    1    6    6    0    0 -0.75672465896E+02 -0.19812312754E+01  0.11983181785E+03  0.14173888649E+03  0.00000000000E+00 0. -1.
         -5    1    3    3    0  503  0.29424200231E+02 -0.24769393163E+02 -0.63719149908E+02  0.74575642551E+02  0.47000000000E+01 0.  1.
         13    1    4    4    0    0  0.18532641282E+02  0.28138721114E+02  0.44042424922E+02  0.55452516732E+02  0.00000000000E+00 0. -1.
        -14    1    4    4    0    0  0.41549361492E+02 -0.47879927262E+02  0.29333320526E+02  0.69851847277E+02  0.00000000000E+00 0.  1.
</event>
<event>
12    1  0.8461994E-002  0.1893497E+03  0.7818608E-02  0.1159113E+00
         21   -1    0    0  503  502  0.00000000000E+00  0.00000000000E+00  0.53337709812E+03  0.53337709812E+03  0.00000000000E+00 0.  1.
         21   -1    0    0  501  503 -0.00000000000E+00 -0.00000000000E+00 -0.68849119348E+03  0.68849119348E+03  0.00000000000E+00 0.  1.
          6    2    1    2  501    0 -0.65595433244E+02 -0.41889229645E+02 -0.65794294166E+03  0.68456936130E+03  0.17230446168E+03 0.  0.
         24    2    3    3    0    0 -0.10113007302E+03 -0.54232431272E+02 -0.39891634092E+03  0.42278331289E+03  0.80268513926E+02 0.  0.
         -6    2    1    2    0  502  0.65595433244E+02  0.41889229645E+02  0.50282884630E+03  0.53729893031E+03  0.17261466744E+03 0.  0.
        -24    2    5    5    0    0 -0.25288564485E+01  0.38085006702E+02  0.13516260975E+03  0.16332574616E+03  0.83363693747E+02 0.  0.
          5    1    3    3  501    0  0.35534639779E+02  0.12343201627E+02 -0.25902660074E+03  0.26178604841E+03  0.47000000000E+01 0. -1.
        -13    1    4    4    0    0 -0.84258807536E+02 -0.10013487753E+02 -0.18262680827E+03  0.20137618450E+03  0.00000000000E+00 0.  1.
         14    1    4    4    0    0 -0.16871265487E+02 -0.44218943519E+02 -0.21628953266E+03  0.22140712839E+03  0.00000000000E+00 0. -1.
         -5    1    5    5    0  502  0.68124289693E+02  0.38042229426E+01  0.36766623656E+03  0.37397318415E+03  0.47000000000E+01 0.  1.
         11    1    6    6    0    0 -0.23620718595E+02  0.64285751660E+01  0.16897508611E+01  0.24538137329E+02  0.00000000000E+00 0. -1.
        -12    1    6    6    0    0  0.21091862146E+02  0.31656431536E+02  0.13347285889E+03  0.13878760883E+03  0.00000000000E+00 0.  1.
</event>
<event>
12    1  0.8461994E-002  0.1795745E+03  0.7818608E-02  0.1168312E+00
         21   -1    0    0  503  502  0.00000000000E+00  0.00000000000E+00  0.25886190240E+03  0.25886190240E+03  0.00000000000E+00 0.  1.
         21   -1    0    0  501  503 -0.00000000000E+00 -0.00000000000E+00 -0.19145466764E+03  0.19145466764E+03  0.00000000000E+00 0.  1.
          6    2    1    2  501    0  0.11759732787E+02  0.48367884687E+02 -0.99624846352E+02  0.20535851173E+03  0.17253771977E+03 0.  0.
         24    2    3    3    0    0  0.46992937177E+02 -0.21203095673E+02 -0.82901547537E+02  0.12546321322E+03  0.78806369525E+02 0.  0.
         -6    2    1    2    0  502 -0.11759732787E+02 -0.48367884687E+02  0.16703208112E+03  0.24495805831E+03  0.17212492738E+03 0.  0.
        -24    2    5    5    0    0 -0.71185930515E+02 -0.51243406801E+02  0.11576773893E+03  0.16628236712E+03  0.80958833958E+02 0.  0.
          5    1    3    3  501    0 -0.35233204389E+02  0.69570980359E+02 -0.16723298815E+02  0.79895298504E+02  0.47000000000E+01 0. -1.
        -13    1    4    4    0    0  0.41322772115E+02 -0.44855139960E+02 -0.31601089242E+02  0.68689037826E+02  0.00000000000E+00 0.  1.
         14    1    4    4    0    0  0.56701650614E+01  0.23652044288E+02 -0.51300458295E+02  0.56774175398E+02  0.00000000000E+00 0. -1.
         -5    1    5    5    0  502  0.59426197728E+02  0.28755221140E+01  0.51264342193E+02  0.78675691191E+02  0.47000000000E+01 0.  1.
         11    1    6    6    0    0 -0.36406192714E+02 -0.18889209699E+01  0.96099379631E+02  0.10278166011E+03  0.00000000000E+00 0. -1.
        -12    1    6    6    0    0 -0.34779737801E+02 -0.49354485831E+02  0.19668359295E+02  0.63500707008E+02  0.00000000000E+00 0.  1.
</event>
<event>
12    1  0.8461994E-002  0.1845405E+03  0.7818608E-02  0.1163517E+00
         21   -1    0    0  501  502  0.00000000000E+00  0.00000000000E+00  0.31431043626E+03  0.31431043626E+03  0.00000000000E+00 0.  1.
         21   -1    0    0  502  503 -0.00000000000E+00 -0.00000000000E+00 -0.11521416196E+03  0.11521416196E+03  0.00000000000E+00 0.  1.
         -6    2    1    2    0  503  0.66549032232E+02  0.88877619141E+01  0.46808730813E+02  0.19038446843E+03  0.17189363728E+03 0.  0.
        -24    2    3    3    0    0  0.82745094845E+02  0.39944911454E+02  0.77424261213E+02  0.14362701252E+03  0.78688346204E+02 0.  0.
          6    2    1    2  501    0 -0.66549032232E+02 -0.88877619141E+01  0.15228754349E+03  0.23914012979E+03  0.17172285745E+03 0.  0.
         24    2    5    5    0    0 -0.78507301380E+02 -0.30431569010E+02  0.17190281096E+03  0.20729700584E+03  0.79573836476E+02 0.  0.
          5    1    5    5  501    0  0.11958269147E+02  0.21543807095E+02 -0.19615267467E+02  0.31843123951E+02  0.47000000000E+01 0. -1.
        -13    1    6    6    0    0 -0.40228360507E+02  0.23438729276E+00  0.14677295057E+03  0.15218631656E+03  0.00000000000E+00 0.  1.
         14    1    6    6    0    0 -0.38278940873E+02 -0.30665956302E+02  0.25129860386E+02  0.55110689283E+02  0.00000000000E+00 0. -1.
         -5    1    3    3    0  503 -0.16196062613E+02 -0.31057149540E+02 -0.30615530400E+02  0.46757455912E+02  0.47000000000E+01 0.  1.
         13    1    4    4    0    0  0.59592806641E+02 -0.68179898878E+01  0.67874348142E+02  0.90579880356E+02  0.00000000000E+00 0. -1.
        -14    1    4    4    0    0  0.23152288204E+02  0.46762901342E+02  0.95499130709E+01  0.53047132162E+02  0.00000000000E+00 0.  1.
</event>
<event>
12    1  0.8461994E-002  0.2204199E+03  0.7818608E-02  0.1133616E+00
         21   -1    0    0  503  502  0.00000000000E+00  0.00000000000E+00  0.18735341561E+03  0.18735341561E+03  0.00000000000E+00 0. -1.
         21   -1    0    0  501  503 -0.00000000000E+00 -0.00000000000E+00 -0.26043866778E+03  0.26043866778E+03  0.00000000000E+00 0. -1.
          6    2    1    2  501    0  0.17634332361E+02  0.13698757887E+03 -0.20123633441E+02  0.22133660847E+03  0.17177999646E+03 0.  0.
         24    2    3    3    0    0  0.33645571734E+01 -0.20702755049E+01 -0.81256677621E+00  0.80142696975E+02  0.80041147718E+02 0.  0.
         -6    2    1    2    0  502 -0.17634332361E+02 -0.13698757887E+03 -0.52961618725E+02  0.22645547491E+03  0.17146598094E+03 0.  0.
        -24    2    5    5    0    0  0.26052221289E+02 -0.14844163345E+03 -0.14506155723E+02  0.16695234079E+03  0.70349262733E+02 0.  0.
          5    1    3    3  501    0  0.14269775188E+02  0.13905785438E+03 -0.19311066665E+02  0.14119391150E+03  0.47000000000E+01 0. -1.
        -13    1    4    4    0    0  0.28759595945E+02 -0.29996903022E+02  0.53398483928E+01  0.41898001512E+02  0.00000000000E+00 0.  1.
         14    1    4    4    0    0 -0.25395038772E+02  0.27926627517E+02 -0.61524151690E+01  0.38244695463E+02  0.00000000000E+00 0. -1.
         -5    1    5    5    0  502 -0.43686553650E+02  0.11454054574E+02 -0.38455463003E+02  0.59503134125E+02  0.47000000000E+01 0.  1.
         13    1    6    6    0    0 -0.64452121250E+01 -0.86143625768E+02 -0.35834321849E+02  0.93521995499E+02  0.00000000000E+00 0. -1.
        -14    1    6    6    0    0  0.32497433414E+02 -0.62298007678E+02  0.21328166126E+02  0.73430345290E+02  0.00000000000E+00 0.  1.
</event>
<event>
12    1  0.8461994E-002  0.1780554E+03  0.7818608E-02  0.1170748E+00
         21   -1    0    0  503  502  0.00000000000E+00  0.00000000000E+00  0.20454851693E+03  0.20454851693E+03  0.00000000000E+00 0.  1.
         21   -1    0    0  501  503 -0.00000000000E+00 -0.00000000000E+00 -0.35006820725E+03  0.35006820725E+03  0.00000000000E+00 0.  1.
          6    2    1    2  501    0  0.33457220630E+02  0.36248805763E+02 -0.28131324964E+03  0.33068904184E+03  0.16668754133E+03 0.  0.
         24    2    3    3    0    0  0.37426291126E+01  0.80578082052E+02 -0.12676418380E+03  0.16711781748E+03  0.73159907358E+02 0.  0.
         -6    2    1    2    0  502 -0.33457220630E+02 -0.36248805763E+02  0.13579355933E+03  0.22392768234E+03  0.17108581072E+03 0.  0.
        -24    2    5    5    0    0  0.31953975817E+02 -0.61766892112E+02  0.58992707324E+02  0.11976310957E+03  0.77632836894E+02 0.  0.
          5    1    3    3  501    0  0.29714591517E+02 -0.44329276289E+02 -0.15454906584E+03  0.16357122436E+03  0.47000000000E+01 0. -1.
        -11    1    4    4    0    0  0.23726085989E+02  0.15601325478E+01 -0.49007828835E+02  0.54471354463E+02  0.00000000000E+00 0.  1.
         12    1    4    4    0    0 -0.19983456876E+02  0.79017949504E+02 -0.77756354966E+02  0.11264646302E+03  0.00000000000E+00 0. -1.
         -5    1    5    5    0  502 -0.65411196447E+02  0.25518086349E+02  0.76800852004E+02  0.10416457277E+03  0.47000000000E+01 0.  1.
         11    1    6    6    0    0  0.27922486140E+02  0.11800683345E+02  0.13602225470E+02  0.33225621098E+02  0.00000000000E+00 0. -1.
        -12    1    6    6    0    0  0.40314896771E+01 -0.73567575456E+02  0.45390481854E+02  0.86537488469E+02  0.00000000000E+00 0.  1.
</event>
<event>
12    1  0.8461994E-002  0.2118698E+03  0.7818608E-02  0.1140892E+00
         21   -1    0    0  503  502  0.00000000000E+00  0.00000000000E+00  0.13003724746E+03  0.13003724746E+03  0.00000000000E+00 0. -1.
         21   -1    0    0  501  503 -0.00000000000E+00 -0.00000000000E+00 -0.36698848583E+03  0.36698848583E+03  0.00000000000E+00 0. -1.
          6    2    1    2  501    0 -0.87605948137E+02 -0.87856191988E+02 -0.18647215528E+03  0.27922552400E+03  0.16673786594E+03 0.  0.
         24    2    3    3    0    0 -0.60201076526E+02 -0.12510537982E+02 -0.16875930710E+03  0.19698301944E+03  0.80882155252E+02 0.  0.
         -6    2    1    2    0  502  0.87605948137E+02  0.87856191988E+02 -0.50479083091E+02  0.21780020930E+03  0.17174190147E+03 0.  0.
        -24    2    5    5    0    0 -0.38476202214E+01 -0.33958989798E+01 -0.33946963882E+02  0.87469475249E+02  0.80449837988E+02 0.  0.
          5    1    3    3  501    0 -0.27404871611E+02 -0.75345654007E+02 -0.17712848180E+02  0.82242504560E+02  0.47000000000E+01 0. -1.
        -11    1    4    4    0    0  0.20070661498E+01  0.27501727709E+02 -0.48892886472E+02  0.56132768407E+02  0.00000000000E+00 0.  1.
         12    1    4    4    0    0 -0.62208142676E+02 -0.40012265691E+02 -0.11986642063E+03  0.14085025103E+03  0.00000000000E+00 0. -1.
         -5    1    5    5    0  502  0.91453568358E+02  0.91252090968E+02 -0.16532119208E+02  0.13033073405E+03  0.47000000000E+01 0.  1.
         11    1    6    6    0    0  0.12678547926E+02 -0.68830340638E+00  0.23999676556E+02  0.27151497452E+02  0.00000000000E+00 0. -1.
        -12    1    6    6    0    0 -0.16526168148E+02 -0.27075955734E+01 -0.57946640438E+02  0.60317977797E+02  0.00000000000E+00 0.  1.
</event>
<event>
12    1  0.8461994E-002  0.1987103E+03  0.7818608E-02  0.1151721E+00
         21   -1    0    0  503  502  0.00000000000E+00  0.00000000000E+00  0.55280378415E+03  0.55280378415E+03  0.00000000000E+00 0. -1.
         21   -1    0    0  501  503 -0.00000000000E+00 -0.00000000000E+00 -0.82365253404E+02  0.82365253404E+02  0.00000000000E+00 0.  1.
          6    2    1    2  501    0  0.76338073480E+02 -0.61662065817E+02  0.36060926100E+03  0.41173392278E+03  0.17278909752E+03 0.  0.
         24    2    3    3    0    0  0.64699454696E+02 -0.80382166035E+01  0.93540107939E+02  0.13904546103E+03  0.79581757184E+02 0.  0.
         -6    2    1    2    0  502 -0.76338073480E+02  0.61662065817E+02  0.10982926974E+03  0.22343511477E+03  0.16802104094E+03 0.  0.
        -24    2    5    5    0    0 -0.96775229314E+02  0.79781087382E+02  0.49174262533E+02  0.15674856305E+03  0.80134493259E+02 0.  0.
          5    1    3    3  501    0  0.11638618784E+02 -0.53623849214E+02  0.26706915306E+03  0.27268846175E+03  0.47000000000E+01 0. -1.
        -13    1    4    4    0    0  0.17147187167E+02  0.26154775629E+02  0.32777339940E+01  0.31445855945E+02  0.00000000000E+00 0.  1.
         14    1    4    4    0    0  0.47552267529E+02 -0.34192992233E+02  0.90262373945E+02  0.10759960509E+03  0.00000000000E+00 0. -1.
         -5    1    5    5    0  502  0.20437155834E+02 -0.18119021565E+02  0.60655007211E+02  0.66686551724E+02  0.47000000000E+01 0.  1.
         13    1    6    6    0    0  0.27755893734E+01 -0.47354562006E+01  0.22892596081E+02  0.23541439997E+02  0.00000000000E+00 0. -1.
        -14    1    6    6    0    0 -0.99550818687E+02  0.84516543583E+02  0.26281666452E+02  0.13320712305E+03  0.00000000000E+00 0.  1.
</event>
<event>
12    1  0.8461994E-002  0.1853877E+03  0.7818608E-02  0.1162913E+00
         21   -1    0    0  503  502  0.00000000000E+00  0.00000000000E+00  0.22328738433E+02  0.22328738433E+02  0.00000000000E+00 0.  1.
         21   -1    0    0  501  503 -0.00000000000E+00 -0.00000000000E+00 -0.15862023313E+04  0.15862023313E+04  0.00000000000E+00 0.  1.
          6    2    1    2  501    0 -0.29574696629E+02 -0.62793539474E+02 -0.92967723293E+03  0.94779388367E+03  0.17086777701E+03 0.  0.
         24    2    3    3    0    0 -0.69160535905E+02 -0.35426976683E+02 -0.38056694341E+03  0.39655875464E+03  0.79933704140E+02 0.  0.
         -6    2    1    2    0  502  0.29574696629E+02  0.62793539474E+02 -0.63419635998E+03  0.66073718610E+03  0.17190379521E+03 0.  0.
        -24    2    5    5    0    0 -0.23041754903E+02 -0.19902644082E+02 -0.33572409997E+03  0.34654786461E+03  0.80359899529E+02 0.  0.
          5    1    3    3  501    0  0.39585839276E+02 -0.27366562791E+02 -0.54911028952E+03  0.55123512904E+03  0.47000000000E+01 0. -1.
        -11    1    4    4    0    0 -0.47734070715E+00 -0.14463499233E+02 -0.22220338047E+03  0.22267411830E+03  0.00000000000E+00 0.  1.
         12    1    4    4    0    0 -0.68683195198E+02 -0.20963477450E+02 -0.15836356294E+03  0.17388463634E+03  0.00000000000E+00 0. -1.
         -5    1    5    5    0  502  0.52616451532E+02  0.82696183555E+02 -0.29847226001E+03  0.31418932149E+03  0.47000000000E+01 0.  1.
         13    1    6    6    0    0  0.17079095591E+02 -0.28520976559E+02 -0.67933687628E+02  0.75631524676E+02  0.00000000000E+00 0. -1.
        -14    1    6    6    0    0 -0.40120850494E+02  0.86183324770E+01 -0.26779041234E+03  0.27091633993E+03  0.00000000000E+00 0.  1.
</event>
<event>
12    1  0.8461994E-002  0.1922036E+03  0.7818608E-02  0.1156692E+00
         21   -1    0    0  503  502  0.00000000000E+00  0.00000000000E+00  0.14654716222E+03  0.14654716222E+03  0.00000000000E+00 0. -1.
         21   -1    0    0  501  503 -0.00000000000E+00 -0.00000000000E+00 -0.26155277356E+03  0.26155277356E+03  0.00000000000E+00 0. -1.
          6    2    1    2  501    0 -0.67572462464E+02  0.47955630312E+02 -0.98577581208E+02  0.21519551902E+03  0.17241169254E+03 0.  0.
         24    2    3    3    0    0 -0.85344819257E+02  0.87777454989E+02 -0.72592485900E+02  0.16421562529E+03  0.81905328278E+02 0.  0.
         -6    2    1    2    0  502  0.67572462464E+02 -0.47955630312E+02 -0.16428030134E+02  0.19290441677E+03  0.17342564307E+03 0.  0.
        -24    2    5    5    0    0  0.97635631756E+02 -0.62136724913E+02  0.21536798366E+02  0.14222586317E+03  0.79816497662E+02 0.  0.
          5    1    3    3  501    0  0.17772356793E+02 -0.39821824678E+02 -0.25985095308E+02  0.50979893731E+02  0.47000000000E+01 0. -1.
        -11    1    4    4    0    0 -0.64549489875E+02  0.15298569922E+02 -0.56447492048E+02  0.87103399723E+02  0.00000000000E+00 0.  1.
         12    1    4    4    0    0 -0.20795329382E+02  0.72478885067E+02 -0.16144993852E+02  0.77112225562E+02  0.00000000000E+00 0. -1.
         -5    1    5    5    0  502 -0.30063169292E+02  0.14181094601E+02 -0.37964828500E+02  0.50678553600E+02  0.47000000000E+01 0.  1.
         13    1    6    6    0    0 -0.10641466034E+02 -0.15176075230E+01 -0.94632076404E+01  0.14321181194E+02  0.00000000000E+00 0. -1.
        -14    1    6    6    0    0  0.10827709779E+03 -0.60619117390E+02  0.31000006006E+02  0.12790468198E+03  0.00000000000E+00 0.  1.
</event>
<event>
12    1  0.8461994E-002  0.1869372E+03  0.7818608E-02  0.1161271E+00
         21   -1    0    0  503  502  0.00000000000E+00  0.00000000000E+00  0.28945373027E+02  0.28945373027E+02  0.00000000000E+00 0.  1.
         21   -1    0    0  501  503 -0.00000000000E+00 -0.00000000000E+00 -0.12495656380E+04  0.12495656380E+04  0.00000000000E+00 0.  1.
          6    2    1    2  501    0  0.20585383005E+02  0.71690174248E+02 -0.72845070408E+03  0.75203558373E+03  0.17132965839E+03 0.  0.
         24    2    3    3    0    0  0.62319905724E+02  0.91976145735E+02 -0.59229195743E+03  0.60810995948E+03  0.81514280659E+02 0.  0.
         -6    2    1    2    0  502 -0.20585383005E+02 -0.71690174248E+02 -0.49216956092E+03  0.52647542732E+03  0.17141254272E+03 0.  0.
        -24    2    5    5    0    0  0.18022476633E+02 -0.73613732382E+02 -0.46760709312E+03  0.48043553456E+03  0.80113157876E+02 0.  0.
          5    1    3    3  501    0 -0.41734522719E+02 -0.20285971486E+02 -0.13615874665E+03  0.14392562425E+03  0.47000000000E+01 0. -1.
        -13    1    4    4    0    0  0.81086371676E+02  0.63781805106E+02 -0.47185890920E+03  0.48300512267E+03  0.00000000000E+00 0.  1.
         14    1    4    4    0    0 -0.18766465951E+02  0.28194340629E+02 -0.12043304823E+03  0.12510483681E+03  0.00000000000E+00 0. -1.
         -5    1    5    5    0  502 -0.38607859638E+02  0.19235581339E+01 -0.24562467793E+02  0.46039892765E+02  0.47000000000E+01 0.  1.
         13    1    6    6    0    0  0.47832802083E+02 -0.57040692944E+02 -0.27851019060E+03  0.28828725930E+03  0.00000000000E+00 0. -1.
        -14    1    6    6    0    0 -0.29810325450E+02 -0.16573039438E+02 -0.18909690253E+03  0.19214827526E+03  0.00000000000E+00 0.  1.
</event>
<event>
12    1  0.8461994E-002  0.1836768E+03  0.7818608E-02  0.1164372E+00
         21   -1    0    0  503  502  0.00000000000E+00  0.00000000000E+00  0.12320993456E+03  0.12320993456E+03  0.00000000000E+00 0. -1.
         21   -1    0    0  501  503 -0.00000000000E+00 -0.00000000000E+00 -0.31907526753E+03  0.31907526753E+03  0.00000000000E+00 0. -1.
          6    2    1    2  501    0  0.59392520406E+02  0.27325860304E+02 -0.14257969930E+02  0.18422934790E+03  0.17164786279E+03 0.  0.
         24    2    3    3    0    0 -0.60505883796E+01  0.27753415027E+02 -0.64278552085E+02  0.10172400304E+03  0.73547120079E+02 0.  0.
         -6    2    1    2    0  502 -0.59392520406E+02 -0.27325860304E+02 -0.18160736304E+03  0.25805585420E+03  0.17128168452E+03 0.  0.
        -24    2    5    5    0    0  0.32604786625E+02  0.23848319556E+01 -0.10049812210E+03  0.13177430883E+03  0.78713635324E+02 0.  0.
          5    1    3    3  501    0  0.65443108785E+02 -0.42755472377E+00  0.50020582155E+02  0.82505344855E+02  0.47000000000E+01 0. -1.
        -11    1    4    4    0    0  0.22946088351E+02  0.40696843225E+02 -0.33395272198E+02  0.57428218014E+02  0.00000000000E+00 0.  1.
         12    1    4    4    0    0 -0.28996676731E+02 -0.12943428198E+02 -0.30883279887E+02  0.44295785031E+02  0.00000000000E+00 0. -1.
         -5    1    5    5    0  502 -0.91997307031E+02 -0.29710692259E+02 -0.81109240939E+02  0.12628154537E+03  0.47000000000E+01 0.  1.
         11    1    6    6    0    0 -0.19560634991E+02 -0.14274471846E+02 -0.56694150852E+02  0.61649052942E+02  0.00000000000E+00 0. -1.
        -12    1    6    6    0    0  0.52165421616E+02  0.16659303801E+02 -0.43803971250E+02  0.70125255884E+02  0.00000000000E+00 0.  1.
</event>
<event>
12    1  0.8461994E-002  0.1753127E+03  0.7818608E-02  0.1172818E+00
         21   -1    0    0  501  502  0.00000000000E+00  0.00000000000E+00  0.13139853368E+04  0.13139853368E+04  0.00000000000E+00 0.  1.
         21   -1    0    0  502  503 -0.00000000000E+00 -0.00000000000E+00 -0.11309148336E+03  0.11309148336E+03  0.00000000000E+00 0.  1.
         -6    2    1    2    0  503 -0.20120017796E+02 -0.22315073937E+02 -0.36340075624E+02  0.17748395035E+03  0.17110573893E+03 0.  0.
        -24    2    3    3    0    0  0.10791236477E+02 -0.41256281602E+02  0.34380783765E+02  0.97873618472E+02  0.81109033679E+02 0.  0.
          6    2    1    2  501    0  0.20120017796E+02  0.22315073937E+02  0.12372339291E+04  0.12495928698E+04  0.17271875236E+03 0.  0.
         24    2    5    5    0    0  0.64724811302E+02  0.54309632365E+02  0.71498766108E+03  0.72444860983E+03  0.80495934163E+02 0.  0.
          5    1    5    5  501    0 -0.44604793506E+02 -0.31994558428E+02  0.52224626800E+03  0.52514426000E+03  0.47000000000E+01 0. -1.
        -13    1    6    6    0    0 -0.98005838002E+01 -0.12881342831E+02  0.11358184219E+03  0.11472931322E+03  0.00000000000E+00 0.  1.
         14    1    6    6    0    0  0.74525395102E+02  0.67190975196E+02  0.60140581889E+03  0.60971929661E+03  0.00000000000E+00 0. -1.
         -5    1    3    3    0  503 -0.30911254273E+02  0.18941207665E+02 -0.70720859388E+02  0.79610331874E+02  0.47000000000E+01 0.  1.
         11    1    4    4    0    0 -0.21636519982E+01  0.24221020378E+02  0.44408673310E+01  0.24719638362E+02  0.00000000000E+00 0. -1.
        -12    1    4    4    0    0  0.12954888475E+02 -0.65477301980E+02  0.29939916434E+02  0.73153980110E+02  0.00000000000E+00 0.  1.
</event>
<event>
12    1  0.8461994E-002  0.1939994E+03  0.7818608E-02  0.1155264E+00
         21   -1    0    0  501  502  0.00000000000E+00  0.00000000000E+00  0.11041690997E+04  0.11041690997E+04  0.00000000000E+00 0.  1.
         21   -1    0    0  502  503 -0.00000000000E+00 -0.00000000000E+00 -0.60487829418E+02  0.60487829418E+02  0.00000000000E+00 0.  1.
         -6    2    1    2    0  503 -0.29822471714E+02 -0.82527133880E+02  0.13625932135E+03  0.23707041019E+03  0.17301927374E+03 0.  0.
        -24    2    3    3    0    0  0.35497948233E+02  0.50685723437E+01  0.50152757283E+02  0.97872007230E+02  0.76012077869E+02 0.  0.
          6    2    1    2  501    0  0.29822471714E+02  0.82527133880E+02  0.90742194892E+03  0.92758651891E+03  0.17117841291E+03 0.  0.
         24    2    5    5    0    0  0.73499832812E+02  0.63070028654E+02  0.80252207485E+03  0.81220729897E+03  0.79113601446E+02 0.  0.
          5    1    5    5  501    0 -0.43677361098E+02  0.19457105226E+02  0.10489987406E+03  0.11537921994E+03  0.47000000000E+01 0. -1.
        -13    1    6    6    0    0 -0.13906334253E+02  0.26382909773E+02  0.16447371741E+03  0.16715575903E+03  0.00000000000E+00 0.  1.
         14    1    6    6    0    0  0.87406167065E+02  0.36687118881E+02  0.63804835745E+03  0.64505153994E+03  0.00000000000E+00 0. -1.
         -5    1    3    3    0  503 -0.65320419946E+02 -0.87595706224E+02  0.86106564064E+02  0.13919840296E+03  0.47000000000E+01 0.  1.
         13    1    4    4    0    0 -0.14558377423E+02  0.16160303351E+02  0.40108853011E+02  0.45626985956E+02  0.00000000000E+00 0. -1.
        -14    1    4    4    0    0  0.50056325656E+02 -0.11091731007E+02  0.10043904272E+02  0.52245021274E+02  0.00000000000E+00 0.  1.
</event>
<event>
12    1  0.8461994E-002  0.2031360E+03  0.7818608E-02  0.1147187E+00
         21   -1    0    0  503  502  0.00000000000E+00  0.00000000000E+00  0.18518149177E+03  0.18518149177E+03  0.00000000000E+00 0.  1.
         21   -1    0    0  501  503 -0.00000000000E+00 -0.00000000000E+00 -0.22264862123E+03  0.22264862123E+03  0.00000000000E+00 0.  1.
          6    2    1    2  501    0 -0.10375575274E+03  0.32066443577E+02 -0.13070659064E+02  0.20355609811E+03  0.17167041072E+03 0.  0.
         24    2    3    3    0    0 -0.13303437896E+03  0.14708926456E+02  0.26368253860E+02  0.15124893601E+03  0.65318124064E+02 0.  0.
         -6    2    1    2    0  502  0.10375575274E+03 -0.32066443577E+02 -0.24396470396E+02  0.20427401490E+03  0.17128681317E+03 0.  0.
        -24    2    5    5    0    0  0.32036817618E+02  0.34996594145E+02 -0.43977003039E+02  0.10404156536E+03  0.81483441515E+02 0.  0.
          5    1    3    3  501    0  0.29278626217E+02  0.17357517121E+02 -0.39438912924E+02  0.52307162095E+02  0.47000000000E+01 0. -1.
        -13    1    4    4    0    0 -0.13313504170E+03  0.69054737754E+01  0.36726008681E+02  0.13828023940E+03  0.00000000000E+00 0.  1.
         14    1    4    4    0    0  0.10066274372E+00  0.78034526806E+01 -0.10357754821E+02  0.12968696606E+02  0.00000000000E+00 0. -1.
         -5    1    5    5    0  502  0.71718935120E+02 -0.67063037722E+02  0.19580532643E+02  0.10023244955E+03  0.47000000000E+01 0.  1.
         13    1    6    6    0    0  0.47668277315E+02  0.45783933464E+02 -0.12480766285E+02  0.67262194082E+02  0.00000000000E+00 0. -1.
        -14    1    6    6    0    0 -0.15631459697E+02 -0.10787339319E+02 -0.31496236754E+02  0.36779371276E+02  0.00000000000E+00 0.  1.
</event>
<event>
12    1  0.8461994E-002  0.2109029E+03  0.7818608E-02  0.1140910E+00
         21   -1    0    0  503  502  0.00000000000E+00  0.00000000000E+00  0.18846941968E+03  0.18846941968E+03  0.00000000000E+00 0.  1.
         21   -1    0    0  501  503 -0.00000000000E+00 -0.00000000000E+00 -0.24166773973E+03  0.24166773973E+03  0.00000000000E+00 0.  1.
          6    2    1    2  501    0  0.11794154347E+03 -0.25143292043E+02  0.72709153918E+01  0.21073672160E+03  0.17266935689E+03 0.  0.
         24    2    3    3    0    0  0.98854175942E+02 -0.51909085279E+01  0.67412540615E+02  0.14439269179E+03  0.80657951735E+02 0.  0.
         -6    2    1    2    0  502 -0.11794154347E+03  0.25143292043E+02 -0.60469235438E+02  0.21940043781E+03  0.17302494290E+03 0.  0.
        -24    2    5    5    0    0 -0.13599497023E+03  0.55028029906E+02 -0.72889339073E+02  0.18204574936E+03  0.79404553451E+02 0.  0.
          5    1    3    3  501    0  0.19087367533E+02 -0.19952383515E+02 -0.60141625224E+02  0.66344029813E+02  0.47000000000E+01 0. -1.
        -13    1    4    4    0    0  0.39236225128E+02  0.18327199153E+02  0.67625855966E+02  0.80303324876E+02  0.00000000000E+00 0.  1.
         14    1    4    4    0    0  0.59617950814E+02 -0.23518107681E+02 -0.21331535028E+00  0.64089366915E+02  0.00000000000E+00 0. -1.
         -5    1    5    5    0  502  0.18053426753E+02 -0.29884737863E+02  0.12420103635E+02  0.37354688447E+02  0.47000000000E+01 0.  1.
         11    1    6    6    0    0 -0.63056125183E+02  0.36751402515E+02 -0.77820934548E+02  0.10669038553E+03  0.00000000000E+00 0. -1.
        -12    1    6    6    0    0 -0.72938845045E+02  0.18276627391E+02  0.49315954750E+01  0.75355363838E+02  0.00000000000E+00 0.  1.
</event>
<event>
12    1  0.8461994E-002  0.2871679E+03  0.7818608E-02  0.1092202E+00
         21   -1    0    0  501  502  0.00000000000E+00  0.00000000000E+00  0.58359862592E+03  0.58359862592E+03  0.00000000000E+00 0. -1.
         21   -1    0    0  502  503 -0.00000000000E+00 -0.00000000000E+00 -0.21239071026E+03  0.21239071026E+03  0.00000000000E+00 0.  1.
         -6    2    1    2    0  503  0.23177125857E+02 -0.22878497111E+03 -0.46231590815E+02  0.29086552687E+03  0.17200480389E+03 0.  0.
        -24    2    3    3    0    0 -0.17188343458E+02 -0.16608003121E+03 -0.87179014624E+02  0.20565952873E+03  0.82569033250E+02 0.  0.
          6    2    1    2  501    0 -0.23177125857E+02  0.22878497111E+03  0.41743950647E+03  0.50512380931E+03  0.16737556274E+03 0.  0.
         24    2    5    5    0    0  0.17831019991E+02  0.20550979487E+03  0.39539869183E+03  0.45286207030E+03  0.78687407839E+02 0.  0.
          5    1    5    5  501    0 -0.41008145848E+02  0.23275176241E+02  0.22040814642E+02  0.52261739016E+02  0.47000000000E+01 0. -1.
        -13    1    6    6    0    0  0.36011434529E+01  0.32253490592E+02  0.17443243654E+02  0.36844574074E+02  0.00000000000E+00 0.  1.
         14    1    6    6    0    0  0.14229876538E+02  0.17325630428E+03  0.37795544817E+03  0.41601749622E+03  0.00000000000E+00 0. -1.
         -5    1    3    3    0  503  0.40365469315E+02 -0.62704939904E+02  0.40947423809E+02  0.85205998134E+02  0.47000000000E+01 0.  1.
         11    1    4    4    0    0 -0.49219979437E+01 -0.13434403633E+03 -0.27882894189E+02  0.13729530928E+03  0.00000000000E+00 0. -1.
        -12    1    4    4    0    0 -0.12266345515E+02 -0.31735994874E+02 -0.59296120436E+02  0.68364219455E+02  0.00000000000E+00 0.  1.
</event>
<event>
12    1  0.8461994E-002  0.1952052E+03  0.7818608E-02  0.1154666E+00
         21   -1    0    0  503  502  0.00000000000E+00  0.00000000000E+00  0.34325914802E+02  0.34325914802E+02  0.00000000000E+00 0.  1.
         21   -1    0    0  501  503 -0.00000000000E+00 -0.00000000000E+00 -0.11350725346E+04  0.11350725346E+04  0.00000000000E+00 0.  1.
          6    2    1    2  501    0 -0.77321209095E+02 -0.46378808621E+02 -0.67315368866E+03  0.70088584470E+03  0.17313438562E+03 0.  0.
         24    2    3    3    0    0 -0.78656627145E+02 -0.57585777398E+01 -0.23059976160E+03  0.25644478579E+03  0.79797568224E+02 0.  0.
         -6    2    1    2    0  502  0.77321209095E+02  0.46378808621E+02 -0.42759293111E+03  0.46851260467E+03  0.16893425566E+03 0.  0.
        -24    2    5    5    0    0  0.99042229815E+02  0.62471402461E+02 -0.23817051364E+03  0.27711324062E+03  0.79715212780E+02 0.  0.
          5    1    3    3  501    0  0.13354180505E+01 -0.40620230882E+02 -0.44255392706E+03  0.44444105892E+03  0.47000000000E+01 0. -1.
        -13    1    4    4    0    0 -0.77454388588E+02 -0.24267130823E+02 -0.22126104741E+03  0.23567886424E+03  0.00000000000E+00 0.  1.
         14    1    4    4    0    0 -0.12022385573E+01  0.18508553083E+02 -0.93387141918E+01  0.20765921543E+02  0.00000000000E+00 0. -1.
         -5    1    5    5    0  502 -0.21721020721E+02 -0.16092593839E+02 -0.18942241747E+03  0.19139936405E+03  0.47000000000E+01 0.  1.
         11    1    6    6    0    0 -0.68305942378E+01 -0.96707471240E+01 -0.34739440327E+02  0.36701622333E+02  0.00000000000E+00 0. -1.
        -12    1    6    6    0    0  0.10587282405E+03  0.72142149585E+02 -0.20343107332E+03  0.24041161829E+03  0.00000000000E+00 0.  1.
</event>
<event>
12    1  0.8461994E-002  0.2122687E+03  0.7818608E-02  0.1139838E+00
         21   -1    0    0  503  502  0.00000000000E+00  0.00000000000E+00  0.43882325209E+03  0.43882325209E+03  0.00000000000E+00 0. -1.
         21   -1    0    0  501  503 -0.00000000000E+00 -0.00000000000E+00 -0.20166325925E+03  0.20166325925E+03  0.00000000000E+00 0. -1.
          6    2    1    2  501    0 -0.12216662356E+03  0.20236873038E+02 -0.10598095950E+03  0.23699709706E+03  0.17205070560E+03 0.  0.
         24    2    3    3    0    0 -0.11310176414E+03  0.31560166966E+01 -0.11693690917E+02  0.14063265161E+03  0.82697223653E+02 0.  0.
         -6    2    1    2    0  502  0.12216662356E+03 -0.20236873038E+02  0.34314095234E+03  0.40348941428E+03  0.17240585640E+03 0.  0.
        -24    2    5    5    0    0  0.37636761284E+02  0.37903822885E+02  0.11543822817E+03  0.15369698298E+03  0.86276024860E+02 0.  0.
          5    1    3    3  501    0 -0.90648594202E+01  0.17080856342E+02 -0.94287268588E+02  0.96364445453E+02  0.47000000000E+01 0. -1.
        -11    1    4    4    0    0 -0.19624519027E+02  0.29151864302E+02  0.17572073473E+02  0.39290338577E+02  0.00000000000E+00 0.  1.
         12    1    4    4    0    0 -0.93477245110E+02 -0.25995847605E+02 -0.29265764390E+02  0.10134231304E+03  0.00000000000E+00 0. -1.
         -5    1    5    5    0  502  0.84529862273E+02 -0.58140695923E+02  0.22770272417E+03  0.24979243130E+03  0.47000000000E+01 0.  1.
         13    1    6    6    0    0  0.64401036375E+01  0.13165147736E+02  0.11285026571E+03  0.11379797239E+03  0.00000000000E+00 0. -1.
        -14    1    6    6    0    0  0.31196657647E+02  0.24738675149E+02  0.25879624602E+01  0.39899010591E+02  0.00000000000E+00 0.  1.
</event>
<event>
12    1  0.8461994E-002  0.1967786E+03  0.7818608E-02  0.1152537E+00
         21   -1    0    0  501  502  0.00000000000E+00  0.00000000000E+00  0.20537003241E+03  0.20537003241E+03  0.00000000000E+00 0. -1.
         21   -1    0    0  502  503 -0.00000000000E+00 -0.00000000000E+00 -0.19394957958E+03  0.19394957958E+03  0.00000000000E+00 0.  1.
         -6    2    1    2    0  503 -0.78197401112E+02  0.57304549447E+02 -0.28312365505E+02  0.19856969362E+03  0.17096692152E+03 0.  0.
        -24    2    3    3    0    0 -0.10015791104E+03  0.68135094032E+02 -0.60154124810E+02  0.15812773115E+03  0.81925957096E+02 0.  0.
          6    2    1    2  501    0  0.78197401112E+02 -0.57304549447E+02  0.39732818334E+02  0.20074991837E+03  0.17124014700E+03 0.  0.
         24    2    5    5    0    0  0.11109906037E+03 -0.79051343920E+02  0.34998090743E+02  0.16075054466E+03  0.77612853713E+02 0.  0.
          5    1    5    5  501    0 -0.32901659257E+02  0.21746794473E+02  0.47347275907E+01  0.39999373709E+02  0.47000000000E+01 0. -1.
        -11    1    6    6    0    0  0.57983468719E+02 -0.32427732971E+02 -0.21970242552E+02  0.69973795582E+02  0.00000000000E+00 0.  1.
         12    1    6    6    0    0  0.53115591650E+02 -0.46623610949E+02  0.56968333295E+02  0.90776749075E+02  0.00000000000E+00 0. -1.
         -5    1    3    3    0  503  0.21960509925E+02 -0.10830544585E+02  0.31841759305E+02  0.40441962462E+02  0.47000000000E+01 0.  1.
         13    1    4    4    0    0 -0.31788689913E+02  0.43789859534E+02  0.12391533078E+02  0.55512365257E+02  0.00000000000E+00 0. -1.
        -14    1    4    4    0    0 -0.68369221124E+02  0.24345234498E+02 -0.72545657887E+02  0.10261536590E+03  0.00000000000E+00 0.  1.
</event>
<event>
12    1  0.8461994E-002  0.1966113E+03  0.7818608E-02  0.1155499E+00
         21   -1    0    0  503  502  0.00000000000E+00  0.00000000000E+00  0.51180439970E+03  0.51180439970E+03  0.00000000000E+00 0.  1.
         21   -1    0    0  501  503 -0.00000000000E+00 -0.00000000000E+00 -0.15279800596E+03  0.15279800596E+03  0.00000000000E+00 0.  1.
          6    2    1    2  501    0  0.42279163457E+01 -0.65667436831E+02 -0.61240766968E+02  0.20592826191E+03  0.18527258291E+03 0.  0.
         24    2    3    3    0    0 -0.77897482802E+01 -0.94797458203E+02 -0.96827609975E+02  0.15816325586E+03  0.81196004761E+02 0.  0.
         -6    2    1    2    0  502 -0.42279163457E+01  0.65667436831E+02  0.42024716072E+03  0.45867414375E+03  0.17159314240E+03 0.  0.
        -24    2    5    5    0    0  0.61917078612E+02  0.19428222938E+02  0.23329419384E+03  0.25499123558E+03  0.79894736188E+02 0.  0.
          5    1    3    3  501    0  0.12017664626E+02  0.29130021372E+02  0.35586843007E+02  0.47765006055E+02  0.47000000000E+01 0. -1.
        -11    1    4    4    0    0  0.16816182042E+02 -0.11221518402E+02 -0.60467410057E+02  0.63757463349E+02  0.00000000000E+00 0.  1.
         12    1    4    4    0    0 -0.24605930322E+02 -0.83575939801E+02 -0.36360199918E+02  0.94405792506E+02  0.00000000000E+00 0. -1.
         -5    1    5    5    0  502 -0.66144994958E+02  0.46239213893E+02  0.18695296687E+03  0.20368290818E+03  0.47000000000E+01 0.  1.
         13    1    6    6    0    0  0.45179248944E+02  0.24585039092E+02  0.53024619073E+02  0.73872856383E+02  0.00000000000E+00 0. -1.
        -14    1    6    6    0    0  0.16737829668E+02 -0.51568161537E+01  0.18026957477E+03  0.18111837919E+03  0.00000000000E+00 0.  1.
</event>
<event>
12    1  0.8461994E-002  0.2030118E+03  0.7818608E-02  0.1148827E+00
         21   -1    0    0  501  502  0.00000000000E+00  0.00000000000E+00  0.17945958461E+03  0.17945958461E+03  0.00000000000E+00 0.  1.
         21   -1    0    0  502  503 -0.00000000000E+00 -0.00000000000E+00 -0.12553802002E+04  0.12553802002E+04  0.00000000000E+00 0.  1.
         -6    2    1    2    0  503  0.16124140604E+02 -0.10684553785E+03 -0.11909214158E+04  0.12081008353E+04  0.17186579921E+03 0.  0.
        -24    2    3    3    0    0  0.39084871707E+02 -0.51013409119E+02 -0.10472413676E+04  0.10521826901E+04  0.79018581610E+02 0.  0.
          6    2    1    2  501    0 -0.16124140604E+02  0.10684553785E+03  0.11500080021E+03  0.22673894945E+03  0.16281710683E+03 0.  0.
         24    2    5    5    0    0 -0.56728006922E+02  0.11383337531E+03  0.69888316080E+02  0.16546309730E+03  0.79483053148E+02 0.  0.
          5    1    5    5  501    0  0.40603866318E+02 -0.69878374607E+01  0.45112484133E+02  0.61275852152E+02  0.47000000000E+01 0. -1.
        -13    1    6    6    0    0 -0.27763348778E+02  0.31590200369E+02  0.65901180305E+02  0.78177425516E+02  0.00000000000E+00 0.  1.
         14    1    6    6    0    0 -0.28964658144E+02  0.82243174944E+02  0.39871357745E+01  0.87285671779E+02  0.00000000000E+00 0. -1.
         -5    1    3    3    0  503 -0.22960731102E+02 -0.55832128733E+02 -0.14368004821E+03  0.15591814527E+03  0.47000000000E+01 0.  1.
         13    1    4    4    0    0  0.37631702167E+02 -0.73262718466E+00 -0.73076684843E+03  0.73173551815E+03  0.00000000000E+00 0. -1.
        -14    1    4    4    0    0  0.14531695394E+01 -0.50280781935E+02 -0.31647451912E+03  0.32044717191E+03  0.00000000000E+00 0.  1.
</event>
<event>
12    1  0.8461994E-002  0.1815991E+03  0.7818608E-02  0.1168151E+00
         21   -1    0    0  503  502  0.00000000000E+00  0.00000000000E+00  0.83061078333E+03  0.83061078333E+03  0.00000000000E+00 0.  1.
         21   -1    0    0  501  503 -0.00000000000E+00 -0.00000000000E+00 -0.41108137008E+02  0.41108137008E+02  0.00000000000E+00 0.  1.
          6    2    1    2  501    0 -0.19888618169E+02 -0.54085723632E+02  0.52179013456E+03  0.55248818278E+03  0.17221331237E+03 0.  0.
         24    2    3    3    0    0  0.37057022926E+02 -0.64982241410E+02  0.22891422466E+03  0.25389158411E+03  0.80394648973E+02 0.  0.
         -6    2    1    2    0  502  0.19888618169E+02  0.54085723632E+02  0.26771251176E+03  0.31923073755E+03  0.16406539005E+03 0.  0.
        -24    2    5    5    0    0 -0.22275681915E+01  0.50526204193E+01  0.62392870607E+02  0.10692996988E+03  0.86664047469E+02 0.  0.
          5    1    3    3  501    0 -0.56945641095E+02  0.10896517778E+02  0.29287590990E+03  0.29859659867E+03  0.47000000000E+01 0. -1.
        -11    1    4    4    0    0  0.25761856860E+02 -0.13430510300E+01  0.14848995762E+03  0.15071411536E+03  0.00000000000E+00 0.  1.
         12    1    4    4    0    0  0.11295166066E+02 -0.63639190380E+02  0.80424267039E+02  0.10317746875E+03  0.00000000000E+00 0. -1.
         -5    1    5    5    0  502  0.22116186361E+02  0.49033103213E+02  0.20531964115E+03  0.21230076767E+03  0.47000000000E+01 0.  1.
         13    1    6    6    0    0  0.25935756290E+02  0.21490615254E+02  0.66023557521E+02  0.74118959423E+02  0.00000000000E+00 0. -1.
        -14    1    6    6    0    0 -0.28163324481E+02 -0.16437994835E+02 -0.36306869135E+01  0.32811010461E+02  0.00000000000E+00 0.  1.
</event>
<event>
12    1  0.8461994E-002  0.1938727E+03  0.7818608E-02  0.1155195E+00
         21   -1    0    0  501  502  0.00000000000E+00  0.00000000000E+00  0.32107099389E+03  0.32107099389E+03  0.00000000000E+00 0.  1.
         21   -1    0    0  502  503 -0.00000000000E+00 -0.00000000000E+00 -0.12246714662E+03  0.12246714662E+03  0.00000000000E+00 0.  1.
         -6    2    1    2    0  503  0.77675692734E+02 -0.40143725679E+02  0.50444976679E+02  0.19953474840E+03  0.17211736750E+03 0.  0.
        -24    2    3    3    0    0  0.10842240917E+03 -0.35067581371E+02  0.76232794080E+02  0.15881338621E+03  0.80156713198E+02 0.  0.
          6    2    1    2  501    0 -0.77675692734E+02  0.40143725679E+02  0.14815887059E+03  0.24400339211E+03  0.17303633282E+03 0.  0.
         24    2    5    5    0    0 -0.83280893055E+02 -0.23562053276E+02  0.52210806861E+02  0.12859990223E+03  0.79505276548E+02 0.  0.
          5    1    5    5  501    0  0.56052003210E+01  0.63705778955E+02  0.95948063727E+02  0.11540348988E+03  0.47000000000E+01 0. -1.
        -11    1    6    6    0    0 -0.93657919821E+02 -0.31226498048E+01  0.35399337235E+02  0.10017319983E+03  0.00000000000E+00 0.  1.
         12    1    6    6    0    0  0.10377026766E+02 -0.20439403472E+02  0.16811469626E+02  0.28426702407E+02  0.00000000000E+00 0. -1.
         -5    1    3    3    0  503 -0.30746716440E+02 -0.50761443072E+01 -0.25787817401E+02  0.40721362196E+02  0.47000000000E+01 0.  1.
         11    1    4    4    0    0  0.20989199921E+02 -0.25546830107E+02  0.61238803955E+02  0.69594383047E+02  0.00000000000E+00 0. -1.
        -12    1    4    4    0    0  0.87433209252E+02 -0.95207512648E+01  0.14993990125E+02  0.89219003159E+02  0.00000000000E+00 0.  1.
</event>
<event>
12    1  0.8461994E-002  0.2399892E+03  0.7818608E-02  0.1119861E+00
         21   -1    0    0  501  502  0.00000000000E+00  0.00000000000E+00  0.21372402338E+03  0.21372402338E+03  0.00000000000E+00 0. -1.
         21   -1    0    0  502  503 -0.00000000000E+00 -0.00000000000E+00 -0.27216786631E+03  0.27216786631E+03  0.00000000000E+00 0. -1.
         -6    2    1    2    0  503  0.15878339250E+03 -0.49740745354E+02 -0.55143733625E+02  0.24624309888E+03  0.17294081330E+03 0.  0.
        -24    2    3    3    0    0  0.86150703635E+02  0.32219975794E+02 -0.61919407862E+02  0.13642020935E+03  0.79475718764E+02 0.  0.
          6    2    1    2  501    0 -0.15878339250E+03  0.49740745354E+02 -0.33001093101E+01  0.23964879080E+03  0.17243649477E+03 0.  0.
         24    2    5    5    0    0 -0.10927055361E+03  0.49083017499E+02 -0.67502034153E+02  0.15843345374E+03  0.78711105664E+02 0.  0.
          5    1    5    5  501    0 -0.49512838894E+02  0.65772785439E+00  0.64201924843E+02  0.81215337067E+02  0.47000000000E+01 0. -1.
        -11    1    6    6    0    0 -0.24079116707E+02 -0.75397135390E+01 -0.48101558020E+02  0.54317686121E+02  0.00000000000E+00 0.  1.
         12    1    6    6    0    0 -0.85191436903E+02  0.56622731038E+02 -0.19400476134E+02  0.10411576761E+03  0.00000000000E+00 0. -1.
         -5    1    3    3    0  503  0.72632688869E+02 -0.81960721148E+02  0.67756742369E+01  0.10982288953E+03  0.47000000000E+01 0.  1.
         13    1    4    4    0    0  0.94037617472E+02  0.14039110166E+02 -0.31590387647E+02  0.10019043221E+03  0.00000000000E+00 0. -1.
        -14    1    4    4    0    0 -0.78869138372E+01  0.18180865628E+02 -0.30329020215E+02  0.36229777146E+02  0.00000000000E+00 0.  1.
</event>
<event>
12    1  0.8461994E-002  0.1910886E+03  0.7818608E-02  0.1157781E+00
         21   -1    0    0  501  502  0.00000000000E+00  0.00000000000E+00  0.76942764393E+02  0.76942764393E+02  0.00000000000E+00 0.  1.
         21   -1    0    0  502  503 -0.00000000000E+00 -0.00000000000E+00 -0.35362966377E+04  0.35362966377E+04  0.00000000000E+00 0.  1.
         -6    2    1    2    0  503 -0.59748982415E+02  0.52122618930E+02 -0.34108053865E+04  0.34160800220E+04  0.17240250557E+03 0.  0.
        -24    2    3    3    0    0 -0.10121676162E+03  0.44249264994E+02 -0.19469070855E+04  0.19515658049E+04  0.77194954890E+02 0.  0.
          6    2    1    2  501    0  0.59748982415E+02 -0.52122618930E+02 -0.48548486745E+02  0.19715938002E+03  0.17386246651E+03 0.  0.
         24    2    5    5    0    0 -0.41101610862E+02 -0.33159599072E+02  0.36537058686E+01  0.81930923460E+02  0.62533392891E+02 0.  0.
          5    1    5    5  501    0  0.10085059328E+03 -0.18963019858E+02 -0.52202192614E+02  0.11522845656E+03  0.47000000000E+01 0. -1.
        -13    1    6    6    0    0  0.98043112139E+01 -0.16061355090E+02  0.18321127476E+02  0.26263193973E+02  0.00000000000E+00 0.  1.
         14    1    6    6    0    0 -0.50905922076E+02 -0.17098243982E+02 -0.14667421607E+02  0.55667729487E+02  0.00000000000E+00 0. -1.
         -5    1    3    3    0  503  0.41467779203E+02  0.78733539362E+01 -0.14638983010E+04  0.14645142171E+04  0.47000000000E+01 0.  1.
         13    1    4    4    0    0  0.12696724894E+02  0.88239905002E+01 -0.23086041405E+03  0.23137761432E+03  0.00000000000E+00 0. -1.
        -14    1    4    4    0    0 -0.11391348651E+03  0.35425274493E+02 -0.17160466714E+04  0.17201881906E+04  0.00000000000E+00 0.  1.
</event>
<event>
12    1  0.8461994E-002  0.1947747E+03  0.7818608E-02  0.1154267E+00
         21   -1    0    0  503  502  0.00000000000E+00  0.00000000000E+00  0.27565452254E+03  0.27565452254E+03  0.00000000000E+00 0. -1.
         21   -1    0    0  501  503 -0.00000000000E+00 -0.00000000000E+00 -0.14008626366E+03  0.14008626366E+03  0.00000000000E+00 0.  1.
          6    2    1    2  501    0  0.88398256748E+02 -0.12172859902E+02  0.39501237951E+02  0.19873981146E+03  0.17313213031E+03 0.  0.
         24    2    3    3    0    0  0.12207727436E+03  0.15673336229E+02  0.13679515606E+02  0.14776395236E+03  0.80613535383E+02 0.  0.
         -6    2    1    2    0  502 -0.88398256748E+02  0.12172859902E+02  0.96067020934E+02  0.21700097474E+03  0.17291072903E+03 0.  0.
        -24    2    5    5    0    0 -0.61436125808E+02  0.74622898597E+02  0.50146304009E+02  0.13479534184E+03  0.79449089523E+02 0.  0.
          5    1    3    3  501    0 -0.33679017610E+02 -0.27846196131E+02  0.25821722345E+02  0.50975859100E+02  0.47000000000E+01 0. -1.
        -13    1    4    4    0    0  0.11182534572E+03  0.17914566566E+02  0.39460484956E+02  0.11992901865E+03  0.00000000000E+00 0.  1.
         14    1    4    4    0    0  0.10251928637E+02 -0.22412303366E+01 -0.25780969350E+02  0.27834933714E+02  0.00000000000E+00 0. -1.
         -5    1    5    5    0  502 -0.26962130940E+02 -0.62450038695E+02  0.45920716924E+02  0.82205632901E+02  0.47000000000E+01 0.  1.
         13    1    6    6    0    0  0.17649922229E+02  0.23667895848E+02  0.33326330352E+01  0.29711874588E+02  0.00000000000E+00 0. -1.
        -14    1    6    6    0    0 -0.79086048037E+02  0.50955002749E+02  0.46813670974E+02  0.10508346725E+03  0.00000000000E+00 0.  1.
</event>
<event>
12    1  0.8461994E-002  0.2246655E+03  0.7818608E-02  0.1130550E+00
         21   -1    0    0  501  502  0.00000000000E+00  0.00000000000E+00  0.10224824215E+04  0.10224824215E+04  0.00000000000E+00 0.  1.
         21   -1    0    0  502  503 -0.00000000000E+00 -0.00000000000E+00 -0.80585495196E+02  0.80585495196E+02  0.00000000000E+00 0. -1.
         -6    2    1    2    0  503  0.68758976758E+02 -0.12414141810E+03  0.12665876161E+03  0.25743925411E+03  0.17347518293E+03 0.  0.
        -24    2    3    3    0    0  0.83167088487E+02 -0.20753041658E+02  0.97760111289E+02  0.14902351698E+03  0.72825242250E+02 0.  0.
          6    2    1    2  501    0 -0.68758976758E+02  0.12414141810E+03  0.81523816466E+03  0.84562866256E+03  0.17417141338E+03 0.  0.
         24    2    5    5    0    0 -0.57597424770E+02  0.18010448987E+01  0.29835115196E+03  0.31432270450E+03  0.80403019778E+02 0.  0.
          5    1    5    5  501    0 -0.11161551989E+02  0.12234037320E+03  0.51688701271E+03  0.53130595805E+03  0.47000000000E+01 0. -1.
        -13    1    6    6    0    0  0.72278514762E+00  0.31833868692E+02  0.12448899065E+03  0.12849679532E+03  0.00000000000E+00 0.  1.
         14    1    6    6    0    0 -0.58320209917E+02 -0.30032823793E+02  0.17386216131E+03  0.18582590918E+03  0.00000000000E+00 0. -1.
         -5    1    3    3    0  503 -0.14408111729E+02 -0.10338837644E+03  0.28898650317E+02  0.10841573712E+03  0.47000000000E+01 0.  1.
         13    1    4    4    0    0  0.89567236388E+02 -0.25353221379E+02  0.60686273036E+02  0.11112110242E+03  0.00000000000E+00 0. -1.
        -14    1    4    4    0    0 -0.64001479010E+01  0.46001797209E+01  0.37073838253E+02  0.37902414560E+02  0.00000000000E+00 0.  1.
</event>
<event>
12    1  0.8461994E-002  0.2365537E+03  0.7818608E-02  0.1122119E+00
         21   -1    0    0  501  502  0.00000000000E+00  0.00000000000E+00  0.81936317205E+03  0.81936317205E+03  0.00000000000E+00 0.  1.
         21   -1    0    0  502  503 -0.00000000000E+00 -0.00000000000E+00 -0.15646554369E+03  0.15646554369E+03  0.00000000000E+00 0. -1.
         -6    2    1    2    0  503 -0.10837659982E+03 -0.12123217523E+03 -0.34834187928E+02  0.23910471748E+03  0.17179906162E+03 0.  0.
        -24    2    3    3    0    0 -0.69806236919E+01 -0.39152674844E+02  0.30418624845E+02  0.93165661937E+02  0.78567720930E+02 0.  0.
          6    2    1    2  501    0  0.10837659982E+03  0.12123217523E+03  0.69773181628E+03  0.73672399826E+03  0.17172604480E+03 0.  0.
         24    2    5    5    0    0  0.12887325246E+02  0.17786084711E+02  0.37995449279E+03  0.38912679958E+03  0.81066772488E+02 0.  0.
          5    1    5    5  501    0  0.95489274574E+02  0.10344609052E+03  0.31777732349E+03  0.34759719868E+03  0.47000000000E+01 0. -1.
        -13    1    6    6    0    0  0.19870236808E+02  0.48336134066E+02  0.25523644673E+03  0.26053186351E+03  0.00000000000E+00 0.  1.
         14    1    6    6    0    0 -0.69829115615E+01 -0.30550049355E+02  0.12471804606E+03  0.12859493607E+03  0.00000000000E+00 0. -1.
         -5    1    3    3    0  503 -0.10139597613E+03 -0.82079500387E+02 -0.65252812772E+02  0.14593905555E+03  0.47000000000E+01 0.  1.
         11    1    4    4    0    0 -0.25324568525E+02 -0.35812142070E+02 -0.13137103846E+02  0.45786753412E+02  0.00000000000E+00 0. -1.
        -12    1    4    4    0    0  0.18343944833E+02 -0.33405327743E+01  0.43555728691E+02  0.47378908525E+02  0.00000000000E+00 0.  1.
</event>
<event>
12    1  0.8461994E-002  0.1743383E+03  0.7818608E-02  0.1173692E+00
         21   -1    0    0  501  502  0.00000000000E+00  0.00000000000E+00  0.43114768018E+02  0.43114768018E+02  0.00000000000E+00 0. -1.
         21   -1    0    0  502  503 -0.00000000000E+00 -0.00000000000E+00 -0.70707735064E+03  0.70707735064E+03  0.00000000000E+00 0. -1.
         -6    2    1    2    0  503  0.21078798837E+02  0.19679343114E+01 -0.29406009372E+03  0.34126462875E+03  0.17187792060E+03 0.  0.
        -24    2    3    3    0    0  0.31012154045E+02  0.61369241121E+02 -0.11901976272E+03  0.15609337214E+03  0.73969584653E+02 0.  0.
          6    2    1    2  501    0 -0.21078798837E+02 -0.19679343114E+01 -0.36990248890E+03  0.40892748991E+03  0.17304812100E+03 0.  0.
         24    2    5    5    0    0 -0.78882640610E+02 -0.11093620239E+02 -0.20638466925E+03  0.23518995911E+03  0.79838247490E+02 0.  0.
          5    1    5    5  501    0  0.57803841772E+02  0.91256859279E+01 -0.16351781964E+03  0.17373753080E+03  0.47000000000E+01 0. -1.
        -13    1    6    6    0    0 -0.62620391244E+02  0.11610538752E+02 -0.64727827526E+02  0.90806440663E+02  0.00000000000E+00 0.  1.
         14    1    6    6    0    0 -0.16262249366E+02 -0.22704158992E+02 -0.14165684173E+03  0.14438351844E+03  0.00000000000E+00 0. -1.
         -5    1    3    3    0  503 -0.99333552072E+01 -0.59401306809E+02 -0.17504033101E+03  0.18517125661E+03  0.47000000000E+01 0.  1.
         13    1    4    4    0    0 -0.19068445572E+02  0.32103142586E+02 -0.73203742032E+02  0.82176670826E+02  0.00000000000E+00 0. -1.
        -14    1    4    4    0    0  0.50080599617E+02  0.29266098534E+02 -0.45816020683E+02  0.73916701310E+02  0.00000000000E+00 0.  1.
</event>
<event>
12    1  0.8461994E-002  0.4208547E+03  0.7818608E-02  0.1036798E+00
         21   -1    0    0  501  502  0.00000000000E+00  0.00000000000E+00  0.10788117978E+04  0.10788117978E+04  0.00000000000E+00 0.  1.
         21   -1    0    0  502  503 -0.00000000000E+00 -0.00000000000E+00 -0.23594027356E+03  0.23594027356E+03  0.00000000000E+00 0. -1.
         -6    2    1    2    0  503 -0.21195595901E+03  0.32039063738E+03  0.58738309112E+02  0.42481747872E+03  0.17159315894E+03 0.  0.
        -24    2    3    3    0    0 -0.13597496145E+03  0.16268984362E+03 -0.29595065755E+02  0.22868607518E+03  0.80400731994E+02 0.  0.
          6    2    1    2  501    0  0.21195595901E+03 -0.32039063738E+03  0.78413321515E+03  0.88993459265E+03  0.17188132831E+03 0.  0.
         24    2    5    5    0    0  0.40994562640E+02 -0.90760482463E+02  0.32409237087E+03  0.34806977971E+03  0.78731742978E+02 0.  0.
          5    1    5    5  501    0  0.17096139637E+03 -0.22963015491E+03  0.46004084428E+03  0.54186481294E+03  0.47000000000E+01 0. -1.
        -13    1    6    6    0    0  0.34054450600E+02 -0.72280731141E+02  0.12735537511E+03  0.15034494095E+03  0.00000000000E+00 0.  1.
         14    1    6    6    0    0  0.69401120399E+01 -0.18479751322E+02  0.19673699576E+03  0.19772483877E+03  0.00000000000E+00 0. -1.
         -5    1    3    3    0  503 -0.75980997553E+02  0.15770079376E+03  0.88333374867E+02  0.19613140354E+03  0.47000000000E+01 0.  1.
         13    1    4    4    0    0 -0.18903039865E+02  0.12079606332E+02  0.21636090386E+02  0.31166684336E+02  0.00000000000E+00 0. -1.
        -14    1    4    4    0    0 -0.11707192159E+03  0.15061023729E+03 -0.51231156141E+02  0.19751939084E+03  0.00000000000E+00 0.  1.
</event>
<event>
12    1  0.8461994E-002  0.1950317E+03  0.7818608E-02  0.1154391E+00
         21   -1    0    0  503  502  0.00000000000E+00  0.00000000000E+00  0.57110183099E+03  0.57110183099E+03  0.00000000000E+00 0. -1.
         21   -1    0    0  501  503 -0.00000000000E+00 -0.00000000000E+00 -0.66445489132E+02  0.66445489132E+02  0.00000000000E+00 0. -1.
          6    2    1    2  501    0 -0.57627293574E+02  0.70459134848E+02  0.27972196253E+03  0.34100106227E+03  0.17248754593E+03 0.  0.
         24    2    3    3    0    0  0.20897723365E+02  0.57982353843E+02  0.10053057539E+03  0.14490544382E+03  0.84217117394E+02 0.  0.
         -6    2    1    2    0  502  0.57627293574E+02 -0.70459134848E+02  0.22493437933E+03  0.29654625785E+03  0.17046645827E+03 0.  0.
        -24    2    5    5    0    0 -0.24419320184E+02 -0.75791019783E+02  0.11641821476E+03  0.16031878706E+03  0.76212406325E+02 0.  0.
          5    1    3    3  501    0 -0.78525016939E+02  0.12476781005E+02  0.17919138714E+03  0.19609561845E+03  0.47000000000E+01 0. -1.
        -11    1    4    4    0    0  0.53741100931E+02  0.38783806415E+02  0.61843613446E+02  0.90647239855E+02  0.00000000000E+00 0.  1.
         12    1    4    4    0    0 -0.32843377566E+02  0.19198547428E+02  0.38686961946E+02  0.54258203969E+02  0.00000000000E+00 0. -1.
         -5    1    5    5    0  502  0.82046613759E+02  0.53318849350E+01  0.10851616457E+03  0.13622747079E+03  0.47000000000E+01 0.  1.
         11    1    6    6    0    0  0.20521323880E+02 -0.14022844755E+02  0.51969775256E+01  0.25392390281E+02  0.00000000000E+00 0. -1.
        -12    1    6    6    0    0 -0.44940644064E+02 -0.61768175028E+02  0.11122123723E+03  0.13492639678E+03  0.00000000000E+00 0.  1.
</event>
<event>
12    1  0.8461994E-002  0.1957363E+03  0.7818608E-02  0.1153444E+00
         21   -1    0    0  503  502  0.00000000000E+00  0.00000000000E+00  0.14516826128E+03  0.14516826128E+03  0.00000000000E+00 0. -1.
         21   -1    0    0  501  503 -0.00000000000E+00 -0.00000000000E+00 -0.45652101826E+03  0.45652101826E+03  0.00000000000E+00 0. -1.
          6    2    1    2  501    0  0.83985720659E+02  0.41027823223E+02 -0.35120241699E+03  0.40193769389E+03  0.17167961007E+03 0.  0.
         24    2    3    3    0    0  0.20396875515E+02 -0.17017017345E+02 -0.27108922016E+03  0.28423909980E+03  0.81221235879E+02 0.  0.
         -6    2    1    2    0  502 -0.83985720659E+02 -0.41027823223E+02  0.39849660013E+02  0.19975158565E+03  0.17197621060E+03 0.  0.
        -24    2    5    5    0    0  0.85892878844E+01  0.22927705035E+02  0.35850801341E+02  0.87063863723E+02  0.75467747317E+02 0.  0.
          5    1    3    3  501    0  0.63588845144E+02  0.58044840568E+02 -0.80113196829E+02  0.11769859408E+03  0.47000000000E+01 0. -1.
        -11    1    4    4    0    0 -0.17595622469E+02  0.74166884077E+01 -0.15234558100E+02  0.24427545057E+02  0.00000000000E+00 0.  1.
         12    1    4    4    0    0  0.37992497984E+02 -0.24433705753E+02 -0.25585466206E+03  0.25981155475E+03  0.00000000000E+00 0. -1.
         -5    1    5    5    0  502 -0.92575008543E+02 -0.63955528258E+02  0.39988586719E+01  0.11268772192E+03  0.47000000000E+01 0.  1.
         13    1    6    6    0    0 -0.10338788380E+02  0.32981297721E+01  0.53494896403E+02  0.54584541276E+02  0.00000000000E+00 0. -1.
        -14    1    6    6    0    0  0.18928076264E+02  0.19629575263E+02 -0.17644095062E+02  0.32479322447E+02  0.00000000000E+00 0.  1.
</event>
<event>
12    1  0.8461994E-002  0.2381314E+03  0.7818608E-02  0.1121426E+00
         21   -1    0    0  503  502  0.00000000000E+00  0.00000000000E+00  0.39407764901E+03  0.39407764901E+03  0.00000000000E+00 0. -1.
         21   -1    0    0  501  503 -0.00000000000E+00 -0.00000000000E+00 -0.14334984817E+03  0.14334984817E+03  0.00000000000E+00 0.  1.
          6    2    1    2  501    0 -0.60018370209E+01 -0.16513569985E+03  0.10450715808E+03  0.25798692326E+03  0.16831424499E+03 0.  0.
         24    2    3    3    0    0 -0.55498025661E+02 -0.57333061963E+02  0.26871872121E+02  0.11613979057E+03  0.79995266080E+02 0.  0.
         -6    2    1    2    0  502  0.60018370209E+01  0.16513569985E+03  0.14622064276E+03  0.27944057391E+03  0.17146642986E+03 0.  0.
        -24    2    5    5    0    0 -0.39523262469E+02  0.98286878661E+02  0.14732588444E+03  0.19841828601E+03  0.80265192976E+02 0.  0.
          5    1    3    3  501    0  0.49496188640E+02 -0.10780263789E+03  0.77635285963E+02  0.14184713269E+03  0.47000000000E+01 0. -1.
        -13    1    4    4    0    0 -0.11179670677E+02 -0.12681164083E+02 -0.27968618807E+02  0.32680890394E+02  0.00000000000E+00 0.  1.
         14    1    4    4    0    0 -0.44318354984E+02 -0.44651897879E+02  0.54840490928E+02  0.83458900173E+02  0.00000000000E+00 0. -1.
         -5    1    5    5    0  502  0.45525099490E+02  0.66848821193E+02 -0.11052416829E+01  0.81022287906E+02  0.47000000000E+01 0.  1.
         11    1    6    6    0    0 -0.24180866415E+02  0.28243690853E+02  0.11292656003E+03  0.11888998416E+03  0.00000000000E+00 0. -1.
        -12    1    6    6    0    0 -0.15342396054E+02  0.70043187809E+02  0.34399324411E+02  0.79528301849E+02  0.00000000000E+00 0.  1.
</event>
<event>
12    1  0.8461994E-002  0.1768774E+03  0.7818608E-02  0.1172102E+00
         21   -1    0    0  503  502  0.00000000000E+00  0.00000000000E+00  0.12341773976E+03  0.12341773976E+03  0.00000000000E+00 0.  1.
         21   -1    0    0  501  503 -0.00000000000E+00 -0.00000000000E+00 -0.39219090016E+03  0.39219090016E+03  0.00000000000E+00 0.  1.
          6    2    1    2  501    0 -0.18100841021E+02  0.71734019532E+01 -0.29272567464E+03  0.34201454146E+03  0.17580252512E+03 0.  0.
         24    2    3    3    0    0  0.11556891372E+02 -0.55026243047E+02 -0.22288223207E+03  0.24378738942E+03  0.81205619906E+02 0.  0.
         -6    2    1    2    0  502  0.18100841021E+02 -0.71734019532E+01  0.23952514234E+02  0.17359409846E+03  0.17082766152E+03 0.  0.
        -24    2    5    5    0    0 -0.55421995124E+02  0.21514560505E+01  0.16599343510E+02  0.98970244828E+02  0.80270448172E+02 0.  0.
          5    1    3    3  501    0 -0.29657732393E+02  0.62199645001E+02 -0.69843442567E+02  0.98227152043E+02  0.47000000000E+01 0. -1.
        -13    1    4    4    0    0 -0.32381610806E+02 -0.14345710097E+02 -0.11586394901E+03  0.12115619174E+03  0.00000000000E+00 0.  1.
         14    1    4    4    0    0  0.43938502179E+02 -0.40680532950E+02 -0.10701828306E+03  0.12263119768E+03  0.00000000000E+00 0. -1.
         -5    1    5    5    0  502  0.73522836145E+02 -0.93248580037E+01  0.73531707237E+01  0.74623853634E+02  0.47000000000E+01 0.  1.
         11    1    6    6    0    0 -0.15639374191E+02  0.97585746955E+01 -0.31248690575E+02  0.36280855390E+02  0.00000000000E+00 0. -1.
        -12    1    6    6    0    0 -0.39782620932E+02 -0.76071186449E+01  0.47848034085E+02  0.62689389438E+02  0.00000000000E+00 0.  1.
</event>
<event>
12    1  0.8461994E-002  0.3251613E+03  0.7818608E-02  0.1073375E+00
         21   -1    0    0  501  502  0.00000000000E+00  0.00000000000E+00  0.10117982509E+03  0.10117982509E+03  0.00000000000E+00 0. -1.
         21   -1    0    0  502  503 -0.00000000000E+00 -0.00000000000E+00 -0.10474346290E+04  0.10474346290E+04  0.00000000000E+00 0. -1.
         -6    2    1    2    0  503  0.27595123445E+03 -0.20405752049E+01 -0.43529049919E+03  0.54333019224E+03  0.17197857823E+03 0.  0.
        -24    2    3    3    0    0  0.82186476851E+02 -0.48662481268E+02 -0.17637808726E+03  0.21656405191E+03  0.81658464680E+02 0.  0.
          6    2    1    2  501    0 -0.27595123445E+03  0.20405752049E+01 -0.51096430473E+03  0.60528426186E+03  0.17067884813E+03 0.  0.
         24    2    5    5    0    0 -0.25497349571E+03 -0.85067758144E+01 -0.51584087073E+03  0.58084693320E+03  0.78787734722E+02 0.  0.
          5    1    5    5  501    0 -0.20977738743E+02  0.10547351019E+02  0.48765659935E+01  0.24437328663E+02  0.47000000000E+01 0. -1.
        -13    1    6    6    0    0 -0.84022047508E+02  0.24224279308E+02 -0.23146863765E+03  0.24743534588E+03  0.00000000000E+00 0.  1.
         14    1    6    6    0    0 -0.17095144820E+03 -0.32731055122E+02 -0.28437223308E+03  0.33341158732E+03  0.00000000000E+00 0. -1.
         -5    1    3    3    0  503  0.19376475760E+03  0.46621906063E+02 -0.25891241193E+03  0.32676614033E+03  0.47000000000E+01 0.  1.
         13    1    4    4    0    0  0.12987783354E+02  0.22761351251E+02 -0.35826177360E+02  0.44387798001E+02  0.00000000000E+00 0. -1.
        -14    1    4    4    0    0  0.69198693497E+02 -0.71423832519E+02 -0.14055190990E+03  0.17217625391E+03  0.00000000000E+00 0.  1.
</event>
<event>
12    1  0.8461994E-002  0.2073493E+03  0.7818608E-02  0.1143816E+00
         21   -1    0    0  501  502  0.00000000000E+00  0.00000000000E+00  0.30721180053E+03  0.30721180053E+03  0.00000000000E+00 0.  1.
         21   -1    0    0  502  503 -0.00000000000E+00 -0.00000000000E+00 -0.48753686736E+03  0.48753686736E+03  0.00000000000E+00 0. -1.
         -6    2    1    2    0  503 -0.41718707503E+02 -0.10729284543E+03 -0.42586470500E+03  0.47337127382E+03  0.17166074296E+03 0.  0.
        -24    2    3    3    0    0 -0.65232563623E+02 -0.43715871405E+02 -0.13423989489E+03  0.17393504867E+03  0.77888940213E+02 0.  0.
          6    2    1    2  501    0  0.41718707503E+02  0.10729284543E+03  0.24553963817E+03  0.32137739408E+03  0.17245727086E+03 0.  0.
         24    2    5    5    0    0  0.34920578268E+02  0.11090455990E+03  0.26485852793E+03  0.30005678095E+03  0.79779469697E+02 0.  0.
          5    1    5    5  501    0  0.67981292346E+01 -0.36117144684E+01 -0.19318889758E+02  0.21320613123E+02  0.47000000000E+01 0. -1.
        -13    1    6    6    0    0  0.19800890074E+02  0.88437056878E+02  0.10849775978E+03  0.14136814405E+03  0.00000000000E+00 0.  1.
         14    1    6    6    0    0  0.15119688194E+02  0.22467503025E+02  0.15636076815E+03  0.15868863690E+03  0.00000000000E+00 0. -1.
         -5    1    3    3    0  503  0.23513856120E+02 -0.63576974029E+02 -0.29162481011E+03  0.29943622514E+03  0.47000000000E+01 0.  1.
         13    1    4    4    0    0 -0.55611690303E+02 -0.21802839666E+02 -0.13737400550E+03  0.14979866923E+03  0.00000000000E+00 0. -1.
        -14    1    4    4    0    0 -0.96208733199E+01 -0.21913031739E+02  0.31341106082E+01  0.24136379446E+02  0.00000000000E+00 0.  1.
</event>
<event>
12    1  0.8461994E-002  0.2225775E+03  0.7818608E-02  0.1132027E+00
         21   -1    0    0  503  502  0.00000000000E+00  0.00000000000E+00  0.30636466438E+03  0.30636466438E+03  0.00000000000E+00 0.  1.
         21   -1    0    0  501  503 -0.00000000000E+00 -0.00000000000E+00 -0.42272908789E+03  0.42272908789E+03  0.00000000000E+00 0. -1.
          6    2    1    2  501    0  0.36803311956E+02  0.13752138085E+03 -0.34476681996E+03  0.41037166188E+03  0.17109683447E+03 0.  0.
         24    2    3    3    0    0 -0.33401134547E+02  0.11524143187E+03 -0.18590347135E+03  0.23520113363E+03  0.79769976759E+02 0.  0.
         -6    2    1    2    0  502 -0.36803311956E+02 -0.13752138085E+03  0.22840239644E+03  0.31872209039E+03  0.17073225307E+03 0.  0.
        -24    2    5    5    0    0  0.18631635791E+02 -0.32260645161E+02  0.42137364598E+02  0.97657375888E+02  0.79834319009E+02 0.  0.
          5    1    3    3  501    0  0.70204446502E+02  0.22279948978E+02 -0.15886334861E+03  0.17517052825E+03  0.47000000000E+01 0. -1.
        -13    1    4    4    0    0  0.87274095729E+01  0.95585009704E+02 -0.14099108428E+03  0.17056127229E+03  0.00000000000E+00 0.  1.
         14    1    4    4    0    0 -0.42128544119E+02  0.19656422171E+02 -0.44912387066E+02  0.64639861341E+02  0.00000000000E+00 0. -1.
         -5    1    5    5    0  502 -0.55434947747E+02 -0.10526073569E+03  0.18626503184E+03  0.22106471450E+03  0.47000000000E+01 0.  1.
         11    1    6    6    0    0  0.54047182135E+01 -0.35569027955E+02 -0.14953370180E+02  0.38961134588E+02  0.00000000000E+00 0. -1.
        -12    1    6    6    0    0  0.13226917577E+02  0.33083827946E+01  0.57090734777E+02  0.58696241300E+02  0.00000000000E+00 0.  1.
</event>
<event>
12    1  0.8461994E-002  0.2313680E+03  0.7818608E-02  0.1125966E+00
         21   -1    0    0  501  502  0.00000000000E+00  0.00000000000E+00  0.92316821562E+02  0.92316821562E+02  0.00000000000E+00 0. -1.
         21   -1    0    0  502  503 -0.00000000000E+00 -0.00000000000E+00 -0.58817709055E+03  0.58817709055E+03  0.00000000000E+00 0. -1.
         -6    2    1    2    0  503  0.10549445207E+03 -0.11112141357E+03 -0.19939927850E+03  0.30543614653E+03  0.17336123954E+03 0.  0.
        -24    2    3    3    0    0  0.12787835122E+03 -0.12815497413E+03 -0.19265183698E+03  0.27613087237E+03  0.79730535402E+02 0.  0.
          6    2    1    2  501    0 -0.10549445207E+03  0.11112141357E+03 -0.29646099049E+03  0.37505776558E+03  0.17117873895E+03 0.  0.
         24    2    5    5    0    0 -0.13812534485E+03  0.85664637825E+02 -0.27197249761E+03  0.32674007856E+03  0.79831061745E+02 0.  0.
          5    1    5    5  501    0  0.32630892782E+02  0.25456775744E+02 -0.24488492882E+02  0.48317687016E+02  0.47000000000E+01 0. -1.
        -13    1    6    6    0    0  0.55741534449E+01 -0.43461010380E+01 -0.10723031267E+01  0.71490988841E+01  0.00000000000E+00 0.  1.
         14    1    6    6    0    0 -0.14369949829E+03  0.90010738863E+02 -0.27090019448E+03  0.31959097968E+03  0.00000000000E+00 0. -1.
         -5    1    3    3    0  503 -0.22383899158E+02  0.17033560566E+02 -0.67474415201E+01  0.29305274169E+02  0.47000000000E+01 0.  1.
         11    1    4    4    0    0  0.41443931317E+02 -0.12906800256E+02 -0.11928769148E+02  0.45016446653E+02  0.00000000000E+00 0. -1.
        -12    1    4    4    0    0  0.86434419907E+02 -0.11524817388E+03 -0.18072306783E+03  0.23111442571E+03  0.00000000000E+00 0.  1.
</event>
<event>
12    1  0.8461994E-002  0.2341717E+03  0.7818608E-02  0.1123875E+00
         21   -1    0    0  501  502  0.00000000000E+00  0.00000000000E+00  0.12766938939E+03  0.12766938939E+03  0.00000000000E+00 0. -1.
         21   -1    0    0  502  503 -0.00000000000E+00 -0.00000000000E+00 -0.46708769077E+03  0.46708769077E+03  0.00000000000E+00 0. -1.
         -6    2    1    2    0  503  0.14184855347E+03  0.71980928344E+02 -0.84007118429E+02  0.24878417161E+03  0.17185488625E+03 0.  0.
        -24    2    3    3    0    0  0.13620887982E+03  0.58714497791E+02 -0.12148888794E+03  0.20835179418E+03  0.81551634273E+02 0.  0.
          6    2    1    2  501    0 -0.14184855347E+03 -0.71980928344E+02 -0.25541118294E+03  0.34597290855E+03  0.17076333011E+03 0.  0.
         24    2    5    5    0    0 -0.89661990288E+01  0.12093020111E+02 -0.93275979728E+02  0.12006128191E+03  0.74078803705E+02 0.  0.
          5    1    5    5  501    0 -0.13288235444E+03 -0.84073948455E+02 -0.16213520321E+03  0.22591162664E+03  0.47000000000E+01 0. -1.
        -13    1    6    6    0    0 -0.41395107847E+02  0.11789742901E+02 -0.56541009521E+02  0.71059402960E+02  0.00000000000E+00 0.  1.
         14    1    6    6    0    0  0.32428908818E+02  0.30327720963E+00 -0.36734970208E+02  0.49001878947E+02  0.00000000000E+00 0. -1.
         -5    1    3    3    0  503  0.56396736575E+01  0.13266430553E+02  0.37481769515E+02  0.40432377429E+02  0.47000000000E+01 0.  1.
         11    1    4    4    0    0  0.74302332560E+01  0.31072149715E+02 -0.47606972431E+02  0.57333329558E+02  0.00000000000E+00 0. -1.
        -12    1    4    4    0    0  0.12877864656E+03  0.27642348077E+02 -0.73881915512E+02  0.15101846462E+03  0.00000000000E+00 0.  1.
</event>
<event>
12    1  0.8461994E-002  0.1947512E+03  0.7818608E-02  0.1154293E+00
         21   -1    0    0  503  502  0.00000000000E+00  0.00000000000E+00  0.46342715453E+03  0.46342715453E+03  0.00000000000E+00 0.  1.
         21   -1    0    0  501  503 -0.00000000000E+00 -0.00000000000E+00 -0.15591356815E+03  0.15591356815E+03  0.00000000000E+00 0.  1.
          6    2    1    2  501    0 -0.85481901758E+02  0.22145218046E+02 -0.59775409633E+02  0.20371822644E+03  0.17358124892E+03 0.  0.
         24    2    3    3    0    0 -0.82757046984E+02  0.61535234693E+02 -0.86038922641E+02  0.15606468134E+03  0.79486946214E+02 0.  0.
         -6    2    1    2    0  502  0.85481901758E+02 -0.22145218046E+02  0.36728899601E+03  0.41562249623E+03  0.17332999329E+03 0.  0.
        -24    2    5    5    0    0  0.76521928213E+01  0.28316996981E+02  0.91515333289E+02  0.12462919427E+03  0.79353459051E+02 0.  0.
          5    1    3    3  501    0 -0.27248547742E+01 -0.39390016647E+02  0.26263513008E+02  0.47653545099E+02  0.47000000000E+01 0. -1.
        -11    1    4    4    0    0 -0.38055956819E+01 -0.47480649781E+01 -0.44515756664E+02  0.44929714787E+02  0.00000000000E+00 0.  1.
         12    1    4    4    0    0 -0.78951451302E+02  0.66283299671E+02 -0.41523165977E+02  0.11113496655E+03  0.00000000000E+00 0. -1.
         -5    1    5    5    0  502  0.77829708937E+02 -0.50462215026E+02  0.27577366272E+03  0.29099330197E+03  0.47000000000E+01 0.  1.
         13    1    6    6    0    0  0.24559910327E+02  0.94471650238E+00 -0.30257685334E+01  0.24763621701E+02  0.00000000000E+00 0. -1.
        -14    1    6    6    0    0 -0.16907717506E+02  0.27372280478E+02  0.94541101823E+02  0.99865572565E+02  0.00000000000E+00 0.  1.
</event>
<event>
12    1  0.8461994E-002  0.2089007E+03  0.7818608E-02  0.1143065E+00
         21   -1    0    0  501  502  0.00000000000E+00  0.00000000000E+00  0.16128004275E+03  0.16128004275E+03  0.00000000000E+00 0.  1.
         21   -1    0    0  502  503 -0.00000000000E+00 -0.00000000000E+00 -0.28896939353E+03  0.28896939353E+03  0.00000000000E+00 0.  1.
         -6    2    1    2    0  503 -0.11352179789E+03 -0.21261575385E+02 -0.16054219853E+01  0.20890690538E+03  0.17406971176E+03 0.  0.
        -24    2    3    3    0    0 -0.99045172247E+01 -0.26246265864E+02  0.45579901624E+02  0.94845813169E+02  0.78302202462E+02 0.  0.
          6    2    1    2  501    0  0.11352179789E+03  0.21261575385E+02 -0.12608392879E+03  0.24134253091E+03  0.17032265539E+03 0.  0.
         24    2    5    5    0    0  0.14432623675E+03  0.15228313280E+01 -0.82416658319E+02  0.18418090059E+03  0.79358156133E+02 0.  0.
          5    1    5    5  501    0 -0.30804438855E+02  0.19738744057E+02 -0.43667270471E+02  0.57161630316E+02  0.47000000000E+01 0. -1.
        -11    1    6    6    0    0  0.49536291780E+02 -0.34842458301E+02 -0.46978950300E+02  0.76647654074E+02  0.00000000000E+00 0.  1.
         12    1    6    6    0    0  0.94789944967E+02  0.36365289629E+02 -0.35437708019E+02  0.10753324652E+03  0.00000000000E+00 0. -1.
         -5    1    3    3    0  503 -0.10361728067E+03  0.49846904792E+01 -0.47185323609E+02  0.11406109221E+03  0.47000000000E+01 0.  1.
         13    1    4    4    0    0  0.12942332865E+02 -0.36925644070E+02 -0.38873483671E+01  0.39320715244E+02  0.00000000000E+00 0. -1.
        -14    1    4    4    0    0 -0.22846850090E+02  0.10679378206E+02  0.49467249991E+02  0.55525097925E+02  0.00000000000E+00 0.  1.
</event>
<event>
12    1  0.8461994E-002  0.1732616E+03  0.7818608E-02  0.1174526E+00
         21   -1    0    0  503  502  0.00000000000E+00  0.00000000000E+00  0.16710484582E+03  0.16710484582E+03  0.00000000000E+00 0.  1.
         21   -1    0    0  501  503 -0.00000000000E+00 -0.00000000000E+00 -0.79837594984E+03  0.79837594984E+03  0.00000000000E+00 0.  1.
          6    2    1    2  501    0 -0.27577147025E+02  0.39202183985E+01 -0.74063000077E+03  0.76059314037E+03  0.17086035232E+03 0.  0.
         24    2    3    3    0    0 -0.12159431474E+02  0.36161962669E+02 -0.70332786936E+03  0.70872045938E+03  0.78479668679E+02 0.  0.
         -6    2    1    2    0  502  0.27577147025E+02 -0.39202183985E+01  0.10935889675E+03  0.20488765529E+03  0.17100794088E+03 0.  0.
        -24    2    5    5    0    0 -0.47545355850E+02  0.78450540062E+01  0.31333168961E+02  0.95837592158E+02  0.76687488277E+02 0.  0.
          5    1    3    3  501    0 -0.15417715551E+02 -0.32241744271E+02 -0.37302131404E+02  0.51872680996E+02  0.47000000000E+01 0. -1.
        -11    1    4    4    0    0  0.29410319253E+02  0.31839521480E+02 -0.28007180727E+03  0.28340596189E+03  0.00000000000E+00 0.  1.
         12    1    4    4    0    0 -0.41569750727E+02  0.43224411897E+01 -0.42325606210E+03  0.42531449749E+03  0.00000000000E+00 0. -1.
         -5    1    5    5    0  502  0.75122502875E+02 -0.11765272405E+02  0.78025727790E+02  0.10905006314E+03  0.47000000000E+01 0.  1.
         11    1    6    6    0    0  0.16443673739E+02  0.19463852404E+02  0.73209937066E+01  0.26510995931E+02  0.00000000000E+00 0. -1.
        -12    1    6    6    0    0 -0.63989029589E+02 -0.11618798397E+02  0.24012175254E+02  0.69326596226E+02  0.00000000000E+00 0.  1.
</event>
<event>
12    1  0.8461994E-002  0.2435499E+03  0.7818608E-02  0.1117477E+00
         21   -1    0    0  501  502  0.00000000000E+00  0.00000000000E+00  0.48891960633E+03  0.48891960633E+03  0.00000000000E+00 0. -1.
         21   -1    0    0  502  503 -0.00000000000E+00 -0.00000000000E+00 -0.12133012076E+03  0.12133012076E+03  0.00000000000E+00 0.  1.
         -6    2    1    2    0  503  0.15907208567E+03  0.66576948121E+02  0.17560535367E+03  0.30025623454E+03  0.17198880104E+03 0.  0.
        -24    2    3    3    0    0  0.16386513601E+02  0.52365935154E+02  0.48359193525E+02  0.10848866523E+03  0.80127834696E+02 0.  0.
          6    2    1    2  501    0 -0.15907208567E+03 -0.66576948121E+02  0.19198413189E+03  0.30999349254E+03  0.17176041469E+03 0.  0.
         24    2    5    5    0    0 -0.12638285264E+03 -0.98753605382E+01  0.65782473857E+02  0.16775213258E+03  0.87995999527E+02 0.  0.
          5    1    5    5  501    0 -0.32689233038E+02 -0.56701587582E+02  0.12620165804E+03  0.14224135996E+03  0.47000000000E+01 0. -1.
        -11    1    6    6    0    0 -0.13108488566E+03 -0.10432094153E+02  0.79210720110E+02  0.15351356298E+03  0.00000000000E+00 0.  1.
         12    1    6    6    0    0  0.47020330280E+01  0.55673361443E+00 -0.13428246253E+02  0.14238569603E+02  0.00000000000E+00 0. -1.
         -5    1    3    3    0  503  0.14268557207E+03  0.14211012967E+02  0.12724616015E+03  0.19176756931E+03  0.47000000000E+01 0.  1.
         13    1    4    4    0    0  0.11270050138E+02  0.50682338789E+02  0.69454892173E+02  0.86716178087E+02  0.00000000000E+00 0. -1.
        -14    1    4    4    0    0  0.51164634621E+01  0.16835963651E+01 -0.21095698648E+02  0.21772487146E+02  0.00000000000E+00 0.  1.
</event>
<event>
12    1  0.8461994E-002  0.1925318E+03  0.7818608E-02  0.1156540E+00
         21   -1    0    0  501  502  0.00000000000E+00  0.00000000000E+00  0.35606953022E+03  0.35606953022E+03  0.00000000000E+00 0.  1.
         21   -1    0    0  502  503 -0.00000000000E+00 -0.00000000000E+00 -0.11438683612E+03  0.11438683612E+03  0.00000000000E+00 0.  1.
         -6    2    1    2    0  503  0.70280150234E+02  0.44737025699E+02  0.47960103340E+02  0.19841538672E+03  0.17357359589E+03 0.  0.
        -24    2    3    3    0    0 -0.29203560047E+02  0.23118631258E+02  0.14265930016E+02  0.91075967565E+02  0.81877934011E+02 0.  0.
          6    2    1    2  501    0 -0.70280150234E+02 -0.44737025699E+02  0.19372259076E+03  0.27204097962E+03  0.17186375835E+03 0.  0.
         24    2    5    5    0    0 -0.99374396833E+02 -0.62211666444E+02  0.19004025832E+03  0.23758103437E+03  0.81141148132E+02 0.  0.
          5    1    5    5  501    0  0.29094246599E+02  0.17474640745E+02  0.36823324371E+01  0.34459945248E+02  0.47000000000E+01 0. -1.
        -13    1    6    6    0    0 -0.58947568665E+02  0.24779261767E+00  0.12719165516E+03  0.14018771128E+03  0.00000000000E+00 0.  1.
         14    1    6    6    0    0 -0.40426828168E+02 -0.62459459062E+02  0.62848603168E+02  0.97393323088E+02  0.00000000000E+00 0. -1.
         -5    1    3    3    0  503  0.99483710281E+02  0.21618394441E+02  0.33694173324E+02  0.10733941916E+03  0.47000000000E+01 0.  1.
         11    1    4    4    0    0 -0.26356867954E+02  0.29231536992E+01 -0.31377840117E+02  0.41082820818E+02  0.00000000000E+00 0. -1.
        -12    1    4    4    0    0 -0.28466920931E+01  0.20195477559E+02  0.45643770133E+02  0.49993146747E+02  0.00000000000E+00 0.  1.
</event>
<event>
12    1  0.8461994E-002  0.1725429E+03  0.7818608E-02  0.1175400E+00
         21   -1    0    0  503  502  0.00000000000E+00  0.00000000000E+00  0.72083809961E+02  0.72083809961E+02  0.00000000000E+00 0.  1.
         21   -1    0    0  501  503 -0.00000000000E+00 -0.00000000000E+00 -0.10193576527E+04  0.10193576527E+04  0.00000000000E+00 0.  1.
          6    2    1    2  501    0 -0.33336206145E+01 -0.45640630308E+01 -0.89471849900E+03  0.91107210809E+03  0.17175345699E+03 0.  0.
         24    2    3    3    0    0 -0.11511284248E+02  0.51484503467E+02 -0.75672331437E+03  0.76183043506E+03  0.70514349621E+02 0.  0.
         -6    2    1    2    0  502  0.33336206145E+01  0.45640630308E+01 -0.52555343716E+02  0.18036935455E+03  0.17245027170E+03 0.  0.
        -24    2    5    5    0    0 -0.13847101369E+02 -0.21410066868E+02  0.33124566317E+02  0.89084253820E+02  0.78667872765E+02 0.  0.
          5    1    3    3  501    0  0.81776636338E+01 -0.56048566498E+02 -0.13799518463E+03  0.14924167303E+03  0.47000000000E+01 0. -1.
        -11    1    4    4    0    0 -0.29871968904E+02  0.41698794489E+02 -0.69080197896E+03  0.69270375928E+03  0.00000000000E+00 0.  1.
         12    1    4    4    0    0  0.18360684655E+02  0.97857089781E+01 -0.65921335412E+02  0.69126675776E+02  0.00000000000E+00 0. -1.
         -5    1    5    5    0  502  0.17180721983E+02  0.25974129899E+02 -0.85679910033E+02  0.91285100729E+02  0.47000000000E+01 0.  1.
         13    1    6    6    0    0 -0.22630942054E+02  0.44393818220E+01 -0.19237376478E+02  0.30032387567E+02  0.00000000000E+00 0. -1.
        -14    1    6    6    0    0  0.87838406848E+01 -0.25849448690E+02  0.52361942795E+02  0.59051866253E+02  0.00000000000E+00 0.  1.
</event>
<event>
12    1  0.8461994E-002  0.1745266E+03  0.7818608E-02  0.1173270E+00
         21   -1    0    0  501  502  0.00000000000E+00  0.00000000000E+00  0.81283787398E+03  0.81283787398E+03  0.00000000000E+00 0. -1.
         21   -1    0    0  502  503 -0.00000000000E+00 -0.00000000000E+00 -0.37529024676E+02  0.37529024676E+02  0.00000000000E+00 0. -1.
         -6    2    1    2    0  503 -0.25387733852E+02 -0.94788714099E+01  0.36445153327E+03  0.40397774759E+03  0.17215898005E+03 0.  0.
        -24    2    3    3    0    0  0.34826319942E+02  0.17117385802E+02  0.29679533294E+03  0.30946560755E+03  0.78585082186E+02 0.  0.
          6    2    1    2  501    0  0.25387733852E+02  0.94788714099E+01  0.41085731604E+03  0.44638915107E+03  0.17240984316E+03 0.  0.
         24    2    5    5    0    0 -0.27093844469E+02 -0.12211960069E+02  0.10525883718E+03  0.13552370026E+03  0.80025259441E+02 0.  0.
          5    1    5    5  501    0  0.52481578321E+02  0.21690831479E+02  0.30559847885E+03  0.31086545081E+03  0.47000000000E+01 0. -1.
        -11    1    6    6    0    0 -0.20991292774E+02 -0.38266565567E+02  0.98777046029E+02  0.10799013490E+03  0.00000000000E+00 0.  1.
         12    1    6    6    0    0 -0.61025516955E+01  0.26054605498E+02  0.64817911552E+01  0.27533565360E+02  0.00000000000E+00 0. -1.
         -5    1    3    3    0  503 -0.60214053794E+02 -0.26596257212E+02  0.67656200324E+02  0.94512140037E+02  0.47000000000E+01 0.  1.
         13    1    4    4    0    0 -0.13378933528E+02 -0.19081509877E+02  0.46500093063E+02  0.52013061209E+02  0.00000000000E+00 0. -1.
        -14    1    4    4    0    0  0.48205253470E+02  0.36198895679E+02  0.25029523988E+03  0.25745254634E+03  0.00000000000E+00 0.  1.
</event>
<event>
12    1  0.8461994E-002  0.2391985E+03  0.7818608E-02  0.1120349E+00
         21   -1    0    0  501  502  0.00000000000E+00  0.00000000000E+00  0.21483281694E+03  0.21483281694E+03  0.00000000000E+00 0.  1.
         21   -1    0    0  502  503 -0.00000000000E+00 -0.00000000000E+00 -0.27667872595E+03  0.27667872595E+03  0.00000000000E+00 0. -1.
         -6    2    1    2    0  503  0.68904185437E+02 -0.15134040895E+03 -0.78773861802E+02  0.25171476402E+03  0.17176523214E+03 0.  0.
        -24    2    3    3    0    0  0.51479140906E+02 -0.14069331601E+03  0.32788504723E+00  0.16988464048E+03  0.80099765552E+02 0.  0.
          6    2    1    2  501    0 -0.68904185437E+02  0.15134040895E+03  0.16927952798E+02  0.23979677887E+03  0.17194252940E+03 0.  0.
         24    2    5    5    0    0 -0.51980625345E+02  0.13914638920E+03 -0.45954676729E+02  0.17337828671E+03  0.76710461821E+02 0.  0.
          5    1    5    5  501    0 -0.16923560092E+02  0.12194019753E+02  0.62882629527E+02  0.66418492155E+02  0.47000000000E+01 0. -1.
        -13    1    6    6    0    0 -0.19560643830E+01  0.18575876521E+02  0.19796678004E+02  0.27217601591E+02  0.00000000000E+00 0.  1.
         14    1    6    6    0    0 -0.50024560962E+02  0.12057051268E+03 -0.65751354732E+02  0.14616068512E+03  0.00000000000E+00 0. -1.
         -5    1    3    3    0  503  0.17425044531E+02 -0.10647092936E+02 -0.79101746849E+02  0.81830123545E+02  0.47000000000E+01 0.  1.
         11    1    4    4    0    0  0.63839735472E+01 -0.57732617823E+02 -0.36423251780E+02  0.68559926701E+02  0.00000000000E+00 0. -1.
        -12    1    4    4    0    0  0.45095167359E+02 -0.82960698190E+02  0.36751136828E+02  0.10132471377E+03  0.00000000000E+00 0.  1.
</event>
<event>
12    1  0.8461994E-002  0.2122962E+03  0.7818608E-02  0.1140285E+00
         21   -1    0    0  501  502  0.00000000000E+00  0.00000000000E+00  0.28756711178E+03  0.28756711178E+03  0.00000000000E+00 0. -1.
         21   -1    0    0  502  503 -0.00000000000E+00 -0.00000000000E+00 -0.15703010262E+03  0.15703010262E+03  0.00000000000E+00 0. -1.
         -6    2    1    2    0  503 -0.12069123541E+03  0.28439994173E+02  0.92386589129E+02  0.23152742407E+03  0.17232080162E+03 0.  0.
        -24    2    3    3    0    0 -0.42343361182E+02 -0.33397633219E+01 -0.18139321420E+02  0.92292337669E+02  0.79904482701E+02 0.  0.
          6    2    1    2  501    0  0.12069123541E+03 -0.28439994173E+02  0.38150420027E+02  0.21306979033E+03  0.16902092602E+03 0.  0.
         24    2    5    5    0    0  0.69781271565E+01 -0.47948224472E+02  0.47004361582E+02  0.97260791037E+02  0.70018033226E+02 0.  0.
          5    1    5    5  501    0  0.11371310825E+03  0.19508230300E+02 -0.88539415546E+01  0.11580899930E+03  0.47000000000E+01 0. -1.
        -11    1    6    6    0    0  0.11344045883E+02  0.13904194451E+02 -0.22329847439E+01  0.18083147436E+02  0.00000000000E+00 0.  1.
         12    1    6    6    0    0 -0.43659187264E+01 -0.61852418924E+02  0.49237346326E+02  0.79177643601E+02  0.00000000000E+00 0. -1.
         -5    1    3    3    0  503 -0.78347874224E+02  0.31779757495E+02  0.11052591055E+03  0.13923508640E+03  0.47000000000E+01 0.  1.
         13    1    4    4    0    0  0.47179890853E+01  0.29167066986E+02  0.61035491850E+01  0.30170027017E+02  0.00000000000E+00 0. -1.
        -14    1    4    4    0    0 -0.47061350267E+02 -0.32506830308E+02 -0.24242870604E+02  0.62122310652E+02  0.00000000000E+00 0.  1.
</event>
<event>
12    1  0.8461994E-002  0.2526815E+03  0.7818608E-02  0.1111790E+00
         21   -1    0    0  501  502  0.00000000000E+00  0.00000000000E+00  0.29227819205E+03  0.29227819205E+03  0.00000000000E+00 0.  1.
         21   -1    0    0  502  503 -0.00000000000E+00 -0.00000000000E+00 -0.22078937466E+03  0.22078937466E+03  0.00000000000E+00 0. -1.
         -6    2    1    2    0  503 -0.17711341636E+03  0.51906895651E+02  0.67036719734E+02  0.26142275802E+03  0.17258171557E+03 0.  0.
        -24    2    3    3    0    0 -0.14908213121E+03 -0.24032518194E+02  0.28415675202E+02  0.17161060627E+03  0.76417967840E+02 0.  0.
          6    2    1    2  501    0  0.17711341636E+03 -0.51906895651E+02  0.44520976545E+01  0.25164480869E+03  0.17100234062E+03 0.  0.
         24    2    5    5    0    0  0.74530422272E+02 -0.32801141978E+02  0.64842296978E+02  0.13099089589E+03  0.79519762139E+02 0.  0.
          5    1    5    5  501    0  0.10258299409E+03 -0.19105753673E+02 -0.60390199324E+02  0.12065391280E+03  0.47000000000E+01 0. -1.
        -11    1    6    6    0    0 -0.90659575687E-01  0.19167707029E+02  0.25524688190E+02  0.31920509380E+02  0.00000000000E+00 0.  1.
         12    1    6    6    0    0  0.74621081848E+02 -0.51968849007E+02  0.39317608788E+02  0.99070386514E+02  0.00000000000E+00 0. -1.
         -5    1    3    3    0  503 -0.28031285150E+02  0.75939413845E+02  0.38621044532E+02  0.89812151756E+02  0.47000000000E+01 0.  1.
         11    1    4    4    0    0 -0.13937303230E+03  0.34458630064E+01  0.29269048290E+02  0.14245488160E+03  0.00000000000E+00 0. -1.
        -12    1    4    4    0    0 -0.97090989100E+01 -0.27478381200E+02 -0.85337308774E+00  0.29155724664E+02  0.00000000000E+00 0.  1.
</event>
<event>
12    1  0.8461994E-002  0.2427677E+03  0.7818608E-02  0.1118614E+00
         21   -1    0    0  503  502  0.00000000000E+00  0.00000000000E+00  0.14848871836E+03  0.14848871836E+03  0.00000000000E+00 0. -1.
         21   -1    0    0  501  503 -0.00000000000E+00 -0.00000000000E+00 -0.39197304559E+03  0.39197304559E+03  0.00000000000E+00 0. -1.
          6    2    1    2  501    0  0.23603171680E+02 -0.16995773412E+03 -0.13928268761E+03  0.27988535515E+03  0.17173643719E+03 0.  0.
         24    2    3    3    0    0 -0.29978231712E+02 -0.26344946326E+02 -0.38959858251E+02  0.96630451539E+02  0.78910221367E+02 0.  0.
         -6    2    1    2    0  502 -0.23603171680E+02  0.16995773412E+03 -0.10420163963E+03  0.26057640880E+03  0.16613049695E+03 0.  0.
        -24    2    5    5    0    0 -0.76534240346E+02  0.12207536176E+03 -0.42867802329E+02  0.16635141630E+03  0.71240868427E+02 0.  0.
          5    1    3    3  501    0  0.53581403392E+02 -0.14361278780E+03 -0.10032282936E+03  0.18325490362E+03  0.47000000000E+01 0. -1.
        -11    1    4    4    0    0 -0.17371837844E+02  0.26571933984E+01  0.21879364055E+02  0.28063285593E+02  0.00000000000E+00 0.  1.
         12    1    4    4    0    0 -0.12606393868E+02 -0.29002139724E+02 -0.60839222307E+02  0.68567165946E+02  0.00000000000E+00 0. -1.
         -5    1    5    5    0  502  0.52931068667E+02  0.47882372366E+02 -0.61333837296E+02  0.94224992497E+02  0.47000000000E+01 0.  1.
         13    1    6    6    0    0 -0.43855600987E+02  0.86961289170E+02  0.63814008784E+01  0.97602775725E+02  0.00000000000E+00 0. -1.
        -14    1    6    6    0    0 -0.32678639359E+02  0.35114072588E+02 -0.49249203208E+02  0.68748640574E+02  0.00000000000E+00 0.  1.
</event>
<event>
12    1  0.8461994E-002  0.1971553E+03  0.7818608E-02  0.1152436E+00
         21   -1    0    0  503  502  0.00000000000E+00  0.00000000000E+00  0.47017566287E+03  0.47017566287E+03  0.00000000000E+00 0.  1.
         21   -1    0    0  501  503 -0.00000000000E+00 -0.00000000000E+00 -0.82152721087E+02  0.82152721087E+02  0.00000000000E+00 0.  1.
          6    2    1    2  501    0 -0.31903516203E+02  0.88839697685E+02  0.18975788648E+03  0.27272283908E+03  0.17163730726E+03 0.  0.
         24    2    3    3    0    0 -0.44614400418E+02  0.10230551423E+03  0.20709283653E+03  0.24692583759E+03  0.75020419645E+02 0.  0.
         -6    2    1    2    0  502  0.31903516203E+02 -0.88839697685E+02  0.19826505531E+03  0.27960554488E+03  0.17308929008E+03 0.  0.
        -24    2    5    5    0    0 -0.13383198650E+01 -0.12289678700E+03  0.17126353254E+03  0.22468672088E+03  0.77765761158E+02 0.  0.
          5    1    3    3  501    0  0.12710884215E+02 -0.13465816547E+02 -0.17334950045E+02  0.25797001490E+02  0.47000000000E+01 0. -1.
        -13    1    4    4    0    0  0.20341086665E+02  0.36146092408E+02  0.71638463611E+02  0.82779038842E+02  0.00000000000E+00 0.  1.
         14    1    4    4    0    0 -0.64955487084E+02  0.66159421824E+02  0.13545437291E+03  0.16414679875E+03  0.00000000000E+00 0. -1.
         -5    1    5    5    0  502  0.33241836068E+02  0.34057089312E+02  0.27001522769E+02  0.54918823999E+02  0.47000000000E+01 0.  1.
         11    1    6    6    0    0  0.10314903174E+02 -0.20015115273E+02 -0.22500097515E+01  0.22628844663E+02  0.00000000000E+00 0. -1.
        -12    1    6    6    0    0 -0.11653223039E+02 -0.10288167172E+03  0.17351354229E+03  0.20205787622E+03  0.00000000000E+00 0.  1.
</event>
<event>
12    1  0.8461994E-002  0.2442024E+03  0.7818608E-02  0.1118174E+00
         21   -1    0    0  503  502  0.00000000000E+00  0.00000000000E+00  0.87944292470E+03  0.87944292470E+03  0.00000000000E+00 0. -1.
         21   -1    0    0  501  503 -0.00000000000E+00 -0.00000000000E+00 -0.68592118713E+02  0.68592118713E+02  0.00000000000E+00 0.  1.
          6    2    1    2  501    0 -0.16137700700E+03  0.28687257032E+02  0.31704443805E+03  0.40018995223E+03  0.18102299594E+03 0.  0.
         24    2    3    3    0    0 -0.13053527092E+03  0.77966262404E+02  0.16965252796E+03  0.24167781321E+03  0.80672114935E+02 0.  0.
         -6    2    1    2    0  502  0.16137700700E+03 -0.28687257032E+02  0.49380636794E+03  0.54784509119E+03  0.17153430508E+03 0.  0.
        -24    2    5    5    0    0  0.12209007213E+03 -0.84512698906E+02  0.35323799361E+03  0.39150731241E+03  0.80327539186E+02 0.  0.
          5    1    3    3  501    0 -0.30841736086E+02 -0.49279005372E+02  0.14739191009E+03  0.15851213901E+03  0.47000000000E+01 0. -1.
        -13    1    4    4    0    0 -0.11037235677E+03  0.23909257154E+02  0.96758951455E+02  0.14871450637E+03  0.00000000000E+00 0.  1.
         14    1    4    4    0    0 -0.20162914143E+02  0.54057005250E+02  0.72893576507E+02  0.92963306844E+02  0.00000000000E+00 0. -1.
         -5    1    5    5    0  502  0.39286934873E+02  0.55825441874E+02  0.14056837433E+03  0.15633777878E+03  0.47000000000E+01 0.  1.
         11    1    6    6    0    0 -0.19460218073E+01 -0.14521603179E+02  0.99149925513E+02  0.10022660170E+03  0.00000000000E+00 0. -1.
        -12    1    6    6    0    0  0.12403609394E+03 -0.69991095727E+02  0.25408806809E+03  0.29128071070E+03  0.00000000000E+00 0.  1.
</event>
<event>
12    1  0.8461994E-002  0.1760915E+03  0.7818608E-02  0.1171661E+00
         21   -1    0    0  503  502  0.00000000000E+00  0.00000000000E+00  0.13368956587E+03  0.13368956587E+03  0.00000000000E+00 0.  1.
         21   -1    0    0  501  503 -0.00000000000E+00 -0.00000000000E+00 -0.25373504232E+03  0.25373504232E+03  0.00000000000E+00 0.  1.
          6    2    1    2  501    0  0.36465925864E+02 -0.93911108419E+01 -0.11694682197E+03  0.21138774023E+03  0.17201819915E+03 0.  0.
         24    2    3    3    0    0  0.54821319484E+02 -0.55866238604E+02 -0.11668342449E+03  0.16119792698E+03  0.79014786128E+02 0.  0.
         -6    2    1    2    0  502 -0.36465925864E+02  0.93911108419E+01 -0.30986544787E+01  0.17603686796E+03  0.17193434942E+03 0.  0.
        -24    2    5    5    0    0  0.22452541811E+02 -0.44005758869E+02  0.62320920039E+01  0.95838586447E+02  0.81887558481E+02 0.  0.
          5    1    3    3  501    0 -0.18355393620E+02  0.46475127763E+02 -0.26339747220E+00  0.50189813247E+02  0.47000000000E+01 0. -1.
        -11    1    4    4    0    0  0.44343256356E+02 -0.98889465120E+01 -0.10223909753E+03  0.11187917014E+03  0.00000000000E+00 0.  1.
         12    1    4    4    0    0  0.10478063128E+02 -0.45977292092E+02 -0.14444326959E+02  0.49318756841E+02  0.00000000000E+00 0. -1.
         -5    1    5    5    0  502 -0.58918467674E+02  0.53396869711E+02 -0.93307464826E+01  0.80198281515E+02  0.47000000000E+01 0.  1.
         11    1    6    6    0    0  0.46945462564E+02 -0.36065707231E+02 -0.16538362144E+02  0.61466487746E+02  0.00000000000E+00 0. -1.
        -12    1    6    6    0    0 -0.24492920753E+02 -0.79400516381E+01  0.22770454148E+02  0.34372098701E+02  0.00000000000E+00 0.  1.
</event>
<event>
12    1  0.8461994E-002  0.2663296E+03  0.7818608E-02  0.1105223E+00
         21   -1    0    0  503  502  0.00000000000E+00  0.00000000000E+00  0.11256612229E+04  0.11256612229E+04  0.00000000000E+00 0. -1.
         21   -1    0    0  501  503 -0.00000000000E+00 -0.00000000000E+00 -0.87233804143E+02  0.87233804143E+02  0.00000000000E+00 0. -1.
          6    2    1    2  501    0 -0.14288091192E+03  0.12146279650E+03  0.18980733018E+03  0.32704472985E+03  0.18911178390E+03 0.  0.
         24    2    3    3    0    0 -0.54211535986E+02  0.12972073989E+03  0.67313536942E+02  0.17552815901E+03  0.80701061697E+02 0.  0.
         -6    2    1    2    0  502  0.14288091192E+03 -0.12146279650E+03  0.84862008862E+03  0.88585029724E+03  0.17148331806E+03 0.  0.
        -24    2    5    5    0    0  0.94428471787E+00 -0.30894868459E+02  0.27569937479E+03  0.28868299231E+03  0.79826939184E+02 0.  0.
          5    1    3    3  501    0 -0.88669375935E+02 -0.82579433933E+01  0.12249379324E+03  0.15151657084E+03  0.47000000000E+01 0. -1.
        -11    1    4    4    0    0 -0.62608303900E+01  0.59025136368E+02  0.67789993348E+02  0.90103539989E+02  0.00000000000E+00 0.  1.
         12    1    4    4    0    0 -0.47950705596E+02  0.70695603522E+02 -0.47645640668E+00  0.85424619022E+02  0.00000000000E+00 0. -1.
         -5    1    5    5    0  502  0.14193662720E+03 -0.90567928038E+02  0.57292071383E+03  0.59716730492E+03  0.47000000000E+01 0.  1.
         13    1    6    6    0    0  0.22726014923E+02 -0.31688803242E+02  0.25706817930E+03  0.26000903987E+03  0.00000000000E+00 0. -1.
        -14    1    6    6    0    0 -0.21781730205E+02  0.79393478356E+00  0.18631195485E+02  0.28673952437E+02  0.00000000000E+00 0.  1.
</event>
<event>
12    1  0.8461994E-002  0.2070193E+03  0.7818608E-02  0.1144347E+00
         21   -1    0    0  503  502  0.00000000000E+00  0.00000000000E+00  0.73421602286E+03  0.73421602286E+03  0.00000000000E+00 0.  1.
         21   -1    0    0  501  503 -0.00000000000E+00 -0.00000000000E+00 -0.58195482290E+02  0.58195482290E+02  0.00000000000E+00 0. -1.
          6    2    1    2  501    0 -0.85925268097E+02 -0.71131368382E+02  0.30769072988E+03  0.37085116152E+03  0.17439660399E+03 0.  0.
         24    2    3    3    0    0 -0.87176343846E+02 -0.98395800521E+02  0.30670162882E+03  0.34313865945E+03  0.79980010008E+02 0.  0.
         -6    2    1    2    0  502  0.85925268097E+02  0.71131368382E+02  0.36832981070E+03  0.42156034363E+03  0.17205653319E+03 0.  0.
        -24    2    5    5    0    0  0.10083342159E+03 -0.23756329010E+01  0.21269999684E+03  0.24873597834E+03  0.80344730535E+02 0.  0.
          5    1    3    3  501    0  0.12510757485E+01  0.27264432139E+02  0.98910106218E+00  0.27712502076E+02  0.47000000000E+01 0. -1.
        -13    1    4    4    0    0 -0.20195459890E+02 -0.82066228800E+02  0.18143082134E+03  0.20014960765E+03  0.00000000000E+00 0.  1.
         14    1    4    4    0    0 -0.66980883955E+02 -0.16329571721E+02  0.12527080748E+03  0.14298905180E+03  0.00000000000E+00 0. -1.
         -5    1    5    5    0  502 -0.14908153491E+02  0.73507001283E+02  0.15562981385E+03  0.17282436529E+03  0.47000000000E+01 0.  1.
         13    1    6    6    0    0  0.90607136862E+02 -0.21792288916E+02  0.11213304110E+03  0.14580252403E+03  0.00000000000E+00 0. -1.
        -14    1    6    6    0    0  0.10226284726E+02  0.19416656015E+02  0.10056695574E+03  0.10293345431E+03  0.00000000000E+00 0.  1.
</event>
<event>
12    1  0.8461994E-002  0.1977557E+03  0.7818608E-02  0.1152391E+00
         21   -1    0    0  501  502  0.00000000000E+00  0.00000000000E+00  0.87638494586E+03  0.87638494586E+03  0.00000000000E+00 0. -1.
         21   -1    0    0  502  503 -0.00000000000E+00 -0.00000000000E+00 -0.16063883750E+03  0.16063883750E+03  0.00000000000E+00 0.  1.
         -6    2    1    2    0  503  0.60799436355E+02  0.66229283636E+02 -0.85094792647E+02  0.21212774465E+03  0.17226191350E+03 0.  0.
        -24    2    3    3    0    0 -0.17663490853E+02  0.73695054363E+01 -0.98183308801E+00  0.82829699798E+02  0.80582173295E+02 0.  0.
          6    2    1    2  501    0 -0.60799436355E+02 -0.66229283636E+02  0.80084090101E+03  0.82489603871E+03  0.17613754991E+03 0.  0.
         24    2    5    5    0    0  0.11684551384E+02 -0.75911696107E+02  0.62170969736E+03  0.63135597643E+03  0.78665792009E+02 0.  0.
          5    1    5    5  501    0 -0.72483987739E+02  0.96824124715E+01  0.17913120364E+03  0.19354006228E+03  0.47000000000E+01 0. -1.
        -11    1    6    6    0    0 -0.18547049289E+02 -0.77452884427E+02  0.45693017168E+03  0.46381906401E+03  0.00000000000E+00 0.  1.
         12    1    6    6    0    0  0.30231600672E+02  0.15411883192E+01  0.16477952568E+03  0.16753691242E+03  0.00000000000E+00 0. -1.
         -5    1    3    3    0  503  0.78462927208E+02  0.58859778200E+02 -0.84112959559E+02  0.12929804485E+03  0.47000000000E+01 0.  1.
         11    1    4    4    0    0 -0.31995283574E+02  0.36259044938E+02 -0.99214036966E+01  0.49364468619E+02  0.00000000000E+00 0. -1.
        -12    1    4    4    0    0  0.14331792721E+02 -0.28889539501E+02  0.89395706086E+01  0.33465231179E+02  0.00000000000E+00 0.  1.
</event>
<event>
12    1  0.8461994E-002  0.2728771E+03  0.7818608E-02  0.1099787E+00
         21   -1    0    0  501  502  0.00000000000E+00  0.00000000000E+00  0.18393142313E+03  0.18393142313E+03  0.00000000000E+00 0.  1.
         21   -1    0    0  502  503 -0.00000000000E+00 -0.00000000000E+00 -0.40662984579E+03  0.40662984579E+03  0.00000000000E+00 0. -1.
         -6    2    1    2    0  503  0.20276588078E+03  0.61909624652E+02 -0.84983438335E+02  0.28580425759E+03  0.17179954841E+03 0.  0.
        -24    2    3    3    0    0  0.19742307638E+03  0.97830642208E+02 -0.85245916562E+02  0.24918426365E+03  0.79241563090E+02 0.  0.
          6    2    1    2  501    0 -0.20276588078E+03 -0.61909624652E+02 -0.13771498433E+03  0.30475701133E+03  0.17018993806E+03 0.  0.
         24    2    5    5    0    0 -0.57081987068E+02  0.21758674878E+02 -0.27698592909E+02  0.10388422170E+03  0.79327966629E+02 0.  0.
          5    1    5    5  501    0 -0.14568389371E+03 -0.83668299530E+02 -0.11001639142E+03  0.20087278963E+03  0.47000000000E+01 0. -1.
        -13    1    6    6    0    0 -0.51898093125E+02 -0.17507395697E+01  0.15705539420E+02  0.54250724673E+02  0.00000000000E+00 0.  1.
         14    1    6    6    0    0 -0.51838939423E+01  0.23509414448E+02 -0.43404132329E+02  0.49633497029E+02  0.00000000000E+00 0. -1.
         -5    1    3    3    0  503  0.53428044017E+01 -0.35921017556E+02  0.26247822655E+00  0.36619993937E+02  0.47000000000E+01 0.  1.
         13    1    4    4    0    0  0.46666014024E+02  0.43254177779E+02 -0.58893726856E+02  0.86701279248E+02  0.00000000000E+00 0. -1.
        -14    1    4    4    0    0  0.15075706236E+03  0.54576464429E+02 -0.26352189706E+02  0.16248298441E+03  0.00000000000E+00 0.  1.
</event>
<event>
12    1  0.8461994E-002  0.1884385E+03  0.7818608E-02  0.1160363E+00
         21   -1    0    0  503  502  0.00000000000E+00  0.00000000000E+00  0.38043026695E+03  0.38043026695E+03  0.00000000000E+00 0.  1.
         21   -1    0    0  501  503 -0.00000000000E+00 -0.00000000000E+00 -0.10012347592E+03  0.10012347592E+03  0.00000000000E+00 0.  1.
          6    2    1    2  501    0  0.72338777194E+02  0.12840164120E+02  0.72234111476E+02  0.19983450150E+03  0.17122585269E+03 0.  0.
         24    2    3    3    0    0  0.10124535406E+03 -0.30550004419E+02  0.67293007673E+02  0.14725312249E+03  0.77273596489E+02 0.  0.
         -6    2    1    2    0  502 -0.72338777194E+02 -0.12840164120E+02  0.20807267956E+03  0.28071924137E+03  0.17352603262E+03 0.  0.
        -24    2    5    5    0    0 -0.98776815474E+02  0.35607561197E+02  0.16399769003E+03  0.20993190735E+03  0.78430897593E+02 0.  0.
          5    1    3    3  501    0 -0.28906576862E+02  0.43390168539E+02  0.49411038024E+01  0.52581379009E+02  0.47000000000E+01 0. -1.
        -13    1    4    4    0    0  0.63763816280E+02  0.11198531925E+02  0.73595620218E+01  0.65156692189E+02  0.00000000000E+00 0.  1.
         14    1    4    4    0    0  0.37481537775E+02 -0.41748536345E+02  0.59933445651E+02  0.82096430303E+02  0.00000000000E+00 0. -1.
         -5    1    5    5    0  502  0.26438038280E+02 -0.48447725317E+02  0.44074989527E+02  0.70787334025E+02  0.47000000000E+01 0.  1.
         11    1    6    6    0    0  0.43034523222E+01  0.14851341635E+02  0.60301431649E+02  0.62252266699E+02  0.00000000000E+00 0. -1.
        -12    1    6    6    0    0 -0.10308026780E+03  0.20756219562E+02  0.10369625838E+03  0.14767964065E+03  0.00000000000E+00 0.  1.
</event>
<event>
12    1  0.8461994E-002  0.2101603E+03  0.7818608E-02  0.1141618E+00
         21   -1    0    0  503  502  0.00000000000E+00  0.00000000000E+00  0.54850408718E+03  0.54850408718E+03  0.00000000000E+00 0.  1.
         21   -1    0    0  501  503 -0.00000000000E+00 -0.00000000000E+00 -0.24460775204E+03  0.24460775204E+03  0.00000000000E+00 0.  1.
          6    2    1    2  501    0  0.16192676346E+02 -0.11942471103E+03 -0.17329126350E+03  0.27169515063E+03  0.17106702926E+03 0.  0.
         24    2    3    3    0    0 -0.11660479438E+02 -0.11818241962E+03 -0.59710870020E+02  0.15464841912E+03  0.79042358578E+02 0.  0.
         -6    2    1    2    0  502 -0.16192676346E+02  0.11942471103E+03  0.47718759865E+03  0.52141668859E+03  0.17217111971E+03 0.  0.
        -24    2    5    5    0    0 -0.66155086657E+02  0.32635024479E+02  0.24382589126E+03  0.26743151459E+03  0.81406445902E+02 0.  0.
          5    1    3    3  501    0  0.27853155785E+02 -0.12422914091E+01 -0.11358039348E+03  0.11704673152E+03  0.47000000000E+01 0. -1.
        -11    1    4    4    0    0 -0.24647325302E+02 -0.57350558405E+02 -0.67524098232E+02  0.91956952080E+02  0.00000000000E+00 0.  1.
         12    1    4    4    0    0  0.12986845863E+02 -0.60831861215E+02  0.78132282123E+01  0.62691467038E+02  0.00000000000E+00 0. -1.
         -5    1    5    5    0  502  0.49962410311E+02  0.86789686550E+02  0.23336170739E+03  0.25398517400E+03  0.47000000000E+01 0.  1.
         13    1    6    6    0    0 -0.20066128598E+02  0.19577258377E+02  0.11638485747E+02  0.30354125139E+02  0.00000000000E+00 0. -1.
        -14    1    6    6    0    0 -0.46088958059E+02  0.13057766101E+02  0.23218740551E+03  0.23707738945E+03  0.00000000000E+00 0.  1.
</event>
<event>
12    1  0.8461994E-002  0.2349690E+03  0.7818608E-02  0.1125500E+00
         21   -1    0    0  501  502  0.00000000000E+00  0.00000000000E+00  0.43408612328E+03  0.43408612328E+03  0.00000000000E+00 0. -1.
         21   -1    0    0  502  503 -0.00000000000E+00 -0.00000000000E+00 -0.21661133914E+03  0.21661133914E+03  0.00000000000E+00 0. -1.
         -6    2    1    2    0  503  0.55178425037E+02 -0.12818272420E+03 -0.10999655728E+03  0.24764916198E+03  0.17249752301E+03 0.  0.
        -24    2    3    3    0    0  0.50390349296E+02 -0.12264981195E+03 -0.17856543129E+02  0.15509965634E+03  0.78453066166E+02 0.  0.
          6    2    1    2  501    0 -0.55178425037E+02  0.12818272420E+03  0.32747134141E+03  0.40304830043E+03  0.18903699020E+03 0.  0.
         24    2    5    5    0    0  0.17395369925E+02  0.89965493788E+02  0.89261432172E+02  0.15106900907E+03  0.80360769411E+02 0.  0.
          5    1    5    5  501    0 -0.72573794962E+02  0.38217230411E+02  0.23820990924E+03  0.25197929137E+03  0.47000000000E+01 0. -1.
        -13    1    6    6    0    0 -0.14817221781E+02  0.33979601863E+02 -0.43628196488E+01  0.37325562277E+02  0.00000000000E+00 0.  1.
         14    1    6    6    0    0  0.32212591706E+02  0.55985891926E+02  0.93624251820E+02  0.11374344679E+03  0.00000000000E+00 0. -1.
         -5    1    3    3    0  503  0.47880757416E+01 -0.55329122489E+01 -0.92140014151E+02  0.92549505644E+02  0.47000000000E+01 0.  1.
         11    1    4    4    0    0  0.52353102665E+01 -0.10239918893E+03 -0.23791515917E+02  0.10525701211E+03  0.00000000000E+00 0. -1.
        -12    1    4    4    0    0  0.45155039029E+02 -0.20250623016E+02  0.59349727879E+01  0.49842644234E+02  0.00000000000E+00 0.  1.
</event>
<event>
12    1  0.8461994E-002  0.2420156E+03  0.7818608E-02  0.1118570E+00
         21   -1    0    0  503  502  0.00000000000E+00  0.00000000000E+00  0.31228753649E+03  0.31228753649E+03  0.00000000000E+00 0.  1.
         21   -1    0    0  501  503 -0.00000000000E+00 -0.00000000000E+00 -0.18718775400E+03  0.18718775400E+03  0.00000000000E+00 0. -1.
          6    2    1    2  501    0  0.57911615649E+02 -0.15990213523E+03  0.55370362572E+02  0.24826887789E+03  0.17218917097E+03 0.  0.
         24    2    3    3    0    0 -0.30506469871E+02 -0.85139120544E+02  0.44648656780E+01  0.12169587198E+03  0.81305815783E+02 0.  0.
         -6    2    1    2    0  502 -0.57911615649E+02  0.15990213523E+03  0.69729419924E+02  0.25120641260E+03  0.17123090157E+03 0.  0.
        -24    2    5    5    0    0 -0.41311454539E+02  0.98181456991E+01  0.15603269112E+02  0.90730559389E+02  0.78648204932E+02 0.  0.
          5    1    3    3  501    0  0.88418085519E+02 -0.74763014685E+02  0.50905496894E+02  0.12657300591E+03  0.47000000000E+01 0. -1.
        -11    1    4    4    0    0 -0.49189376827E+02 -0.67417277607E+02  0.26754034341E+02  0.87638247735E+02  0.00000000000E+00 0.  1.
         12    1    4    4    0    0  0.18682906956E+02 -0.17721842938E+02 -0.22289168663E+02  0.34057624244E+02  0.00000000000E+00 0. -1.
         -5    1    5    5    0  502 -0.16600161110E+02  0.15008398953E+03  0.54126150812E+02  0.16047585321E+03  0.47000000000E+01 0.  1.
         13    1    6    6    0    0  0.19408120626E+02 -0.83139964206E+01 -0.87335151937E+01  0.22848894292E+02  0.00000000000E+00 0. -1.
        -14    1    6    6    0    0 -0.60719575165E+02  0.18132142120E+02  0.24336784305E+02  0.67881665098E+02  0.00000000000E+00 0.  1.
</event>
<event>
12    1  0.8461994E-002  0.1916235E+03  0.7818608E-02  0.1157127E+00
         21   -1    0    0  503  502  0.00000000000E+00  0.00000000000E+00  0.23925642258E+04  0.23925642258E+04  0.00000000000E+00 0.  1.
         21   -1    0    0  501  503 -0.00000000000E+00 -0.00000000000E+00 -0.17077325005E+02  0.17077325005E+02  0.00000000000E+00 0.  1.
          6    2    1    2  501    0  0.77967814191E+02 -0.35460863512E+02  0.80098783079E+03  0.82359035279E+03  0.17141502629E+03 0.  0.
         24    2    3    3    0    0  0.41769870955E+02 -0.69679104953E+02  0.71545926595E+03  0.72450249003E+03  0.80137363583E+02 0.  0.
         -6    2    1    2    0  502 -0.77967814191E+02  0.35460863512E+02  0.15744990700E+04  0.15860511980E+04  0.17080582073E+03 0.  0.
        -24    2    5    5    0    0 -0.24386223031E+02  0.33698244582E+02  0.38174700836E+03  0.39208567745E+03  0.79184218827E+02 0.  0.
          5    1    3    3  501    0  0.36197943236E+02  0.34218241441E+02  0.85528564842E+02  0.99087862757E+02  0.47000000000E+01 0. -1.
        -11    1    4    4    0    0  0.33658797596E+02 -0.86338904993E+02  0.52234335342E+03  0.53049967016E+03  0.00000000000E+00 0.  1.
         12    1    4    4    0    0  0.81110733588E+01  0.16659800040E+02  0.19311591253E+03  0.19400281988E+03  0.00000000000E+00 0. -1.
         -5    1    5    5    0  502 -0.53581591160E+02  0.17626189300E+01  0.11927520616E+04  0.11939655206E+04  0.47000000000E+01 0.  1.
         11    1    6    6    0    0  0.28686930990E+02  0.13247766467E+02  0.10989598389E+03  0.11434846130E+03  0.00000000000E+00 0. -1.
        -12    1    6    6    0    0 -0.53073154021E+02  0.20450478114E+02  0.27185102447E+03  0.27773721615E+03  0.00000000000E+00 0.  1.
</event>
<event>
12    1  0.8461994E-002  0.2357181E+03  0.7818608E-02  0.1123476E+00
         21   -1    0    0  503  502  0.00000000000E+00  0.00000000000E+00  0.78106799121E+02  0.78106799121E+02  0.00000000000E+00 0.  1.
         21   -1    0    0  501  503 -0.00000000000E+00 -0.00000000000E+00 -0.82046630828E+03  0.82046630828E+03  0.00000000000E+00 0.  1.
          6    2    1    2  501    0 -0.14981335675E+03 -0.23526930830E+02 -0.54199594236E+03  0.58920505033E+03  0.17437153284E+03 0.  0.
         24    2    3    3    0    0 -0.99008425356E+02 -0.30885488249E+02 -0.51454636095E+03  0.53080249096E+03  0.78973066133E+02 0.  0.
         -6    2    1    2    0  502  0.14981335675E+03  0.23526930830E+02 -0.20036356679E+03  0.30936805707E+03  0.18045907431E+03 0.  0.
        -24    2    5    5    0    0  0.39127869894E+02  0.21977012637E+02 -0.17176969739E+03  0.19494175496E+03  0.80520057119E+02 0.  0.
          5    1    3    3  501    0 -0.50804931391E+02  0.73585574191E+01 -0.27449581418E+02  0.58402559370E+02  0.47000000000E+01 0. -1.
        -11    1    4    4    0    0 -0.10862414264E+03 -0.40195442859E+02 -0.43588821750E+03  0.45101376491E+03  0.00000000000E+00 0.  1.
         12    1    4    4    0    0  0.96157172794E+01  0.93099546094E+01 -0.78658143451E+02  0.79788726051E+02  0.00000000000E+00 0. -1.
         -5    1    5    5    0  502  0.11068548685E+03  0.15499181927E+01 -0.28593869405E+02  0.11442630211E+03  0.47000000000E+01 0.  1.
         13    1    6    6    0    0 -0.18823413398E+02 -0.89246154453E+01 -0.17259489677E+02  0.27052904404E+02  0.00000000000E+00 0. -1.
        -14    1    6    6    0    0  0.57951283292E+02  0.30901628083E+02 -0.15451020771E+03  0.16788885056E+03  0.00000000000E+00 0.  1.
</event>
<event>
12    1  0.8461994E-002  0.2007701E+03  0.7818608E-02  0.1149211E+00
         21   -1    0    0  503  502  0.00000000000E+00  0.00000000000E+00  0.13688086688E+04  0.13688086688E+04  0.00000000000E+00 0. -1.
         21   -1    0    0  501  503 -0.00000000000E+00 -0.00000000000E+00 -0.30821352160E+02  0.30821352160E+02  0.00000000000E+00 0.  1.
          6    2    1    2  501    0 -0.89504769816E+02  0.40919835304E+02  0.51773285811E+03  0.55529808172E+03  0.17499460119E+03 0.  0.
         24    2    3    3    0    0  0.66644904945E+01  0.16203904753E+02  0.35565480808E+03  0.36516447565E+03  0.80918290928E+02 0.  0.
         -6    2    1    2    0  502  0.89504769816E+02 -0.40919835304E+02  0.82025445848E+03  0.84433193920E+03  0.17433734582E+03 0.  0.
        -24    2    5    5    0    0  0.63346995151E+02 -0.51403355321E+02  0.80177217787E+03  0.81030521346E+03  0.84266049099E+02 0.  0.
          5    1    3    3  501    0 -0.96169260311E+02  0.24715930551E+02  0.16207805003E+03  0.19013360606E+03  0.47000000000E+01 0. -1.
        -13    1    4    4    0    0 -0.25703761021E+02 -0.14688349088E+02  0.69646729139E+02  0.75677591197E+02  0.00000000000E+00 0.  1.
         14    1    4    4    0    0  0.32368251515E+02  0.30892253841E+02  0.28600807894E+03  0.28948688446E+03  0.00000000000E+00 0. -1.
         -5    1    5    5    0  502  0.26157774665E+02  0.10483520017E+02  0.18482280612E+02  0.34026725731E+02  0.47000000000E+01 0.  1.
         13    1    6    6    0    0 -0.10607819908E+02 -0.30923759003E+02  0.12531332731E+03  0.12950766277E+03  0.00000000000E+00 0. -1.
        -14    1    6    6    0    0  0.73954815059E+02 -0.20479596318E+02  0.67645885055E+03  0.68079755069E+03  0.00000000000E+00 0.  1.
</event>
<event>
12    1  0.8461994E-002  0.2051676E+03  0.7818608E-02  0.1145476E+00
         21   -1    0    0  503  502  0.00000000000E+00  0.00000000000E+00  0.12315306019E+03  0.12315306019E+03  0.00000000000E+00 0.  1.
         21   -1    0    0  501  503 -0.00000000000E+00 -0.00000000000E+00 -0.44956649757E+03  0.44956649757E+03  0.00000000000E+00 0.  1.
          6    2    1    2  501    0  0.10781989588E+02  0.11067011541E+03 -0.30350476922E+03  0.36627698140E+03  0.17227755633E+03 0.  0.
         24    2    3    3    0    0  0.53014036263E+02  0.12259316278E+03 -0.26700725341E+03  0.30900688898E+03  0.79704532261E+02 0.  0.
         -6    2    1    2    0  502 -0.10781989588E+02 -0.11067011541E+03 -0.22908668160E+02  0.20644257636E+03  0.17242274940E+03 0.  0.
        -24    2    5    5    0    0  0.24292607204E+02 -0.71048517367E+02  0.53477947979E+02  0.11339901937E+03  0.66041078803E+02 0.  0.
          5    1    3    3  501    0 -0.42232046675E+02 -0.11923047368E+02 -0.36497515814E+02  0.57270092417E+02  0.47000000000E+01 0. -1.
        -11    1    4    4    0    0  0.53292927674E+02  0.46378607255E+02 -0.17983990016E+03  0.19321879060E+03  0.00000000000E+00 0.  1.
         12    1    4    4    0    0 -0.27889141096E+00  0.76214555524E+02 -0.87167353247E+02  0.11578809838E+03  0.00000000000E+00 0. -1.
         -5    1    5    5    0  502 -0.35074596792E+02 -0.39621598044E+02 -0.76386616138E+02  0.93043556987E+02  0.47000000000E+01 0.  1.
         13    1    6    6    0    0 -0.60441023574E+01 -0.15402629568E+02 -0.13377310515E+02  0.21277326137E+02  0.00000000000E+00 0. -1.
        -14    1    6    6    0    0  0.30336709561E+02 -0.55645887799E+02  0.66855258494E+02  0.92121693234E+02  0.00000000000E+00 0.  1.
</event>
<event>
12    1  0.8461994E-002  0.2100694E+03  0.7818608E-02  0.1141767E+00
         21   -1    0    0  501  502  0.00000000000E+00  0.00000000000E+00  0.55029462795E+03  0.55029462795E+03  0.00000000000E+00 0.  1.
         21   -1    0    0  502  503 -0.00000000000E+00 -0.00000000000E+00 -0.11911120678E+03  0.11911120678E+03  0.00000000000E+00 0.  1.
         -6    2    1    2    0  503 -0.95642165690E+02 -0.69839157824E+02  0.23511250021E+02  0.21138104620E+03  0.17350572322E+03 0.  0.
        -24    2    3    3    0    0  0.14001156661E+02 -0.50623593773E+02 -0.57873717719E+01  0.96179504210E+02  0.80363068157E+02 0.  0.
          6    2    1    2  501    0  0.95642165690E+02  0.69839157824E+02  0.40767217115E+03  0.45802478853E+03  0.17194527023E+03 0.  0.
         24    2    5    5    0    0  0.11539570391E+03  0.98062106649E+02  0.31124395450E+03  0.35552001753E+03  0.81174739965E+02 0.  0.
          5    1    5    5  501    0 -0.19753538215E+02 -0.28222948826E+02  0.96428216651E+02  0.10250477101E+03  0.47000000000E+01 0. -1.
        -11    1    6    6    0    0  0.60572370732E+02  0.27430729534E+02  0.21083332343E+03  0.22107045775E+03  0.00000000000E+00 0.  1.
         12    1    6    6    0    0  0.54823333173E+02  0.70631377115E+02  0.10041063107E+03  0.13444955978E+03  0.00000000000E+00 0. -1.
         -5    1    3    3    0  503 -0.10964332235E+03 -0.19215564051E+02  0.29298621793E+02  0.11520154199E+03  0.47000000000E+01 0.  1.
         11    1    4    4    0    0  0.30203435468E+02 -0.59479959352E+02  0.15000702574E+02  0.68374952697E+02  0.00000000000E+00 0. -1.
        -12    1    4    4    0    0 -0.16202278807E+02  0.88563655793E+01 -0.20788074346E+02  0.27804551513E+02  0.00000000000E+00 0.  1.
</event>
<event>
12    1  0.8461994E-002  0.1833288E+03  0.7818608E-02  0.1165846E+00
         21   -1    0    0  501  502  0.00000000000E+00  0.00000000000E+00  0.81551300491E+02  0.81551300491E+02  0.00000000000E+00 0. -1.
         21   -1    0    0  502  503 -0.00000000000E+00 -0.00000000000E+00 -0.42126622249E+03  0.42126622249E+03  0.00000000000E+00 0. -1.
         -6    2    1    2    0  503 -0.49519642013E+01  0.40089200593E+02 -0.11204176734E+03  0.21050855883E+03  0.17357658182E+03 0.  0.
        -24    2    3    3    0    0  0.63491216262E+02  0.47082982881E+02 -0.87542692793E+02  0.13732607051E+03  0.70333382976E+02 0.  0.
          6    2    1    2  501    0  0.49519642013E+01 -0.40089200593E+02 -0.22767315466E+03  0.29230896415E+03  0.17882337436E+03 0.  0.
         24    2    5    5    0    0  0.41782880919E+02  0.17573008433E+01 -0.21798751430E+03  0.23553266859E+03  0.78792032204E+02 0.  0.
          5    1    5    5  501    0 -0.36830916718E+02 -0.41846501436E+02 -0.96856403604E+01  0.56776295563E+02  0.47000000000E+01 0. -1.
        -11    1    6    6    0    0  0.56879879025E+02  0.21314346749E+02 -0.12024865799E+03  0.13471956711E+03  0.00000000000E+00 0.  1.
         12    1    6    6    0    0 -0.15096998106E+02 -0.19557045906E+02 -0.97738856311E+02  0.10081310148E+03  0.00000000000E+00 0. -1.
         -5    1    3    3    0  503 -0.68443180464E+02 -0.69937822877E+01 -0.24499074546E+02  0.73182488317E+02  0.47000000000E+01 0.  1.
         11    1    4    4    0    0  0.41882526717E+02 -0.17436751059E+00 -0.85065837508E+01  0.42738020724E+02  0.00000000000E+00 0. -1.
        -12    1    4    4    0    0  0.21608689545E+02  0.47257350391E+02 -0.79036109042E+02  0.94588049786E+02  0.00000000000E+00 0.  1.
</event>
<event>
12    1  0.8461994E-002  0.2119608E+03  0.7818608E-02  0.1140260E+00
         21   -1    0    0  503  502  0.00000000000E+00  0.00000000000E+00  0.12585177607E+03  0.12585177607E+03  0.00000000000E+00 0.  1.
         21   -1    0    0  501  503 -0.00000000000E+00 -0.00000000000E+00 -0.41681220836E+03  0.41681220836E+03  0.00000000000E+00 0.  1.
          6    2    1    2  501    0  0.62180565966E+02 -0.10665163121E+03 -0.24965424049E+03  0.32671591667E+03  0.17080707593E+03 0.  0.
         24    2    3    3    0    0  0.94330550392E+02 -0.42091471193E+02 -0.12497290610E+03  0.18260082063E+03  0.83993379214E+02 0.  0.
         -6    2    1    2    0  502 -0.62180565966E+02  0.10665163121E+03 -0.41306191800E+02  0.21594806776E+03  0.17229733969E+03 0.  0.
        -24    2    5    5    0    0 -0.21511224638E+01 -0.16888371203E+00 -0.49492030707E+02  0.93052769014E+02  0.78769923626E+02 0.  0.
          5    1    3    3  501    0 -0.32149984426E+02 -0.64560160020E+02 -0.12468133440E+03  0.14411509604E+03  0.47000000000E+01 0. -1.
        -11    1    4    4    0    0  0.82254026960E+02 -0.63949819519E+02 -0.11635008804E+03  0.15618145650E+03  0.00000000000E+00 0.  1.
         12    1    4    4    0    0  0.12076523432E+02  0.21858348326E+02 -0.86228180573E+01  0.26419364129E+02  0.00000000000E+00 0. -1.
         -5    1    5    5    0  502 -0.60029443502E+02  0.10682051493E+03  0.81858389077E+01  0.12289529875E+03  0.47000000000E+01 0.  1.
         11    1    6    6    0    0 -0.29617660777E+02  0.26686270006E+02 -0.30529525011E+02  0.50213690704E+02  0.00000000000E+00 0. -1.
        -12    1    6    6    0    0  0.27466538313E+02 -0.26855153718E+02 -0.18962505697E+02  0.42839078310E+02  0.00000000000E+00 0.  1.
</event>
<event>
12    1  0.8461994E-002  0.2541796E+03  0.7818608E-02  0.1111726E+00
         21   -1    0    0  501  502  0.00000000000E+00  0.00000000000E+00  0.21177956867E+03  0.21177956867E+03  0.00000000000E+00 0. -1.
         21   -1    0    0  502  503 -0.00000000000E+00 -0.00000000000E+00 -0.47853032301E+03  0.47853032301E+03  0.00000000000E+00 0.  1.
         -6    2    1    2    0  503  0.14226540408E+02 -0.17725200779E+03 -0.34474213584E+03  0.42443412015E+03  0.17226872439E+03 0.  0.
        -24    2    3    3    0    0  0.54873214555E+01 -0.13410022255E+03 -0.34641774525E+03  0.38012443515E+03  0.80475782638E+02 0.  0.
          6    2    1    2  501    0 -0.14226540408E+02  0.17725200779E+03  0.77991381496E+02  0.26587577153E+03  0.18162213958E+03 0.  0.
         24    2    5    5    0    0  0.56429862794E+02  0.61726012444E+02  0.43574808069E+02  0.12607171780E+03  0.83671286019E+02 0.  0.
          5    1    5    5  501    0 -0.70656403202E+02  0.11552599534E+03  0.34416573427E+02  0.13980405373E+03  0.47000000000E+01 0. -1.
        -11    1    6    6    0    0  0.16819653626E+02  0.15928995149E+02 -0.25341541506E+02  0.34334055404E+02  0.00000000000E+00 0.  1.
         12    1    6    6    0    0  0.39610209168E+02  0.45797017295E+02  0.68916349575E+02  0.91737662398E+02  0.00000000000E+00 0. -1.
         -5    1    3    3    0  503  0.87392189523E+01 -0.43151785240E+02  0.16756094116E+01  0.44309684993E+02  0.47000000000E+01 0.  1.
         11    1    4    4    0    0  0.42978137200E+02 -0.76830118123E+02 -0.19660160435E+03  0.21541164815E+03  0.00000000000E+00 0. -1.
        -12    1    4    4    0    0 -0.37490815744E+02 -0.57270104425E+02 -0.14981614091E+03  0.16471278700E+03  0.00000000000E+00 0.  1.
</event>
<event>
12    1  0.8461994E-002  0.2179884E+03  0.7818608E-02  0.1135422E+00
         21   -1    0    0  503  502  0.00000000000E+00  0.00000000000E+00  0.43950978969E+03  0.43950978969E+03  0.00000000000E+00 0. -1.
         21   -1    0    0  501  503 -0.00000000000E+00 -0.00000000000E+00 -0.11101391289E+03  0.11101391289E+03  0.00000000000E+00 0.  1.
          6    2    1    2  501    0  0.21339771117E+02  0.13214685770E+03  0.11912840257E+03  0.24827599760E+03  0.17184649212E+03 0.  0.
         24    2    3    3    0    0  0.13422770369E+01  0.18116220933E+02  0.98880821880E+02  0.13065397409E+03  0.83444861083E+02 0.  0.
         -6    2    1    2    0  502 -0.21339771117E+02 -0.13214685770E+03  0.20936747423E+03  0.30224770497E+03  0.17204870840E+03 0.  0.
        -24    2    5    5    0    0 -0.64438021870E+02 -0.12474138794E+03  0.20030155124E+03  0.25734134506E+03  0.79944880523E+02 0.  0.
          5    1    3    3  501    0  0.19997494080E+02  0.11403063677E+03  0.20247580689E+02  0.11762202351E+03  0.47000000000E+01 0. -1.
        -11    1    4    4    0    0 -0.17398817861E+02  0.37770610695E+02  0.17960459188E+02  0.45298079313E+02  0.00000000000E+00 0.  1.
         12    1    4    4    0    0  0.18741094897E+02 -0.19654389762E+02  0.80920362692E+02  0.85355894776E+02  0.00000000000E+00 0. -1.
         -5    1    5    5    0  502  0.43098250754E+02 -0.74054697653E+01  0.90659229903E+01  0.44906359907E+02  0.47000000000E+01 0.  1.
         13    1    6    6    0    0 -0.54654419471E+02 -0.13189479368E+03  0.15625452283E+03  0.21165731282E+03  0.00000000000E+00 0. -1.
        -14    1    6    6    0    0 -0.97836023995E+01  0.71534057415E+01  0.44047028415E+02  0.45684032241E+02  0.00000000000E+00 0.  1.
</event>
<event>
12    1  0.8461994E-002  0.2641948E+03  0.7818608E-02  0.1104731E+00
         21   -1    0    0  503  502  0.00000000000E+00  0.00000000000E+00  0.12895081561E+03  0.12895081561E+03  0.00000000000E+00 0.  1.
         21   -1    0    0  501  503 -0.00000000000E+00 -0.00000000000E+00 -0.54037359887E+03  0.54037359887E+03  0.00000000000E+00 0. -1.
          6    2    1    2  501    0  0.17366401029E+03 -0.99456074522E+02 -0.19895550236E+03  0.33072975467E+03  0.17247660560E+03 0.  0.
         24    2    3    3    0    0  0.18193902765E+03 -0.11672121449E+03 -0.14201188235E+03  0.27047009296E+03  0.79126763875E+02 0.  0.
         -6    2    1    2    0  502 -0.17366401029E+03  0.99456074522E+02 -0.21246728090E+03  0.33859465981E+03  0.17161963457E+03 0.  0.
        -24    2    5    5    0    0 -0.17428638031E+03  0.80936558017E+02 -0.23247604358E+03  0.31092156059E+03  0.75502564296E+02 0.  0.
          5    1    3    3  501    0 -0.82750173652E+01  0.17265139965E+02 -0.56943620007E+02  0.60259661714E+02  0.47000000000E+01 0. -1.
        -11    1    4    4    0    0  0.11952794012E+03 -0.33996932767E+02 -0.58345478144E+02  0.13728406582E+03  0.00000000000E+00 0.  1.
         12    1    4    4    0    0  0.62411087531E+02 -0.82724281720E+02 -0.83666404205E+02  0.13318602714E+03  0.00000000000E+00 0. -1.
         -5    1    5    5    0  502  0.62237001830E+00  0.18519516506E+02  0.20008762689E+02  0.27673099219E+02  0.47000000000E+01 0.  1.
         13    1    6    6    0    0 -0.10790993454E+03  0.88562379453E+02 -0.15396065906E+03  0.20782621000E+03  0.00000000000E+00 0. -1.
        -14    1    6    6    0    0 -0.66376445769E+02 -0.76258214365E+01 -0.78515384527E+02  0.10309535059E+03  0.00000000000E+00 0.  1.
</event>
<event>
12    1  0.8461994E-002  0.2146315E+03  0.7818608E-02  0.1141709E+00
         21   -1    0    0  501  502  0.00000000000E+00  0.00000000000E+00  0.46169024537E+03  0.46169024537E+03  0.00000000000E+00 0.  1.
         21   -1    0    0  502  503 -0.00000000000E+00 -0.00000000000E+00 -0.94513204903E+02  0.94513204903E+02  0.00000000000E+00 0.  1.
         -6    2    1    2    0  503 -0.39983803371E+02  0.85209631477E+02  0.12443482023E+03  0.23218114625E+03  0.17194381163E+03 0.  0.
        -24    2    3    3    0    0 -0.30590113151E+01 -0.14940683856E+02  0.90771829279E+02  0.12015966219E+03  0.77241425692E+02 0.  0.
          6    2    1    2  501    0  0.39983803371E+02 -0.85209631477E+02  0.24274222024E+03  0.32402230403E+03  0.19289189251E+03 0.  0.
         24    2    5    5    0    0  0.36666185570E+02 -0.13479380034E+03  0.21281492923E+03  0.26582153826E+03  0.76531812512E+02 0.  0.
          5    1    5    5  501    0  0.33176178010E+01  0.49584168859E+02  0.29927291008E+02  0.58200765772E+02  0.47000000000E+01 0. -1.
        -11    1    6    6    0    0  0.52277903873E+02 -0.62982882880E+02  0.82512170941E+02  0.11622427080E+03  0.00000000000E+00 0.  1.
         12    1    6    6    0    0 -0.15611718303E+02 -0.71810917457E+02  0.13030275829E+03  0.14959726746E+03  0.00000000000E+00 0. -1.
         -5    1    3    3    0  503 -0.36924792056E+02  0.10015031533E+03  0.33662990954E+02  0.11202148405E+03  0.47000000000E+01 0.  1.
         11    1    4    4    0    0 -0.12401207974E+02  0.69756585143E+01 -0.94920800458E+01  0.17104074208E+02  0.00000000000E+00 0. -1.
        -12    1    4    4    0    0  0.93421966591E+01 -0.21916342371E+02  0.10026390932E+03  0.10305558798E+03  0.00000000000E+00 0.  1.
</event>
<event>
12    1  0.8461994E-002  0.2124009E+03  0.7818608E-02  0.1139787E+00
         21   -1    0    0  501  502  0.00000000000E+00  0.00000000000E+00  0.81594791991E+03  0.81594791991E+03  0.00000000000E+00 0.  1.
         21   -1    0    0  502  503 -0.00000000000E+00 -0.00000000000E+00 -0.79518055734E+02  0.79518055734E+02  0.00000000000E+00 0.  1.
         -6    2    1    2    0  503  0.94590782930E+02 -0.79442619889E+02  0.12067598661E+03  0.24428839821E+03  0.17278767805E+03 0.  0.
        -24    2    3    3    0    0  0.12364553359E+03 -0.38284375468E+02  0.56106393987E+02  0.16225485683E+03  0.80154848489E+02 0.  0.
          6    2    1    2  501    0 -0.94590782930E+02  0.79442619889E+02  0.61575387757E+03  0.65117757744E+03  0.17210709906E+03 0.  0.
         24    2    5    5    0    0  0.65378896616E+01  0.70187841009E+02  0.37547827036E+03  0.39028082243E+03  0.79787917751E+02 0.  0.
          5    1    5    5  501    0 -0.10112867259E+03  0.92547788801E+01  0.24027560721E+03  0.26089675500E+03  0.47000000000E+01 0. -1.
        -11    1    6    6    0    0 -0.29596494392E+02  0.58503553072E+02  0.19116189633E+03  0.20209277279E+03  0.00000000000E+00 0.  1.
         12    1    6    6    0    0  0.36134384054E+02  0.11684287937E+02  0.18431637403E+03  0.18818804965E+03  0.00000000000E+00 0. -1.
         -5    1    3    3    0  503 -0.29054750661E+02 -0.41158244421E+02  0.64569592623E+02  0.82033541380E+02  0.47000000000E+01 0.  1.
         13    1    4    4    0    0  0.29870182349E+02  0.25084787186E+02  0.16389520639E+02  0.42309463818E+02  0.00000000000E+00 0. -1.
        -14    1    4    4    0    0  0.93775351242E+02 -0.63369162654E+02  0.39716873348E+02  0.11994539301E+03  0.00000000000E+00 0.  1.
</event>
<event>
12    1  0.8461994E-002  0.1855756E+03  0.7818608E-02  0.1162555E+00
         21   -1    0    0  501  502  0.00000000000E+00  0.00000000000E+00  0.12943850820E+02  0.12943850820E+02  0.00000000000E+00 0. -1.
         21   -1    0    0  502  503 -0.00000000000E+00 -0.00000000000E+00 -0.26759426705E+04  0.26759426705E+04  0.00000000000E+00 0. -1.
         -6    2    1    2    0  503 -0.50916433257E+02 -0.54997391726E+02 -0.14422003235E+04  0.14540908095E+04  0.16976782094E+03 0.  0.
        -24    2    3    3    0    0 -0.42034693703E+02 -0.22999771805E+02 -0.13825494984E+04  0.13856580402E+04  0.79430372157E+02 0.  0.
          6    2    1    2  501    0  0.50916433257E+02  0.54997391726E+02 -0.12207984962E+04  0.12347957118E+04  0.16957088568E+03 0.  0.
         24    2    5    5    0    0  0.20218441854E+02  0.80933652988E+01 -0.10775206348E+04  0.10808704379E+04  0.82194264944E+02 0.  0.
          5    1    5    5  501    0  0.30697991402E+02  0.46904026427E+02 -0.14327786141E+03  0.15392527388E+03  0.47000000000E+01 0. -1.
        -11    1    6    6    0    0  0.31794352728E+02 -0.30737020681E+02 -0.51769400498E+03  0.51957937613E+03  0.00000000000E+00 0.  1.
         12    1    6    6    0    0 -0.11575910873E+02  0.38830385980E+02 -0.55982662977E+03  0.56129106174E+03  0.00000000000E+00 0. -1.
         -5    1    3    3    0  503 -0.88817395539E+01 -0.31997619921E+02 -0.59650825136E+02  0.68432769325E+02  0.47000000000E+01 0.  1.
         13    1    4    4    0    0 -0.65543513611E+02 -0.11326387463E+02 -0.98824971546E+03  0.99048560784E+03  0.00000000000E+00 0. -1.
        -14    1    4    4    0    0  0.23508819908E+02 -0.11673384342E+02 -0.39429978289E+03  0.39517243237E+03  0.00000000000E+00 0.  1.
</event>
<event>
12    1  0.8461994E-002  0.2294639E+03  0.7818608E-02  0.1127157E+00
         21   -1    0    0  503  502  0.00000000000E+00  0.00000000000E+00  0.88292834042E+02  0.88292834042E+02  0.00000000000E+00 0. -1.
         21   -1    0    0  501  503 -0.00000000000E+00 -0.00000000000E+00 -0.11351151475E+04  0.11351151475E+04  0.00000000000E+00 0.  1.
          6    2    1    2  501    0 -0.58675878683E+02  0.13875124531E+03 -0.94610662024E+03  0.97353553295E+03  0.17308648194E+03 0.  0.
         24    2    3    3    0    0 -0.34002799514E+02  0.94325357992E+02 -0.88152301961E+03  0.89122179308E+03  0.84498442745E+02 0.  0.
         -6    2    1    2    0  502  0.58675878683E+02 -0.13875124531E+03 -0.10071569322E+03  0.24987244860E+03  0.17204017813E+03 0.  0.
        -24    2    5    5    0    0  0.55683953664E+02 -0.37174001592E+01 -0.24927429676E+02  0.94923935074E+02  0.72626819702E+02 0.  0.
          5    1    3    3  501    0 -0.24673079169E+02  0.44425887321E+02 -0.64583600631E+02  0.82313739864E+02  0.47000000000E+01 0. -1.
        -11    1    4    4    0    0 -0.80372108437E+01  0.67910964638E+02 -0.26818887634E+03  0.27677024636E+03  0.00000000000E+00 0.  1.
         12    1    4    4    0    0 -0.25965588670E+02  0.26414393355E+02 -0.61333414327E+03  0.61445154673E+03  0.00000000000E+00 0. -1.
         -5    1    5    5    0  502  0.29919250190E+01 -0.13503384515E+03 -0.75788263541E+02  0.15494851352E+03  0.47000000000E+01 0.  1.
         11    1    6    6    0    0 -0.12628371476E+01 -0.27952593161E+02  0.57306827980E+00  0.27986972493E+02  0.00000000000E+00 0. -1.
        -12    1    6    6    0    0  0.56946790811E+02  0.24235193002E+02 -0.25500497956E+02  0.66936962581E+02  0.00000000000E+00 0.  1.
</event>
<event>
12    1  0.8461994E-002  0.2378699E+03  0.7818608E-02  0.1121309E+00
         21   -1    0    0  501  502  0.00000000000E+00  0.00000000000E+00  0.45978493699E+03  0.45978493699E+03  0.00000000000E+00 0.  1.
         21   -1    0    0  502  503 -0.00000000000E+00 -0.00000000000E+00 -0.15270956217E+03  0.15270956217E+03  0.00000000000E+00 0.  1.
         -6    2    1    2    0  503 -0.15585502668E+03  0.52301063401E+02  0.18119047361E+02  0.23855901675E+03  0.17191833532E+03 0.  0.
        -24    2    3    3    0    0 -0.74187010936E+02  0.70602890668E+02 -0.49750959556E+02  0.13070240121E+03  0.64183167122E+02 0.  0.
          6    2    1    2  501    0  0.15585502668E+03 -0.52301063401E+02  0.28895632746E+03  0.37393548241E+03  0.17118935496E+03 0.  0.
         24    2    5    5    0    0  0.16698170758E+03 -0.80363422268E+02  0.21030614418E+03  0.28955989149E+03  0.72629788496E+02 0.  0.
          5    1    5    5  501    0 -0.11126680898E+02  0.28062358867E+02  0.78650183276E+02  0.84375590916E+02  0.47000000000E+01 0. -1.
        -11    1    6    6    0    0  0.12055734546E+02  0.97120845095E+01  0.37660270087E+02  0.40718070485E+02  0.00000000000E+00 0.  1.
         12    1    6    6    0    0  0.15492597304E+03 -0.90075506777E+02  0.17264587409E+03  0.24884182101E+03  0.00000000000E+00 0. -1.
         -5    1    3    3    0  503 -0.81668015748E+02 -0.18301827268E+02  0.67870006917E+02  0.10785661554E+03  0.47000000000E+01 0.  1.
         11    1    4    4    0    0 -0.38322141194E+01  0.46145634914E+02 -0.21307317022E+02  0.50971631770E+02  0.00000000000E+00 0. -1.
        -12    1    4    4    0    0 -0.70354796817E+02  0.24457255755E+02 -0.28443642534E+02  0.79730769435E+02  0.00000000000E+00 0.  1.
</event>
<event>
12    1  0.8461994E-002  0.2120630E+03  0.7818608E-02  0.1140931E+00
         21   -1    0    0  501  502  0.00000000000E+00  0.00000000000E+00  0.33021529982E+03  0.33021529982E+03  0.00000000000E+00 0.  1.
         21   -1    0    0  502  503 -0.00000000000E+00 -0.00000000000E+00 -0.15577455470E+03  0.15577455470E+03  0.00000000000E+00 0. -1.
         -6    2    1    2    0  503 -0.99465134150E+02 -0.81925956361E+02 -0.47993052905E+01  0.21211726778E+03  0.16842068378E+03 0.  0.
        -24    2    3    3    0    0  0.56047179201E+01 -0.35460789761E+02  0.28348994070E+02  0.92452798238E+02  0.80342852599E+02 0.  0.
          6    2    1    2  501    0  0.99465134150E+02  0.81925956361E+02  0.17924005041E+03  0.27387258673E+03  0.16209263665E+03 0.  0.
         24    2    5    5    0    0  0.66228667891E+02 -0.75120341121E+01  0.54727858473E+02  0.11693567976E+03  0.78969282644E+02 0.  0.
          5    1    5    5  501    0  0.33236466259E+02  0.89437990473E+02  0.12451219194E+03  0.15693690697E+03  0.47000000000E+01 0. -1.
        -11    1    6    6    0    0  0.74870554788E+02  0.13269752337E+02  0.55937111577E+02  0.94396222133E+02  0.00000000000E+00 0.  1.
         12    1    6    6    0    0 -0.86418868971E+01 -0.20781786449E+02 -0.12092531041E+01  0.22539457630E+02  0.00000000000E+00 0. -1.
         -5    1    3    3    0  503 -0.10506985207E+03 -0.46465166600E+02 -0.33148299361E+02  0.11966446955E+03  0.47000000000E+01 0.  1.
         11    1    4    4    0    0  0.52918836980E+00  0.20934246957E+02 -0.10850506047E+02  0.23585084640E+02  0.00000000000E+00 0. -1.
        -12    1    4    4    0    0  0.50755295503E+01 -0.56395036718E+02  0.39199500118E+02  0.68867713598E+02  0.00000000000E+00 0.  1.
</event>
<event>
12    1  0.8461994E-002  0.2400319E+03  0.7818608E-02  0.1119873E+00
         21   -1    0    0  503  502  0.00000000000E+00  0.00000000000E+00  0.72527730505E+03  0.72527730505E+03  0.00000000000E+00 0.  1.
         21   -1    0    0  501  503 -0.00000000000E+00 -0.00000000000E+00 -0.10041258107E+03  0.10041258107E+03  0.00000000000E+00 0.  1.
          6    2    1    2  501    0 -0.35897977987E+02 -0.16412835225E+03  0.12253718647E+03  0.26895992220E+03  0.17057929783E+03 0.  0.
         24    2    3    3    0    0  0.21485106530E+02 -0.15920854582E+03  0.74504910807E+02  0.19381863935E+03  0.78776343893E+02 0.  0.
         -6    2    1    2    0  502  0.35897977987E+02  0.16412835225E+03  0.50232753752E+03  0.55672996392E+03  0.17143079344E+03 0.  0.
        -24    2    5    5    0    0 -0.23322351199E+02  0.14476537707E+03  0.28612855978E+03  0.33168316840E+03  0.81505981485E+02 0.  0.
          5    1    3    3  501    0 -0.57383084516E+02 -0.49198064239E+01  0.48032275663E+02  0.75141282856E+02  0.47000000000E+01 0. -1.
        -11    1    4    4    0    0 -0.58789589316E+01 -0.37534271813E+01 -0.11958224148E+02  0.13843753049E+02  0.00000000000E+00 0.  1.
         12    1    4    4    0    0  0.27364065461E+02 -0.15545511864E+03  0.86463134955E+02  0.17997488630E+03  0.00000000000E+00 0. -1.
         -5    1    5    5    0  502  0.59220329185E+02  0.19362975183E+02  0.21619897774E+03  0.22504679552E+03  0.47000000000E+01 0.  1.
         13    1    6    6    0    0 -0.49780521792E+02  0.75784984137E+02  0.18923205674E+03  0.20983382823E+03  0.00000000000E+00 0. -1.
        -14    1    6    6    0    0  0.26458170593E+02  0.68980392930E+02  0.96896503034E+02  0.12184934017E+03  0.00000000000E+00 0.  1.
</event>
<event>
12    1  0.8461994E-002  0.2619737E+03  0.7818608E-02  0.1106002E+00
         21   -1    0    0  501  502  0.00000000000E+00  0.00000000000E+00  0.62335380708E+02  0.62335380708E+02  0.00000000000E+00 0. -1.
         21   -1    0    0  502  503 -0.00000000000E+00 -0.00000000000E+00 -0.11221725043E+04  0.11221725043E+04  0.00000000000E+00 0.  1.
         -6    2    1    2    0  503 -0.78687175003E+02  0.18049949299E+03 -0.61313303886E+03  0.66665198126E+03  0.17239780247E+03 0.  0.
        -24    2    3    3    0    0 -0.88635779839E+02  0.64976736289E+02 -0.28039002637E+03  0.31425379111E+03  0.89769708799E+02 0.  0.
          6    2    1    2  501    0  0.78687175003E+02 -0.18049949299E+03 -0.44670408474E+03  0.51785590375E+03  0.17279600473E+03 0.  0.
         24    2    5    5    0    0  0.50034657772E+02 -0.16092604550E+03 -0.44510934003E+03  0.48280280402E+03  0.81089850683E+02 0.  0.
          5    1    5    5  501    0  0.28652517231E+02 -0.19573447492E+02 -0.15947447029E+01  0.35053099736E+02  0.47000000000E+01 0. -1.
        -13    1    6    6    0    0  0.63489509392E+01  0.92248141535E+01 -0.31613474608E+02  0.33538308707E+02  0.00000000000E+00 0.  1.
         14    1    6    6    0    0  0.43685706833E+02 -0.17015085965E+03 -0.41349586543E+03  0.44926449531E+03  0.00000000000E+00 0. -1.
         -5    1    3    3    0  503  0.99486048361E+01  0.11552275670E+03 -0.33274301250E+03  0.35239819015E+03  0.47000000000E+01 0.  1.
         11    1    4    4    0    0 -0.34485822175E+02  0.64671304422E+02 -0.22565405394E+03  0.23725809071E+03  0.00000000000E+00 0. -1.
        -12    1    4    4    0    0 -0.54149957665E+02  0.30543186686E+00 -0.54735972426E+02  0.76995700406E+02  0.00000000000E+00 0.  1.
</event>
<event>
12    1  0.8461994E-002  0.1874568E+03  0.7818608E-02  0.1160851E+00
         21   -1    0    0  501  502  0.00000000000E+00  0.00000000000E+00  0.79412569150E+02  0.79412569150E+02  0.00000000000E+00 0. -1.
         21   -1    0    0  502  503 -0.00000000000E+00 -0.00000000000E+00 -0.44274451289E+03  0.44274451289E+03  0.00000000000E+00 0. -1.
         -6    2    1    2    0  503  0.70352967812E+02 -0.25683080711E+02 -0.19403906445E+03  0.26957023443E+03  0.17148700255E+03 0.  0.
        -24    2    3    3    0    0  0.11464443575E+03 -0.22283156739E+02 -0.13806411065E+03  0.19795613618E+03  0.80529792502E+02 0.  0.
          6    2    1    2  501    0 -0.70352967812E+02  0.25683080711E+02 -0.16929287929E+03  0.25258684761E+03  0.17184550007E+03 0.  0.
         24    2    5    5    0    0 -0.41774583353E+02 -0.19023139870E+02 -0.21869076059E+02  0.95834692996E+02  0.81234452231E+02 0.  0.
          5    1    5    5  501    0 -0.28578384459E+02  0.44706220581E+02 -0.14742380323E+03  0.15675215461E+03  0.47000000000E+01 0. -1.
        -13    1    6    6    0    0 -0.39990119981E+02  0.23522430366E+02  0.30517978194E+01  0.46495461029E+02  0.00000000000E+00 0.  1.
         14    1    6    6    0    0 -0.17844633721E+01 -0.42545570236E+02 -0.24920873878E+02  0.49339231967E+02  0.00000000000E+00 0. -1.
         -5    1    3    3    0  503 -0.44291467935E+02 -0.33999239723E+01 -0.55974953798E+02  0.71614098245E+02  0.47000000000E+01 0.  1.
         11    1    4    4    0    0  0.71710740502E+02 -0.32966833772E+02 -0.36065448350E+02  0.86775336340E+02  0.00000000000E+00 0. -1.
        -12    1    4    4    0    0  0.42933695245E+02  0.10683677033E+02 -0.10199866230E+03  0.11118079984E+03  0.00000000000E+00 0.  1.
</event>
<event>
12    1  0.8461994E-002  0.2162408E+03  0.7818608E-02  0.1137049E+00
         21   -1    0    0  503  502  0.00000000000E+00  0.00000000000E+00  0.10659333384E+04  0.10659333384E+04  0.00000000000E+00 0. -1.
         21   -1    0    0  501  503 -0.00000000000E+00 -0.00000000000E+00 -0.98128135075E+02  0.98128135075E+02  0.00000000000E+00 0. -1.
          6    2    1    2  501    0 -0.56656106746E+02  0.11735046479E+03  0.50566355256E+02  0.22207436093E+03  0.17256598587E+03 0.  0.
         24    2    3    3    0    0 -0.47562181596E+02  0.70529848227E+01  0.61405074301E+02  0.11077386052E+03  0.78666125559E+02 0.  0.
         -6    2    1    2    0  502  0.56656106746E+02 -0.11735046479E+03  0.91723884809E+03  0.94198711257E+03  0.17038653052E+03 0.  0.
        -24    2    5    5    0    0 -0.23556934343E+02 -0.69696383447E+02  0.31850291756E+03  0.33600704034E+03  0.77743859199E+02 0.  0.
          5    1    3    3  501    0 -0.90939251495E+01  0.11029747997E+03 -0.10838719045E+02  0.11130050041E+03  0.47000000000E+01 0. -1.
        -11    1    4    4    0    0 -0.14313926537E+02 -0.30246977585E+02  0.25374207413E+01  0.33559002517E+02  0.00000000000E+00 0.  1.
         12    1    4    4    0    0 -0.33248255060E+02  0.37299962407E+02  0.58867653560E+02  0.77214857998E+02  0.00000000000E+00 0. -1.
         -5    1    5    5    0  502  0.80213041089E+02 -0.47654081341E+02  0.59873593053E+03  0.60598007223E+03  0.47000000000E+01 0.  1.
         13    1    6    6    0    0 -0.32031877089E+02 -0.41091911336E+02  0.29034851936E+03  0.29498618446E+03  0.00000000000E+00 0. -1.
        -14    1    6    6    0    0  0.84749427459E+01 -0.28604472112E+02  0.28154398201E+02  0.41020855884E+02  0.00000000000E+00 0.  1.
</event>
<event>
12    1  0.8461994E-002  0.1858080E+03  0.7818608E-02  0.1162316E+00
         21   -1    0    0  503  502  0.00000000000E+00  0.00000000000E+00  0.41624555833E+03  0.41624555833E+03  0.00000000000E+00 0. -1.
         21   -1    0    0  501  503 -0.00000000000E+00 -0.00000000000E+00 -0.94167569858E+02  0.94167569858E+02  0.00000000000E+00 0. -1.
          6    2    1    2  501    0 -0.71326156052E+02 -0.11051697274E+02  0.72817703599E+02  0.19956707888E+03  0.17121635572E+03 0.  0.
         24    2    3    3    0    0  0.27517128815E+02  0.29732778735E+00  0.36264965591E+02  0.93468125122E+02  0.81632480683E+02 0.  0.
         -6    2    1    2    0  502  0.71326156052E+02  0.11051697274E+02  0.24926028487E+03  0.31084604930E+03  0.17112865395E+03 0.  0.
        -24    2    5    5    0    0  0.87887880563E+02 -0.44091992752E+02  0.18036364831E+03  0.22093523906E+03  0.81320051979E+02 0.  0.
          5    1    3    3  501    0 -0.98843284867E+02 -0.11349025061E+02  0.36552738008E+02  0.10609895376E+03  0.47000000000E+01 0. -1.
        -11    1    4    4    0    0 -0.14463427057E+02 -0.20353626120E+02  0.39325961628E+02  0.46583173748E+02  0.00000000000E+00 0.  1.
         12    1    4    4    0    0  0.41980555872E+02  0.20650953908E+02 -0.30609960367E+01  0.46884951374E+02  0.00000000000E+00 0. -1.
         -5    1    5    5    0  502 -0.16561724511E+02  0.55143690026E+02  0.68896636566E+02  0.89910810244E+02  0.47000000000E+01 0.  1.
         11    1    6    6    0    0  0.52978035513E+02 -0.40541697161E+02  0.17253480420E+03  0.18498259409E+03  0.00000000000E+00 0. -1.
        -12    1    6    6    0    0  0.34909845050E+02 -0.35502955910E+01  0.78288441016E+01  0.35952644968E+02  0.00000000000E+00 0.  1.
</event>
<event>
12    1  0.8461994E-002  0.1809563E+03  0.7818608E-02  0.1168158E+00
         21   -1    0    0  501  502  0.00000000000E+00  0.00000000000E+00  0.57549582303E+03  0.57549582303E+03  0.00000000000E+00 0. -1.
         21   -1    0    0  502  503 -0.00000000000E+00 -0.00000000000E+00 -0.55286191347E+02  0.55286191347E+02  0.00000000000E+00 0. -1.
         -6    2    1    2    0  503  0.25912034170E+02  0.47394519130E+02  0.26233008863E+03  0.31574701351E+03  0.16721670723E+03 0.  0.
        -24    2    3    3    0    0 -0.12678239940E+02  0.64528287219E+02  0.86399002415E+02  0.13475913446E+03  0.79816032736E+02 0.  0.
          6    2    1    2  501    0 -0.25912034170E+02 -0.47394519130E+02  0.25787954305E+03  0.31503500087E+03  0.17270645353E+03 0.  0.
         24    2    5    5    0    0 -0.94219146826E+01 -0.58177780413E+02  0.61298998883E+02  0.11741363788E+03  0.80962759875E+02 0.  0.
          5    1    5    5  501    0 -0.16490119488E+02  0.10783261282E+02  0.19658054417E+03  0.19762136299E+03  0.47000000000E+01 0. -1.
        -13    1    6    6    0    0 -0.21364947006E+02 -0.53426161978E+01 -0.12917567135E+02  0.25531706741E+02  0.00000000000E+00 0.  1.
         14    1    6    6    0    0  0.11943032324E+02 -0.52835164215E+02  0.74216566018E+02  0.91881931141E+02  0.00000000000E+00 0. -1.
         -5    1    3    3    0  503  0.38590274110E+02 -0.17133768089E+02  0.17593108622E+03  0.18098787905E+03  0.47000000000E+01 0.  1.
         11    1    4    4    0    0 -0.57182709914E+01  0.29947536046E+02  0.93874552304E+02  0.98701494966E+02  0.00000000000E+00 0. -1.
        -12    1    4    4    0    0 -0.69599689481E+01  0.34580751173E+02 -0.74755498890E+01  0.36057639490E+02  0.00000000000E+00 0.  1.
</event>
<event>
12    1  0.8461994E-002  0.1797727E+03  0.7818608E-02  0.1168228E+00
         21   -1    0    0  503  502  0.00000000000E+00  0.00000000000E+00  0.18948531449E+03  0.18948531449E+03  0.00000000000E+00 0. -1.
         21   -1    0    0  501  503 -0.00000000000E+00 -0.00000000000E+00 -0.30486755994E+03  0.30486755994E+03  0.00000000000E+00 0. -1.
          6    2    1    2  501    0  0.27864425252E+02  0.43874074332E+02 -0.22216421829E+03  0.28525809643E+03  0.17121296999E+03 0.  0.
         24    2    3    3    0    0 -0.14066107444E+02 -0.45581448515E+02 -0.99585986448E+02  0.12775262648E+03  0.64248276618E+02 0.  0.
         -6    2    1    2    0  502 -0.27864425252E+02 -0.43874074332E+02  0.10678197284E+03  0.20909477801E+03  0.17209554286E+03 0.  0.
        -24    2    5    5    0    0 -0.23471424304E+02  0.68389133719E+01  0.49379473175E+01  0.95141273832E+02  0.91813943209E+02 0.  0.
          5    1    3    3  501    0  0.41930532696E+02  0.89455522847E+02 -0.12257823185E+03  0.15750546995E+03  0.47000000000E+01 0. -1.
        -13    1    4    4    0    0  0.11261521015E+02 -0.23719005178E+02 -0.41005502746E+01  0.26574942610E+02  0.00000000000E+00 0.  1.
         14    1    4    4    0    0 -0.25327628459E+02 -0.21862443338E+02 -0.95485436173E+02  0.10117768387E+03  0.00000000000E+00 0. -1.
         -5    1    5    5    0  502 -0.43930009477E+01 -0.50712987704E+02  0.10184402552E+03  0.11395350417E+03  0.47000000000E+01 0.  1.
         13    1    6    6    0    0  0.99521201522E+01 -0.10246205758E+02  0.40799146917E+02  0.43227304070E+02  0.00000000000E+00 0. -1.
        -14    1    6    6    0    0 -0.33423544456E+02  0.17085119130E+02 -0.35861199600E+02  0.51913969762E+02  0.00000000000E+00 0.  1.
</event>
<event>
12    1  0.8461994E-002  0.1911943E+03  0.7818608E-02  0.1157645E+00
         21   -1    0    0  501  502  0.00000000000E+00  0.00000000000E+00  0.12906757840E+04  0.12906757840E+04  0.00000000000E+00 0. -1.
         21   -1    0    0  502  503 -0.00000000000E+00 -0.00000000000E+00 -0.36573453716E+02  0.36573453716E+02  0.00000000000E+00 0. -1.
         -6    2    1    2    0  503 -0.11072299406E+02  0.80621177190E+02  0.31008108864E+03  0.36428770335E+03  0.17301121136E+03 0.  0.
        -24    2    3    3    0    0  0.26118834459E+02  0.98851637617E+02  0.29093965066E+03  0.31841816255E+03  0.79312080692E+02 0.  0.
          6    2    1    2  501    0  0.11072299406E+02 -0.80621177190E+02  0.94402124167E+03  0.96296153438E+03  0.17174528220E+03 0.  0.
         24    2    5    5    0    0  0.38085781513E+02 -0.87414388406E+02  0.39706150014E+03  0.41527282281E+03  0.75510796693E+02 0.  0.
          5    1    5    5  501    0 -0.27013482107E+02  0.67932112164E+01  0.54695974153E+03  0.54768871157E+03  0.47000000000E+01 0. -1.
        -11    1    6    6    0    0  0.20565268978E+02 -0.25273258745E+02  0.27737816501E+03  0.27928536360E+03  0.00000000000E+00 0.  1.
         12    1    6    6    0    0  0.17520512535E+02 -0.62141129661E+02  0.11968333513E+03  0.13598745921E+03  0.00000000000E+00 0. -1.
         -5    1    3    3    0  503 -0.37191133865E+02 -0.18230460427E+02  0.19141437981E+02  0.45869540803E+02  0.47000000000E+01 0.  1.
         11    1    4    4    0    0  0.10487608769E+02  0.55543764440E+02  0.58062325631E+02  0.81032915310E+02  0.00000000000E+00 0. -1.
        -12    1    4    4    0    0  0.15631225690E+02  0.43307873176E+02  0.23287732503E+03  0.23738524724E+03  0.00000000000E+00 0.  1.
</event>
<event>
12    1  0.8461994E-002  0.1782729E+03  0.7818608E-02  0.1169818E+00
         21   -1    0    0  501  502  0.00000000000E+00  0.00000000000E+00  0.50476950454E+02  0.50476950454E+02  0.00000000000E+00 0.  1.
         21   -1    0    0  502  503 -0.00000000000E+00 -0.00000000000E+00 -0.62771306594E+03  0.62771306594E+03  0.00000000000E+00 0. -1.
         -6    2    1    2    0  503  0.32465976187E+02  0.32726005684E+02 -0.31262588304E+03  0.35988355717E+03  0.17220975848E+03 0.  0.
        -24    2    3    3    0    0  0.26670931602E+02  0.35365819958E+02 -0.32909104311E+03  0.34161493223E+03  0.80235699407E+02 0.  0.
          6    2    1    2  501    0 -0.32465976187E+02 -0.32726005684E+02 -0.26461023244E+03  0.31830645922E+03  0.17080806717E+03 0.  0.
         24    2    5    5    0    0  0.35802882688E+02 -0.55303084962E+02 -0.15683955516E+03  0.18866475882E+03  0.81581048918E+02 0.  0.
          5    1    5    5  501    0 -0.68268858875E+02  0.22577079278E+02 -0.10777067728E+03  0.12964170040E+03  0.47000000000E+01 0. -1.
        -11    1    6    6    0    0  0.22783875163E+02 -0.66750721635E+02 -0.15612050728E+03  0.17131367896E+03  0.00000000000E+00 0.  1.
         12    1    6    6    0    0  0.13019007524E+02  0.11447636673E+02 -0.71904787913E+00  0.17351079856E+02  0.00000000000E+00 0. -1.
         -5    1    3    3    0  503  0.57950445854E+01 -0.26398142738E+01  0.16465160065E+02  0.18268624937E+02  0.47000000000E+01 0.  1.
         11    1    4    4    0    0  0.48257399790E+02  0.35406396630E+01 -0.23571689783E+03  0.24063201925E+03  0.00000000000E+00 0. -1.
        -12    1    4    4    0    0 -0.21586468189E+02  0.31825180295E+02 -0.93374145273E+02  0.10098291299E+03  0.00000000000E+00 0.  1.
</event>
<event>
12    1  0.8461994E-002  0.2267425E+03  0.7818608E-02  0.1128955E+00
         21   -1    0    0  503  502  0.00000000000E+00  0.00000000000E+00  0.36211020456E+03  0.36211020456E+03  0.00000000000E+00 0.  1.
         21   -1    0    0  501  503 -0.00000000000E+00 -0.00000000000E+00 -0.14240098047E+03  0.14240098047E+03  0.00000000000E+00 0.  1.
          6    2    1    2  501    0  0.25233977442E+02 -0.14471984310E+03  0.96038672535E+02  0.24623504400E+03  0.17270692999E+03 0.  0.
         24    2    3    3    0    0  0.77945476112E+02 -0.59641651292E+02  0.48481541393E+02  0.13532710228E+03  0.79563439731E+02 0.  0.
         -6    2    1    2    0  502 -0.25233977442E+02  0.14471984310E+03  0.12367055156E+03  0.25827614103E+03  0.17271818984E+03 0.  0.
        -24    2    5    5    0    0 -0.48122088630E+02  0.94178388307E+02  0.15001064944E+03  0.19667910342E+03  0.70669445586E+02 0.  0.
          5    1    3    3  501    0 -0.52711498671E+02 -0.85078191806E+02  0.47557131142E+02  0.11090794172E+03  0.47000000000E+01 0. -1.
        -13    1    4    4    0    0  0.24290554233E+02 -0.67650781235E+02  0.23703578447E+02  0.75686979447E+02  0.00000000000E+00 0.  1.
         14    1    4    4    0    0  0.53654921880E+02  0.80091299430E+01  0.24777962946E+02  0.59640122838E+02  0.00000000000E+00 0. -1.
         -5    1    5    5    0  502  0.22888111188E+02  0.50541454791E+02 -0.26340097883E+02  0.61597037613E+02  0.47000000000E+01 0.  1.
         13    1    6    6    0    0 -0.79270409307E+00  0.76153412805E+02  0.82410949193E+02  0.11221201009E+03  0.00000000000E+00 0. -1.
        -14    1    6    6    0    0 -0.47329384536E+02  0.18024975501E+02  0.67599700246E+02  0.84467093331E+02  0.00000000000E+00 0.  1.
</event>
<event>
12    1  0.8461994E-002  0.2011229E+03  0.7818608E-02  0.1149731E+00
         21   -1    0    0  503  502  0.00000000000E+00  0.00000000000E+00  0.76321051220E+03  0.76321051220E+03  0.00000000000E+00 0. -1.
         21   -1    0    0  501  503 -0.00000000000E+00 -0.00000000000E+00 -0.75384893291E+02  0.75384893291E+02  0.00000000000E+00 0. -1.
          6    2    1    2  501    0 -0.74308532886E+02 -0.59599916830E+02  0.11223143491E+03  0.23031786315E+03  0.17713417219E+03 0.  0.
         24    2    3    3    0    0  0.13425341966E+02  0.16658897057E+02  0.71224007220E+02  0.10696333904E+03  0.76880023651E+02 0.  0.
         -6    2    1    2    0  502  0.74308532886E+02  0.59599916830E+02  0.57559418400E+03  0.60827754234E+03  0.17210170168E+03 0.  0.
        -24    2    5    5    0    0  0.82778238922E+02  0.46118806843E+01  0.50784851297E+03  0.52048810117E+03  0.78257555830E+02 0.  0.
          5    1    3    3  501    0 -0.87733874852E+02 -0.76258813887E+02  0.41007427694E+02  0.12335452411E+03  0.47000000000E+01 0. -1.
        -13    1    4    4    0    0 -0.31899790117E+02  0.11221178097E+02  0.25507494660E+02  0.42357333854E+02  0.00000000000E+00 0.  1.
         14    1    4    4    0    0  0.45325132082E+02  0.54377189597E+01  0.45716512560E+02  0.64606005188E+02  0.00000000000E+00 0. -1.
         -5    1    5    5    0  502 -0.84697060363E+01  0.54988036146E+02  0.67745671025E+02  0.87789441176E+02  0.47000000000E+01 0.  1.
         11    1    6    6    0    0  0.63051117422E+02 -0.29809270735E+02  0.24767429601E+03  0.25730641837E+03  0.00000000000E+00 0. -1.
        -12    1    6    6    0    0  0.19727121500E+02  0.34421151419E+02  0.26017421697E+03  0.26318168280E+03  0.00000000000E+00 0.  1.
</event>
<event>
12    1  0.8461994E-002  0.2982111E+03  0.7818608E-02  0.1086196E+00
         21   -1    0    0  501  502  0.00000000000E+00  0.00000000000E+00  0.22021837418E+03  0.22021837418E+03  0.00000000000E+00 0.  1.
         21   -1    0    0  502  503 -0.00000000000E+00 -0.00000000000E+00 -0.48339319921E+03  0.48339319921E+03  0.00000000000E+00 0.  1.
         -6    2    1    2    0  503 -0.11740415669E+03 -0.21214807042E+03 -0.27479107657E+03  0.40517429611E+03  0.17281647686E+03 0.  0.
        -24    2    3    3    0    0 -0.62304719403E+02 -0.20394667206E+03 -0.26279584863E+03  0.34799749646E+03  0.81021456296E+02 0.  0.
          6    2    1    2  501    0  0.11740415669E+03  0.21214807042E+03  0.11616251538E+02  0.29843727728E+03  0.17360682987E+03 0.  0.
         24    2    5    5    0    0  0.34960107908E+02  0.14084881960E+03  0.63212183415E+02  0.17775242100E+03  0.80867446561E+02 0.  0.
          5    1    5    5  501    0  0.82444048784E+02  0.71299250821E+02 -0.51595931877E+02  0.12068485627E+03  0.47000000000E+01 0. -1.
        -11    1    6    6    0    0  0.13283509911E+02  0.11928195622E+03  0.15406723632E+02  0.12100414806E+03  0.00000000000E+00 0.  1.
         12    1    6    6    0    0  0.21676597997E+02  0.21566863379E+02  0.47805459783E+02  0.56748272941E+02  0.00000000000E+00 0. -1.
         -5    1    3    3    0  503 -0.55099437289E+02 -0.82013983619E+01 -0.11995227936E+02  0.57176799647E+02  0.47000000000E+01 0.  1.
         11    1    4    4    0    0  0.14726023783E+02 -0.17385498557E+02 -0.11029435473E+02  0.25313233365E+02  0.00000000000E+00 0. -1.
        -12    1    4    4    0    0 -0.77030743186E+02 -0.18656117350E+03 -0.25176641316E+03  0.32268426309E+03  0.00000000000E+00 0.  1.
</event>
<event>
12    1  0.8461994E-002  0.3138126E+03  0.7818608E-02  0.1078676E+00
         21   -1    0    0  503  502  0.00000000000E+00  0.00000000000E+00  0.25270851655E+03  0.25270851655E+03  0.00000000000E+00 0. -1.
         21   -1    0    0  501  503 -0.00000000000E+00 -0.00000000000E+00 -0.47424184611E+03  0.47424184611E+03  0.00000000000E+00 0.  1.
          6    2    1    2  501    0  0.18523960319E+03  0.18454347129E+03 -0.26577247862E+03  0.41123392337E+03  0.17351750905E+03 0.  0.
         24    2    3    3    0    0  0.14095844010E+03  0.13297334617E+03 -0.10013698301E+03  0.23213197860E+03  0.79414403602E+02 0.  0.
         -6    2    1    2    0  502 -0.18523960319E+03 -0.18454347129E+03  0.44239149057E+02  0.31571643929E+03  0.17131772922E+03 0.  0.
        -24    2    5    5    0    0 -0.89287435486E+02 -0.12482143666E+03  0.89155242228E+02  0.19400742018E+03  0.78342738542E+02 0.  0.
          5    1    3    3  501    0  0.44281163099E+02  0.51570125121E+02 -0.16563549561E+03  0.17910194476E+03  0.47000000000E+01 0. -1.
        -13    1    4    4    0    0  0.55356634719E+02  0.34624728935E+02 -0.74834936950E+02  0.99315138068E+02  0.00000000000E+00 0.  1.
         14    1    4    4    0    0  0.85601805377E+02  0.98348617231E+02 -0.25302046060E+02  0.13281684054E+03  0.00000000000E+00 0. -1.
         -5    1    5    5    0  502 -0.95952167709E+02 -0.59722034630E+02 -0.44916093171E+02  0.12170901912E+03  0.47000000000E+01 0.  1.
         13    1    6    6    0    0 -0.70714999931E+02 -0.51589209102E+02  0.16273733595E+02  0.89033095622E+02  0.00000000000E+00 0. -1.
        -14    1    6    6    0    0 -0.18572435555E+02 -0.73232227556E+02  0.72881508633E+02  0.10497432456E+03  0.00000000000E+00 0.  1.
</event>
<event>
12    1  0.8461994E-002  0.4169875E+03  0.7818608E-02  0.1038088E+00
         21   -1    0    0  501  502  0.00000000000E+00  0.00000000000E+00  0.58758041826E+03  0.58758041826E+03  0.00000000000E+00 0. -1.
         21   -1    0    0  502  503 -0.00000000000E+00 -0.00000000000E+00 -0.51564937261E+03  0.51564937261E+03  0.00000000000E+00 0.  1.
         -6    2    1    2    0  503 -0.10753666887E+03  0.36381490190E+03  0.39629656623E+03  0.57493861222E+03  0.17198261953E+03 0.  0.
        -24    2    3    3    0    0 -0.46049816681E+02  0.26769144019E+03  0.35236848254E+03  0.45257800001E+03  0.82969909225E+02 0.  0.
          6    2    1    2  501    0  0.10753666887E+03 -0.36381490190E+03 -0.32436552059E+03  0.52829117865E+03  0.17306981393E+03 0.  0.
         24    2    5    5    0    0  0.49205218560E+02 -0.17481162438E+03 -0.78439212432E+02  0.21265430493E+03  0.78031312979E+02 0.  0.
          5    1    5    5  501    0  0.58331450310E+02 -0.18900327752E+03 -0.24592630815E+03  0.31563687372E+03  0.47000000000E+01 0. -1.
        -11    1    6    6    0    0  0.15924412532E+02 -0.39382840472E+02 -0.57717300726E+02  0.71665067091E+02  0.00000000000E+00 0.  1.
         12    1    6    6    0    0  0.33280806028E+02 -0.13542878391E+03 -0.20721911706E+02  0.14098923784E+03  0.00000000000E+00 0. -1.
         -5    1    3    3    0  503 -0.61486852189E+02  0.96123461713E+02  0.43928083682E+02  0.12236061221E+03  0.47000000000E+01 0.  1.
         13    1    4    4    0    0 -0.54599896837E+02  0.26810202799E+03  0.34879207234E+03  0.44330097663E+03  0.00000000000E+00 0. -1.
        -14    1    4    4    0    0  0.85500801556E+01 -0.41058779967E+00  0.35764102017E+01  0.92770233879E+01  0.00000000000E+00 0.  1.
</event>
<event>
12    1  0.8461994E-002  0.2164411E+03  0.7818608E-02  0.1136834E+00
         21   -1    0    0  503  502  0.00000000000E+00  0.00000000000E+00  0.37631136682E+02  0.37631136682E+02  0.00000000000E+00 0.  1.
         21   -1    0    0  501  503 -0.00000000000E+00 -0.00000000000E+00 -0.22714279101E+04  0.22714279101E+04  0.00000000000E+00 0.  1.
          6    2    1    2  501    0  0.12756098709E+03  0.29249447278E+02 -0.18941072137E+04  0.19062740340E+04  0.17062010450E+03 0.  0.
         24    2    3    3    0    0  0.12042880938E+03  0.13636336756E+02 -0.87111980164E+03  0.88313182861E+03  0.79894118013E+02 0.  0.
         -6    2    1    2    0  502 -0.12756098709E+03 -0.29249447278E+02 -0.33968955975E+03  0.40278501283E+03  0.17239325382E+03 0.  0.
        -24    2    5    5    0    0 -0.42937648141E+02 -0.75501741359E+02 -0.16815799105E+03  0.20594611103E+03  0.81194434024E+02 0.  0.
          5    1    3    3  501    0  0.71321777176E+01  0.15613110522E+02 -0.10229874121E+04  0.10231422054E+04  0.47000000000E+01 0. -1.
        -11    1    4    4    0    0  0.56160727688E+02 -0.11062262795E+02 -0.62338710633E+03  0.62600949301E+03  0.00000000000E+00 0.  1.
         12    1    4    4    0    0  0.64268081688E+02  0.24698599551E+02 -0.24773269530E+03  0.25712233560E+03  0.00000000000E+00 0. -1.
         -5    1    5    5    0  502 -0.84623338952E+02  0.46252294081E+02 -0.17153156870E+03  0.19683890181E+03  0.47000000000E+01 0.  1.
         13    1    6    6    0    0  0.15971121607E+02 -0.48962362522E+02 -0.53002206554E+02  0.73902798111E+02  0.00000000000E+00 0. -1.
        -14    1    6    6    0    0 -0.58908769748E+02 -0.26539378837E+02 -0.11515578450E+03  0.13204331292E+03  0.00000000000E+00 0.  1.
</event>
<event>
12    1  0.8461994E-002  0.2976740E+03  0.7818608E-02  0.1086991E+00
         21   -1    0    0  501  502  0.00000000000E+00  0.00000000000E+00  0.17725721806E+03  0.17725721806E+03  0.00000000000E+00 0. -1.
         21   -1    0    0  502  503 -0.00000000000E+00 -0.00000000000E+00 -0.54632220884E+03  0.54632220884E+03  0.00000000000E+00 0.  1.
         -6    2    1    2    0  503 -0.23688359458E+03  0.51597063134E+02 -0.29964704454E+03  0.42237208916E+03  0.17272445135E+03 0.  0.
        -24    2    3    3    0    0 -0.95534207756E+02 -0.37108818348E+02 -0.16332827762E+03  0.20684186209E+03  0.74857066417E+02 0.  0.
          6    2    1    2  501    0  0.23688359458E+03 -0.51597063134E+02 -0.69417946235E+02  0.30120733775E+03  0.16471464643E+03 0.  0.
         24    2    5    5    0    0  0.20969838159E+03 -0.74940024612E+02 -0.97558768737E+02  0.25540422053E+03  0.78257165658E+02 0.  0.
          5    1    5    5  501    0  0.27185212985E+02  0.23342961478E+02  0.28140822501E+02  0.45803117216E+02  0.47000000000E+01 0. -1.
        -11    1    6    6    0    0  0.43207468967E+02 -0.19281526133E+02 -0.59075959294E+02  0.75687724177E+02  0.00000000000E+00 0.  1.
         12    1    6    6    0    0  0.16649091262E+03 -0.55658498480E+02 -0.38482809443E+02  0.17971649635E+03  0.00000000000E+00 0. -1.
         -5    1    3    3    0  503 -0.14134938682E+03  0.88705881482E+02 -0.13631876692E+03  0.21553022707E+03  0.47000000000E+01 0.  1.
         13    1    4    4    0    0  0.11097645865E+02 -0.11198522112E+02 -0.11523827847E+02  0.19528523997E+02  0.00000000000E+00 0. -1.
        -14    1    4    4    0    0 -0.10663185362E+03 -0.25910296236E+02 -0.15180444977E+03  0.18731333809E+03  0.00000000000E+00 0.  1.
</event>
<event>
12    1  0.8461994E-002  0.1899443E+03  0.7818608E-02  0.1158817E+00
         21   -1    0    0  501  502  0.00000000000E+00  0.00000000000E+00  0.78144700057E+03  0.78144700057E+03  0.00000000000E+00 0.  1.
         21   -1    0    0  502  503 -0.00000000000E+00 -0.00000000000E+00 -0.72600239816E+02  0.72600239816E+02  0.00000000000E+00 0. -1.
         -6    2    1    2    0  503  0.18928313003E+02  0.79835911226E+02  0.94379609207E+02  0.21089196694E+03  0.16981124030E+03 0.  0.
        -24    2    3    3    0    0  0.76700257238E+02  0.41035954088E+02  0.70578332732E+02  0.13719240808E+03  0.79205913891E+02 0.  0.
          6    2    1    2  501    0 -0.18928313003E+02 -0.79835911226E+02  0.61446715155E+03  0.64315527345E+03  0.17130899473E+03 0.  0.
         24    2    5    5    0    0 -0.51499662497E+02 -0.40090615094E+02  0.55503668021E+03  0.56444915999E+03  0.79231718238E+02 0.  0.
          5    1    5    5  501    0  0.32571349493E+02 -0.39745296132E+02  0.59430471337E+02  0.78706113459E+02  0.47000000000E+01 0. -1.
        -11    1    6    6    0    0 -0.47922148237E+02  0.12626613182E+02  0.24882338509E+03  0.25371054495E+03  0.00000000000E+00 0.  1.
         12    1    6    6    0    0 -0.35775142599E+01 -0.52717228276E+02  0.30621329512E+03  0.31073861504E+03  0.00000000000E+00 0. -1.
         -5    1    3    3    0  503 -0.57771944235E+02  0.38799957138E+02  0.23801276476E+02  0.73699558862E+02  0.47000000000E+01 0.  1.
         11    1    4    4    0    0  0.48648470197E+02  0.49814831560E+01 -0.47098659955E+01  0.49129132545E+02  0.00000000000E+00 0. -1.
        -12    1    4    4    0    0  0.28051787041E+02  0.36054470932E+02  0.75288198727E+02  0.88063275535E+02  0.00000000000E+00 0.  1.
</event>
<event>
12    1  0.8461994E-002  0.2540908E+03  0.7818608E-02  0.1111321E+00
         21   -1    0    0  501  502  0.00000000000E+00  0.00000000000E+00  0.12351291540E+03  0.12351291540E+03  0.00000000000E+00 0.  1.
         21   -1    0    0  502  503 -0.00000000000E+00 -0.00000000000E+00 -0.52054366977E+03  0.52054366977E+03  0.00000000000E+00 0. -1.
         -6    2    1    2    0  503 -0.14583076249E+03 -0.10751270358E+03 -0.23267891930E+03  0.34453100384E+03  0.17814752425E+03 0.  0.
        -24    2    3    3    0    0 -0.11831800194E+03 -0.81262299245E+02 -0.25265068689E+03  0.30132224059E+03  0.79749684791E+02 0.  0.
          6    2    1    2  501    0  0.14583076249E+03  0.10751270358E+03 -0.16435183507E+03  0.29952558133E+03  0.17285385578E+03 0.  0.
         24    2    5    5    0    0  0.11765193572E+03  0.13505379626E+03 -0.90252792800E+02  0.21547014647E+03  0.78742057048E+02 0.  0.
          5    1    5    5  501    0  0.28178826767E+02 -0.27541092678E+02 -0.74099042268E+02  0.84055434856E+02  0.47000000000E+01 0. -1.
        -11    1    6    6    0    0  0.52470954088E+01 -0.93604058573E+01  0.13594072693E+01  0.10816524218E+02  0.00000000000E+00 0.  1.
         12    1    6    6    0    0  0.11240484032E+03  0.14441420212E+03 -0.91612200070E+02  0.20465362225E+03  0.00000000000E+00 0. -1.
         -5    1    3    3    0  503 -0.27512760547E+02 -0.26250404340E+02  0.19971767589E+02  0.43208763249E+02  0.47000000000E+01 0.  1.
         11    1    4    4    0    0 -0.24376526999E+02  0.15277948478E+02 -0.34338202151E+02  0.44796684087E+02  0.00000000000E+00 0. -1.
        -12    1    4    4    0    0 -0.93941474946E+02 -0.96540247722E+02 -0.21831248474E+03  0.25652555650E+03  0.00000000000E+00 0.  1.
</event>
<event>
12    1  0.8461994E-002  0.2398707E+03  0.7818608E-02  0.1119974E+00
         21   -1    0    0  501  502  0.00000000000E+00  0.00000000000E+00  0.23551958191E+03  0.23551958191E+03  0.00000000000E+00 0.  1.
         21   -1    0    0  502  503 -0.00000000000E+00 -0.00000000000E+00 -0.27831123077E+03  0.27831123077E+03  0.00000000000E+00 0.  1.
         -6    2    1    2    0  503 -0.16101967933E+03 -0.42648079450E+02 -0.11199165320E+03  0.26472642479E+03  0.17260287883E+03 0.  0.
        -24    2    3    3    0    0 -0.48487313032E+02  0.37848226403E+02 -0.39307195234E+02  0.10836687391E+03  0.80092546450E+02 0.  0.
          6    2    1    2  501    0  0.16101967933E+03  0.42648079450E+02  0.69200004341E+02  0.24910438788E+03  0.17180849702E+03 0.  0.
         24    2    5    5    0    0  0.18585284358E+03  0.49118849578E+02  0.44256511602E+02  0.21300972425E+03  0.80377627215E+02 0.  0.
          5    1    5    5  501    0 -0.24833164247E+02 -0.64707701282E+01  0.24943492739E+02  0.36094663630E+02  0.47000000000E+01 0. -1.
        -11    1    6    6    0    0  0.53756977901E+02  0.40441002396E+02  0.44449364213E+02  0.80628985649E+02  0.00000000000E+00 0.  1.
         12    1    6    6    0    0  0.13209586568E+03  0.86778471819E+01 -0.19285261166E+00  0.13238073861E+03  0.00000000000E+00 0. -1.
         -5    1    3    3    0  503 -0.11253236630E+03 -0.80496305853E+02 -0.72684457970E+02  0.15635955088E+03  0.47000000000E+01 0.  1.
         11    1    4    4    0    0 -0.68664505361E+02  0.30150634898E+02 -0.16167683643E+02  0.76715507400E+02  0.00000000000E+00 0. -1.
        -12    1    4    4    0    0  0.20177192329E+02  0.76975915050E+01 -0.23139511591E+02  0.31651366510E+02  0.00000000000E+00 0.  1.
</event>
<event>
12    1  0.8461994E-002  0.2075604E+03  0.7818608E-02  0.1145583E+00
         21   -1    0    0  501  502  0.00000000000E+00  0.00000000000E+00  0.38021914254E+03  0.38021914254E+03  0.00000000000E+00 0.  1.
         21   -1    0    0  502  503 -0.00000000000E+00 -0.00000000000E+00 -0.10909812197E+03  0.10909812197E+03  0.00000000000E+00 0. -1.
         -6    2    1    2    0  503 -0.10482655902E+03  0.96180704971E+01  0.15789530244E+03  0.25288256791E+03  0.16714530165E+03 0.  0.
        -24    2    3    3    0    0  0.22412627883E+01 -0.35103263588E+02  0.62730772002E+02  0.10274298604E+03  0.73373762693E+02 0.  0.
          6    2    1    2  501    0  0.10482655902E+03 -0.96180704971E+01  0.11322571813E+03  0.23643469660E+03  0.17888596299E+03 0.  0.
         24    2    5    5    0    0  0.68255020219E+01 -0.65815241709E+02  0.41513925994E+02  0.10254294795E+03  0.66433550283E+02 0.  0.
          5    1    5    5  501    0  0.98001057003E+02  0.56197171212E+02  0.71711792133E+02  0.13389174865E+03  0.47000000000E+01 0. -1.
        -11    1    6    6    0    0  0.32082001783E+02 -0.21885040221E+02  0.33403428456E+02  0.51224982738E+02  0.00000000000E+00 0.  1.
         12    1    6    6    0    0 -0.25256499761E+02 -0.43930201488E+02  0.81104975380E+01  0.51317965210E+02  0.00000000000E+00 0. -1.
         -5    1    3    3    0  503 -0.10706782181E+03  0.44721334085E+02  0.95164530438E+02  0.15013958187E+03  0.47000000000E+01 0.  1.
         11    1    4    4    0    0 -0.28245609545E+02 -0.23929491795E+02  0.59548402387E+02  0.70117382032E+02  0.00000000000E+00 0. -1.
        -12    1    4    4    0    0  0.30486872333E+02 -0.11173771793E+02  0.31823696148E+01  0.32625604011E+02  0.00000000000E+00 0.  1.
</event>
<event>
12    1  0.8461994E-002  0.2085886E+03  0.7818608E-02  0.1142745E+00
         21   -1    0    0  501  502  0.00000000000E+00  0.00000000000E+00  0.45280899275E+02  0.45280899275E+02  0.00000000000E+00 0.  1.
         21   -1    0    0  502  503 -0.00000000000E+00 -0.00000000000E+00 -0.14144742604E+04  0.14144742604E+04  0.00000000000E+00 0. -1.
         -6    2    1    2    0  503  0.52600470254E+02  0.10704706385E+03 -0.10988201235E+04  0.11184430555E+04  0.17112370176E+03 0.  0.
        -24    2    3    3    0    0  0.19456729326E+02  0.48073907384E+02 -0.95087966370E+03  0.95570151077E+03  0.80644763982E+02 0.  0.
          6    2    1    2  501    0 -0.52600470254E+02 -0.10704706385E+03 -0.27037323763E+03  0.34131210415E+03  0.17078167778E+03 0.  0.
         24    2    5    5    0    0 -0.51946432605E+02 -0.44180020764E+02 -0.57759091946E+02  0.11954745905E+03  0.79405139432E+02 0.  0.
          5    1    5    5  501    0 -0.65403764871E+00 -0.62867043083E+02 -0.21261414568E+03  0.22176464510E+03  0.47000000000E+01 0. -1.
        -13    1    6    6    0    0 -0.16063428836E+02 -0.37451419295E+02  0.10549818970E+02  0.42094432334E+02  0.00000000000E+00 0.  1.
         14    1    6    6    0    0 -0.35883003769E+02 -0.67286014691E+01 -0.68308910916E+02  0.77453026718E+02  0.00000000000E+00 0. -1.
         -5    1    3    3    0  503  0.33143740927E+02  0.58973156463E+02 -0.14794045981E+03  0.16274154477E+03  0.47000000000E+01 0.  1.
         11    1    4    4    0    0  0.25935933580E+02  0.62294384801E+02 -0.49781565855E+03  0.50236808510E+03  0.00000000000E+00 0. -1.
        -12    1    4    4    0    0 -0.64792042533E+01 -0.14220477417E+02 -0.45306400515E+03  0.45333342567E+03  0.00000000000E+00 0.  1.
</event>
<event>
12    1  0.8461994E-002  0.2216280E+03  0.7818608E-02  0.1132934E+00
         21   -1    0    0  501  502  0.00000000000E+00  0.00000000000E+00  0.26046306929E+02  0.26046306929E+02  0.00000000000E+00 0.  1.
         21   -1    0    0  502  503 -0.00000000000E+00 -0.00000000000E+00 -0.20665579052E+04  0.20665579052E+04  0.00000000000E+00 0.  1.
         -6    2    1    2    0  503 -0.13974162108E+03 -0.73953857222E+01 -0.13425861516E+04  0.13607558796E+04  0.17186208749E+03 0.  0.
        -24    2    3    3    0    0 -0.12142791343E+03  0.20518184572E+02 -0.12850944063E+04  0.12941079234E+04  0.89899667496E+02 0.  0.
          6    2    1    2  501    0  0.13974162108E+03  0.73953857222E+01 -0.69792544663E+03  0.73184833245E+03  0.17005775566E+03 0.  0.
         24    2    5    5    0    0  0.96627397218E+02 -0.42474565964E+02 -0.29225373398E+03  0.32082828814E+03  0.79859894796E+02 0.  0.
          5    1    5    5  501    0  0.43114223862E+02  0.49869951687E+02 -0.40567171265E+03  0.41102004431E+03  0.47000000000E+01 0. -1.
        -13    1    6    6    0    0  0.10086411156E+03 -0.21844166278E+02 -0.27458028582E+03  0.29333439956E+03  0.00000000000E+00 0.  1.
         14    1    6    6    0    0 -0.42367143388E+01 -0.20630399687E+02 -0.17673448163E+02  0.27493888586E+02  0.00000000000E+00 0. -1.
         -5    1    3    3    0  503 -0.18313707650E+02 -0.27913570294E+02 -0.57491745276E+02  0.66647956228E+02  0.47000000000E+01 0.  1.
         11    1    4    4    0    0  0.10790908048E+01 -0.21674326898E+02 -0.13425374591E+03  0.13599635721E+03  0.00000000000E+00 0. -1.
        -12    1    4    4    0    0 -0.12250700423E+03  0.42192511469E+02 -0.11508406604E+04  0.11581115662E+04  0.00000000000E+00 0.  1.
</event>
<event>
12    1  0.8461994E-002  0.1732045E+03  0.7818608E-02  0.1174944E+00
         21   -1    0    0  501  502  0.00000000000E+00  0.00000000000E+00  0.35336109350E+02  0.35336109350E+02  0.00000000000E+00 0.  1.
         21   -1    0    0  502  503 -0.00000000000E+00 -0.00000000000E+00 -0.84388813882E+03  0.84388813882E+03  0.00000000000E+00 0.  1.
         -6    2    1    2    0  503  0.19482050151E+02 -0.12850330612E+02 -0.43005628986E+03  0.46362509035E+03  0.17162497102E+03 0.  0.
        -24    2    3    3    0    0  0.43166436292E+01  0.42168572981E+02 -0.36916240002E+03  0.38003546702E+03  0.79682222916E+02 0.  0.
          6    2    1    2  501    0 -0.19482050151E+02  0.12850330612E+02 -0.37849573961E+03  0.41559915782E+03  0.17005573735E+03 0.  0.
         24    2    5    5    0    0 -0.77572473938E+02  0.13840899359E+02 -0.24634059613E+03  0.27116041472E+03  0.81456872019E+02 0.  0.
          5    1    5    5  501    0  0.58090423786E+02 -0.99056874718E+00 -0.13215514348E+03  0.14443874311E+03  0.47000000000E+01 0. -1.
        -13    1    6    6    0    0 -0.45635573459E+02  0.47165900034E+02 -0.12206088773E+03  0.13858603106E+03  0.00000000000E+00 0.  1.
         14    1    6    6    0    0 -0.31936900478E+02 -0.33325000676E+02 -0.12427970840E+03  0.13257438366E+03  0.00000000000E+00 0. -1.
         -5    1    3    3    0  503  0.15165406522E+02 -0.55018903593E+02 -0.60893889842E+02  0.83589623325E+02  0.47000000000E+01 0.  1.
         11    1    4    4    0    0 -0.37682659741E+02  0.21901264987E+02 -0.18378153652E+03  0.18887906559E+03  0.00000000000E+00 0. -1.
        -12    1    4    4    0    0  0.41999303370E+02  0.20267307994E+02 -0.18538086350E+03  0.19115640143E+03  0.00000000000E+00 0.  1.
</event>
<event>
12    1  0.8461994E-002  0.1859462E+03  0.7818608E-02  0.1162473E+00
         21   -1    0    0  501  502  0.00000000000E+00  0.00000000000E+00  0.16713657970E+03  0.16713657970E+03  0.00000000000E+00 0. -1.
         21   -1    0    0  502  503 -0.00000000000E+00 -0.00000000000E+00 -0.20708750782E+03  0.20708750782E+03  0.00000000000E+00 0. -1.
         -6    2    1    2    0  503  0.62262593699E+02 -0.25250420904E+02 -0.36685959306E+02  0.18824921371E+03  0.17198166334E+03 0.  0.
        -24    2    3    3    0    0  0.29327446686E+02 -0.22779618700E+02 -0.90188275077E+02  0.12519830916E+03  0.78496378883E+02 0.  0.
          6    2    1    2  501    0 -0.62262593699E+02  0.25250420904E+02 -0.32649688149E+01  0.18597487380E+03  0.17338333061E+03 0.  0.
         24    2    5    5    0    0  0.22820268641E+02 -0.25597821413E+02 -0.15986330105E+02  0.85932081734E+02  0.77154045902E+02 0.  0.
          5    1    5    5  501    0 -0.85082862340E+02  0.50848242317E+02  0.12721361290E+02  0.10004279206E+03  0.47000000000E+01 0. -1.
        -11    1    6    6    0    0  0.26515307650E+02  0.92482629115E+00 -0.41296617144E+02  0.49084900234E+02  0.00000000000E+00 0.  1.
         12    1    6    6    0    0 -0.36950390091E+01 -0.26522647704E+02  0.25310287039E+02  0.36847181500E+02  0.00000000000E+00 0. -1.
         -5    1    3    3    0  503  0.32935147013E+02 -0.24708022037E+01  0.53502315771E+02  0.63050904555E+02  0.47000000000E+01 0.  1.
         13    1    4    4    0    0  0.32886309280E+02 -0.44279855447E+02 -0.87230806224E+02  0.10320575803E+03  0.00000000000E+00 0. -1.
        -14    1    4    4    0    0 -0.35588625936E+01  0.21500236746E+02 -0.29574688534E+01  0.21992551128E+02  0.00000000000E+00 0.  1.
</event>
<event>
12    1  0.8461994E-002  0.1863826E+03  0.7818608E-02  0.1162087E+00
         21   -1    0    0  503  502  0.00000000000E+00  0.00000000000E+00  0.25459068107E+02  0.25459068107E+02  0.00000000000E+00 0. -1.
         21   -1    0    0  501  503 -0.00000000000E+00 -0.00000000000E+00 -0.18413577800E+04  0.18413577800E+04  0.00000000000E+00 0. -1.
          6    2    1    2  501    0  0.13845128659E+02 -0.66898889788E+02 -0.13854862038E+04  0.13977822891E+04  0.17191904395E+03 0.  0.
         24    2    3    3    0    0  0.10145820120E+02 -0.44854419494E+02 -0.13613171098E+04  0.13645275352E+04  0.81463268464E+02 0.  0.
         -6    2    1    2    0  502 -0.13845128659E+02  0.66898889788E+02 -0.43041250804E+03  0.46903455898E+03  0.17341090335E+03 0.  0.
        -24    2    5    5    0    0 -0.21797827338E+02  0.99205931707E+02 -0.21448708087E+03  0.25051025720E+03  0.80210466510E+02 0.  0.
          5    1    3    3  501    0  0.36993085396E+01 -0.22044470293E+02 -0.24169094008E+02  0.33254753936E+02  0.47000000000E+01 0. -1.
        -13    1    4    4    0    0 -0.10806977101E+02  0.21434562747E+02 -0.33690934460E+03  0.33776343455E+03  0.00000000000E+00 0.  1.
         14    1    4    4    0    0  0.20952797220E+02 -0.66288982242E+02 -0.10244077652E+04  0.10267641006E+04  0.00000000000E+00 0. -1.
         -5    1    5    5    0  502  0.79526986789E+01 -0.32307041919E+02 -0.21592542717E+03  0.21852430178E+03  0.47000000000E+01 0.  1.
         11    1    6    6    0    0 -0.62820692267E+01  0.82356986433E+02 -0.21193821821E+03  0.22746416409E+03  0.00000000000E+00 0. -1.
        -12    1    6    6    0    0 -0.15515758111E+02  0.16848945273E+02 -0.25488626630E+01  0.23046093107E+02  0.00000000000E+00 0.  1.
</event>
<event>
12    1  0.8461994E-002  0.2206727E+03  0.7818608E-02  0.1133671E+00
         21   -1    0    0  503  502  0.00000000000E+00  0.00000000000E+00  0.59578591217E+03  0.59578591217E+03  0.00000000000E+00 0.  1.
         21   -1    0    0  501  503 -0.00000000000E+00 -0.00000000000E+00 -0.20976553995E+03  0.20976553995E+03  0.00000000000E+00 0. -1.
          6    2    1    2  501    0  0.12033906760E+03  0.69576103013E+02 -0.12262173150E+03  0.25110288875E+03  0.16939376141E+03 0.  0.
         24    2    3    3    0    0 -0.35468757877E+01  0.44616644737E+02 -0.41587952142E+02  0.10090546893E+03  0.80306479071E+02 0.  0.
         -6    2    1    2    0  502 -0.12033906760E+03 -0.69576103013E+02  0.50864210372E+03  0.55444856337E+03  0.17138872320E+03 0.  0.
        -24    2    5    5    0    0 -0.46621719931E+02  0.23741988481E+02  0.16598994707E+03  0.19171573606E+03  0.80405187262E+02 0.  0.
          5    1    3    3  501    0  0.12388594338E+03  0.24959458276E+02 -0.81033779355E+02  0.15019741983E+03  0.47000000000E+01 0. -1.
        -13    1    4    4    0    0 -0.16222751970E+02 -0.19870451002E+02 -0.67654374096E+01  0.26528920970E+02  0.00000000000E+00 0.  1.
         14    1    4    4    0    0  0.12675876183E+02  0.64487095739E+02 -0.34822514732E+02  0.74376547958E+02  0.00000000000E+00 0. -1.
         -5    1    5    5    0  502 -0.73717347666E+02 -0.93318091494E+02  0.34265215666E+03  0.36273282731E+03  0.47000000000E+01 0.  1.
         13    1    6    6    0    0 -0.41341670228E+02 -0.22035988854E+02  0.59856228058E+02  0.76009779235E+02  0.00000000000E+00 0. -1.
        -14    1    6    6    0    0 -0.52800497032E+01  0.45777977335E+02  0.10613371901E+03  0.11570595682E+03  0.00000000000E+00 0.  1.
</event>
<event>
12    1  0.8461994E-002  0.1795626E+03  0.7818608E-02  0.1168235E+00
         21   -1    0    0  503  502  0.00000000000E+00  0.00000000000E+00  0.10572602830E+04  0.10572602830E+04  0.00000000000E+00 0. -1.
         21   -1    0    0  501  503 -0.00000000000E+00 -0.00000000000E+00 -0.41684186333E+02  0.41684186333E+02  0.00000000000E+00 0. -1.
          6    2    1    2  501    0  0.45884412021E+02  0.20395242988E+02  0.22308786531E+03  0.28637552404E+03  0.17239895568E+03 0.  0.
         24    2    3    3    0    0  0.82546084223E+02 -0.11442404178E+02  0.20394746166E+03  0.23397171657E+03  0.78761744531E+02 0.  0.
         -6    2    1    2    0  502 -0.45884412021E+02 -0.20395242988E+02  0.79248823139E+03  0.81256894532E+03  0.17236400091E+03 0.  0.
        -24    2    5    5    0    0 -0.58943110499E+02 -0.24827765888E+02  0.24903553399E+03  0.26892098830E+03  0.78797795173E+02 0.  0.
          5    1    3    3  501    0 -0.36661672202E+02  0.31837647166E+02  0.19140403642E+02  0.52403807470E+02  0.47000000000E+01 0. -1.
        -11    1    4    4    0    0  0.40034778457E+02 -0.12419423874E+02  0.18072271415E+03  0.18552014712E+03  0.00000000000E+00 0.  1.
         12    1    4    4    0    0  0.42511305766E+02  0.97701969534E+00  0.23224747510E+02  0.48451569452E+02  0.00000000000E+00 0. -1.
         -5    1    5    5    0  502  0.13058698478E+02  0.44325228998E+01  0.54345269739E+03  0.54364795702E+03  0.47000000000E+01 0.  1.
         13    1    6    6    0    0  0.93797270787E+00  0.72191814597E+01  0.14180232593E+03  0.14198907005E+03  0.00000000000E+00 0. -1.
        -14    1    6    6    0    0 -0.59881083207E+02 -0.32046947347E+02  0.10723320806E+03  0.12693191825E+03  0.00000000000E+00 0.  1.
</event>
<event>
12    1  0.8461994E-002  0.1935160E+03  0.7818608E-02  0.1155580E+00
         21   -1    0    0  503  502  0.00000000000E+00  0.00000000000E+00  0.59375428060E+03  0.59375428060E+03  0.00000000000E+00 0. -1.
         21   -1    0    0  501  503 -0.00000000000E+00 -0.00000000000E+00 -0.63278679310E+02  0.63278679310E+02  0.00000000000E+00 0. -1.
          6    2    1    2  501    0 -0.82374273374E+02  0.11147977622E+01  0.23458245860E+03  0.30410090136E+03  0.17510472478E+03 0.  0.
         24    2    3    3    0    0 -0.78078215760E+01 -0.40942347615E+02  0.17830633997E+03  0.20154335294E+03  0.84198184860E+02 0.  0.
         -6    2    1    2    0  502  0.82374273374E+02 -0.11147977622E+01  0.29589314269E+03  0.35293205855E+03  0.17384338461E+03 0.  0.
        -24    2    5    5    0    0  0.90889676636E+02  0.45262336420E+02  0.27102041971E+03  0.29941483687E+03  0.76730464754E+02 0.  0.
          5    1    3    3  501    0 -0.74566451798E+02  0.42057145377E+02  0.56276118629E+02  0.10255754843E+03  0.47000000000E+01 0. -1.
        -13    1    4    4    0    0  0.13511643876E+02 -0.22845738917E+02  0.63013997901E+01  0.27280028340E+02  0.00000000000E+00 0.  1.
         14    1    4    4    0    0 -0.21319465452E+02 -0.18096608697E+02  0.17200494018E+03  0.17426332460E+03  0.00000000000E+00 0. -1.
         -5    1    5    5    0  502 -0.85154032613E+01 -0.46377134183E+02  0.24872722982E+02  0.53517221679E+02  0.47000000000E+01 0.  1.
         13    1    6    6    0    0  0.51611527711E+02  0.52458926934E+02  0.23274178949E+03  0.24409922036E+03  0.00000000000E+00 0. -1.
        -14    1    6    6    0    0  0.39278148925E+02 -0.71965905137E+01  0.38278630223E+02  0.55315616508E+02  0.00000000000E+00 0.  1.
</event>
<event>
12    1  0.8461994E-002  0.1895013E+03  0.7818608E-02  0.1159383E+00
         21   -1    0    0  501  502  0.00000000000E+00  0.00000000000E+00  0.38682914803E+03  0.38682914803E+03  0.00000000000E+00 0.  1.
         21   -1    0    0  502  503 -0.00000000000E+00 -0.00000000000E+00 -0.10111628133E+03  0.10111628133E+03  0.00000000000E+00 0. -1.
         -6    2    1    2    0  503 -0.16248162885E+02 -0.76245249546E+02  0.69601103112E+02  0.20187882108E+03  0.17272348993E+03 0.  0.
        -24    2    3    3    0    0 -0.58541575679E+00 -0.94195007030E+02 -0.45616758494E+01  0.12384214237E+03  0.80268457561E+02 0.  0.
          6    2    1    2  501    0  0.16248162885E+02  0.76245249546E+02  0.21611176359E+03  0.28606660828E+03  0.17044784873E+03 0.  0.
         24    2    5    5    0    0  0.76601579900E+02  0.55750855216E+02  0.14015029109E+03  0.18679531108E+03  0.79211263386E+02 0.  0.
          5    1    5    5  501    0 -0.60353417015E+02  0.20494394330E+02  0.75961472500E+02  0.99271297205E+02  0.47000000000E+01 0. -1.
        -13    1    6    6    0    0  0.60918917425E+02  0.10763333128E+01  0.10026313550E+03  0.11732420608E+03  0.00000000000E+00 0.  1.
         14    1    6    6    0    0  0.15682662475E+02  0.54674521903E+02  0.39887155593E+02  0.69471104993E+02  0.00000000000E+00 0. -1.
         -5    1    3    3    0  503 -0.15662747128E+02  0.17949757484E+02  0.74162778962E+02  0.78036678714E+02  0.47000000000E+01 0.  1.
         13    1    4    4    0    0 -0.78568591028E+01 -0.13625069949E+02 -0.34234426692E+02  0.37674510442E+02  0.00000000000E+00 0. -1.
        -14    1    4    4    0    0  0.72714433460E+01 -0.80569937081E+02  0.29672750843E+02  0.86167631928E+02  0.00000000000E+00 0.  1.
</event>
<event>
12    1  0.8461994E-002  0.2129389E+03  0.7818608E-02  0.1139665E+00
         21   -1    0    0  503  502  0.00000000000E+00  0.00000000000E+00  0.38344021214E+03  0.38344021214E+03  0.00000000000E+00 0.  1.
         21   -1    0    0  501  503 -0.00000000000E+00 -0.00000000000E+00 -0.14581791549E+03  0.14581791549E+03  0.00000000000E+00 0. -1.
          6    2    1    2  501    0  0.12383704557E+03  0.44327241299E+01  0.91620422467E+00  0.21086724459E+03  0.17061328351E+03 0.  0.
         24    2    3    3    0    0  0.13760415445E+03  0.36335811957E+02  0.29478502017E+02  0.16564296842E+03  0.79457009473E+02 0.  0.
         -6    2    1    2    0  502 -0.12383704557E+03 -0.44327241299E+01  0.23670609243E+03  0.31839088305E+03  0.17316962008E+03 0.  0.
        -24    2    5    5    0    0 -0.34206242335E+02 -0.27785649824E+02  0.20111577413E+03  0.21905407827E+03  0.74799901419E+02 0.  0.
          5    1    3    3  501    0 -0.13767108875E+02 -0.31903087827E+02 -0.28562297792E+02  0.45224276167E+02  0.47000000000E+01 0. -1.
        -11    1    4    4    0    0  0.44080300458E+02  0.80900490715E+01  0.48582236543E+02  0.66096561861E+02  0.00000000000E+00 0.  1.
         12    1    4    4    0    0  0.93523853990E+02  0.28245762885E+02 -0.19103734526E+02  0.99546406560E+02  0.00000000000E+00 0. -1.
         -5    1    5    5    0  502 -0.89630803237E+02  0.23352925694E+02  0.35590318300E+02  0.99336804781E+02  0.47000000000E+01 0.  1.
         13    1    6    6    0    0 -0.47568844148E+01  0.24378354261E+02  0.82693266478E+02  0.86342969757E+02  0.00000000000E+00 0. -1.
        -14    1    6    6    0    0 -0.29449357920E+02 -0.52164004085E+02  0.11842250765E+03  0.13271110851E+03  0.00000000000E+00 0.  1.
</event>
<event>
12    1  0.8461994E-002  0.2868959E+03  0.7818608E-02  0.1092304E+00
         21   -1    0    0  503  502  0.00000000000E+00  0.00000000000E+00  0.16151146487E+03  0.16151146487E+03  0.00000000000E+00 0.  1.
         21   -1    0    0  501  503 -0.00000000000E+00 -0.00000000000E+00 -0.50570810052E+03  0.50570810052E+03  0.00000000000E+00 0. -1.
          6    2    1    2  501    0  0.19014886561E+02 -0.22528756242E+03 -0.18070868698E+03  0.33701123334E+03  0.17264092840E+03 0.  0.
         24    2    3    3    0    0  0.46615836372E+02 -0.19328447685E+03 -0.19734863721E+03  0.29134956604E+03  0.80038489699E+02 0.  0.
         -6    2    1    2    0  502 -0.19014886561E+02  0.22528756242E+03 -0.16348794867E+03  0.33020833205E+03  0.17661591520E+03 0.  0.
        -24    2    5    5    0    0  0.45238229303E+02  0.10913007289E+03 -0.38296623450E+02  0.14768166774E+03  0.79921044916E+02 0.  0.
          5    1    3    3  501    0 -0.27600949812E+02 -0.32003085574E+02  0.16639950237E+02  0.45661667300E+02  0.47000000000E+01 0. -1.
        -13    1    4    4    0    0  0.69507537652E+02 -0.13878439941E+03 -0.14236761203E+03  0.21062037951E+03  0.00000000000E+00 0.  1.
         14    1    4    4    0    0 -0.22891701280E+02 -0.54500077438E+02 -0.54981025181E+02  0.80729186532E+02  0.00000000000E+00 0. -1.
         -5    1    5    5    0  502 -0.64253115864E+02  0.11615748954E+03 -0.12519132523E+03  0.18252666431E+03  0.47000000000E+01 0.  1.
         13    1    6    6    0    0  0.48830809010E+02  0.20536549633E+02 -0.22797759281E+02  0.57670925150E+02  0.00000000000E+00 0. -1.
        -14    1    6    6    0    0 -0.35925797068E+01  0.88593523252E+02 -0.15498864168E+02  0.90010742591E+02  0.00000000000E+00 0.  1.
</event>
<event>
12    1  0.8461994E-002  0.2097556E+03  0.7818608E-02  0.1142750E+00
         21   -1    0    0  501  502  0.00000000000E+00  0.00000000000E+00  0.31459171226E+04  0.31459171226E+04  0.00000000000E+00 0.  1.
         21   -1    0    0  502  503 -0.00000000000E+00 -0.00000000000E+00 -0.24888817016E+02  0.24888817016E+02  0.00000000000E+00 0.  1.
         -6    2    1    2    0  503 -0.25870311300E+02 -0.11678782741E+03  0.50579020854E+03  0.54755927729E+03  0.17230425837E+03 0.  0.
        -24    2    3    3    0    0  0.15878650754E+02 -0.68593772268E+02  0.44841640628E+03  0.46165534275E+03  0.84208936113E+02 0.  0.
          6    2    1    2  501    0  0.25870311300E+02  0.11678782741E+03  0.26152380970E+04  0.26232466623E+04  0.16626508217E+03 0.  0.
         24    2    5    5    0    0  0.71915707299E+02  0.11592371797E+03  0.20333773359E+04  0.20395472872E+04  0.80743849232E+02 0.  0.
          5    1    5    5  501    0 -0.46045395999E+02  0.86410944013E+00  0.58186076106E+03  0.58369937506E+03  0.47000000000E+01 0. -1.
        -13    1    6    6    0    0  0.74675205976E+02  0.55794807982E+02  0.14729629311E+04  0.14759096325E+04  0.00000000000E+00 0.  1.
         14    1    6    6    0    0 -0.27594986774E+01  0.60128909989E+02  0.56041440485E+03  0.56363765472E+03  0.00000000000E+00 0. -1.
         -5    1    3    3    0  503 -0.41748962054E+02 -0.48194055143E+02  0.57373802256E+02  0.85903934538E+02  0.47000000000E+01 0.  1.
         13    1    4    4    0    0  0.19303382295E+02 -0.87974329572E+02  0.37108324667E+03  0.38185714500E+03  0.00000000000E+00 0. -1.
        -14    1    4    4    0    0 -0.34247315410E+01  0.19380557305E+02  0.77333159616E+02  0.79798197748E+02  0.00000000000E+00 0.  1.
</event>
<event>
12    1  0.8461994E-002  0.1779529E+03  0.7818608E-02  0.1170009E+00
         21   -1    0    0  503  502  0.00000000000E+00  0.00000000000E+00  0.24850238852E+03  0.24850238852E+03  0.00000000000E+00 0. -1.
         21   -1    0    0  501  503 -0.00000000000E+00 -0.00000000000E+00 -0.19532175432E+03  0.19532175432E+03  0.00000000000E+00 0.  1.
          6    2    1    2  501    0 -0.24524223969E+02  0.38571202164E+02 -0.10486701164E+03  0.20581933544E+03  0.17110036094E+03 0.  0.
         24    2    3    3    0    0  0.47029254004E+02  0.35032944895E+02 -0.85347189313E+02  0.13141817323E+03  0.80916843561E+02 0.  0.
         -6    2    1    2    0  502  0.24524223969E+02 -0.38571202164E+02  0.15804764583E+03  0.23800480740E+03  0.17198271655E+03 0.  0.
        -24    2    5    5    0    0  0.22556576976E+02  0.12690547030E+02  0.16603176373E+03  0.18587540395E+03  0.79456089001E+02 0.  0.
          5    1    3    3  501    0 -0.71553477973E+02  0.35382572688E+01 -0.19519822322E+02  0.74401162209E+02  0.47000000000E+01 0. -1.
        -11    1    4    4    0    0  0.45406013899E+02  0.24038570117E+00 -0.85249084916E+02  0.96587630484E+02  0.00000000000E+00 0.  1.
         12    1    4    4    0    0  0.16232401050E+01  0.34792559194E+02 -0.98104397495E-01  0.34830542749E+02  0.00000000000E+00 0. -1.
         -5    1    5    5    0  502  0.19676469927E+01 -0.51261749194E+02 -0.79841178931E+01  0.52129403446E+02  0.47000000000E+01 0.  1.
         11    1    6    6    0    0  0.10879058858E+02 -0.28188993398E+02  0.27113095400E+02  0.40596714308E+02  0.00000000000E+00 0. -1.
        -12    1    6    6    0    0  0.11677518118E+02  0.40879540428E+02  0.13891866833E+03  0.14527868964E+03  0.00000000000E+00 0.  1.
</event>
<event>
12    1  0.8461994E-002  0.1826596E+03  0.7818608E-02  0.1166340E+00
         21   -1    0    0  501  502  0.00000000000E+00  0.00000000000E+00  0.79544608164E+03  0.79544608164E+03  0.00000000000E+00 0. -1.
         21   -1    0    0  502  503 -0.00000000000E+00 -0.00000000000E+00 -0.48491411243E+02  0.48491411243E+02  0.00000000000E+00 0.  1.
         -6    2    1    2    0  503  0.44895823955E+02 -0.39475149374E+02  0.21062656810E+03  0.27879755565E+03  0.17259954642E+03 0.  0.
        -24    2    3    3    0    0  0.85281686460E+02 -0.30581224667E+02  0.20322442805E+03  0.23652461556E+03  0.80221868977E+02 0.  0.
          6    2    1    2  501    0 -0.44895823955E+02  0.39475149374E+02  0.53632810230E+03  0.56513993723E+03  0.16781356593E+03 0.  0.
         24    2    5    5    0    0 -0.83635942545E+02 -0.73242989113E+01  0.38448041028E+03  0.40152209982E+03  0.79663005918E+02 0.  0.
          5    1    5    5  501    0  0.38740118590E+02  0.46799448285E+02  0.15184769202E+03  0.16361783742E+03  0.47000000000E+01 0. -1.
        -13    1    6    6    0    0  0.61282557549E+01 -0.23699672832E+02  0.79073754364E+02  0.82776135693E+02  0.00000000000E+00 0.  1.
         14    1    6    6    0    0 -0.89764198300E+02  0.16375373921E+02  0.30540665591E+03  0.31874596412E+03  0.00000000000E+00 0. -1.
         -5    1    3    3    0  503 -0.40385862505E+02 -0.88939247063E+01  0.74021400491E+01  0.42272940094E+02  0.47000000000E+01 0.  1.
         11    1    4    4    0    0  0.12402541957E+02 -0.40253286170E+02  0.11007168136E+03  0.11785552652E+03  0.00000000000E+00 0. -1.
        -12    1    4    4    0    0  0.72879144502E+02  0.96720615030E+01  0.93152746689E+02  0.11866908904E+03  0.00000000000E+00 0.  1.
</event>
<event>
12    1  0.8461994E-002  0.1967231E+03  0.7818608E-02  0.1152575E+00
         21   -1    0    0  501  502  0.00000000000E+00  0.00000000000E+00  0.22453564203E+03  0.22453564203E+03  0.00000000000E+00 0.  1.
         21   -1    0    0  502  503 -0.00000000000E+00 -0.00000000000E+00 -0.18020374508E+03  0.18020374508E+03  0.00000000000E+00 0. -1.
         -6    2    1    2    0  503 -0.95820892703E+02  0.66277310143E+01 -0.20508523931E+02  0.19778921029E+03  0.17168110513E+03 0.  0.
        -24    2    3    3    0    0 -0.12428287063E+03 -0.25384101366E+02 -0.32708121757E+02  0.15300347834E+03  0.79054782401E+02 0.  0.
          6    2    1    2  501    0  0.95820892703E+02 -0.66277310143E+01  0.64840420887E+02  0.20695017682E+03  0.17145998136E+03 0.  0.
         24    2    5    5    0    0  0.31176327378E+02 -0.58622161760E+02  0.24097681363E+01  0.10301742424E+03  0.78729038334E+02 0.  0.
          5    1    5    5  501    0  0.64644565325E+02  0.51994430746E+02  0.62430652751E+02  0.10393275257E+03  0.47000000000E+01 0. -1.
        -11    1    6    6    0    0  0.41508846610E+02 -0.32371133427E+02  0.32425721125E+02  0.61824768635E+02  0.00000000000E+00 0.  1.
         12    1    6    6    0    0 -0.10332519232E+02 -0.26251028333E+02 -0.30015952989E+02  0.41192655608E+02  0.00000000000E+00 0. -1.
         -5    1    3    3    0  503  0.28461977924E+02  0.32011832381E+02  0.12199597826E+02  0.44785731956E+02  0.47000000000E+01 0.  1.
         13    1    4    4    0    0 -0.11548121859E+03  0.19991957665E+00 -0.70186284302E+01  0.11569448112E+03  0.00000000000E+00 0. -1.
        -14    1    4    4    0    0 -0.88016520330E+01 -0.25584020943E+02 -0.25689493327E+02  0.37308997219E+02  0.00000000000E+00 0.  1.
</event>
<event>
12    1  0.8461994E-002  0.1862766E+03  0.7818608E-02  0.1164022E+00
         21   -1    0    0  503  502  0.00000000000E+00  0.00000000000E+00  0.28008940407E+03  0.28008940407E+03  0.00000000000E+00 0.  1.
         21   -1    0    0  501  503 -0.00000000000E+00 -0.00000000000E+00 -0.36952062473E+03  0.36952062473E+03  0.00000000000E+00 0.  1.
          6    2    1    2  501    0 -0.40791409218E+01  0.31592667414E+02 -0.31234894825E+03  0.35910826589E+03  0.17430474789E+03 0.  0.
         24    2    3    3    0    0 -0.31799289860E+02  0.19513905999E+02 -0.60510117876E+02  0.10541713554E+03  0.77841574611E+02 0.  0.
         -6    2    1    2    0  502  0.40791409218E+01 -0.31592667414E+02  0.22291772759E+03  0.29050176290E+03  0.18353262640E+03 0.  0.
        -24    2    5    5    0    0 -0.34348014955E+02  0.38949604211E+02  0.85034466164E+02  0.13085608593E+03  0.84826864791E+02 0.  0.
          5    1    3    3  501    0  0.27720148938E+02  0.12078761414E+02 -0.25183883037E+03  0.25369113035E+03  0.47000000000E+01 0. -1.
        -11    1    4    4    0    0 -0.10603306223E+02  0.25699736339E+02 -0.74336560331E+02  0.79365173424E+02  0.00000000000E+00 0.  1.
         12    1    4    4    0    0 -0.21195983637E+02 -0.61858303403E+01  0.13826442455E+02  0.26051962120E+02  0.00000000000E+00 0. -1.
         -5    1    5    5    0  502  0.38427155877E+02 -0.70542271624E+02  0.13788326142E+03  0.15964567697E+03  0.47000000000E+01 0.  1.
         11    1    6    6    0    0 -0.51420334219E+01 -0.13434598106E+02 -0.10670975769E+02  0.17910853075E+02  0.00000000000E+00 0. -1.
        -12    1    6    6    0    0 -0.29205981533E+02  0.52384202317E+02  0.95705441934E+02  0.11294523286E+03  0.00000000000E+00 0.  1.
</event>
<event>
12    1  0.8461994E-002  0.3578220E+03  0.7818608E-02  0.1059468E+00
         21   -1    0    0  503  502  0.00000000000E+00  0.00000000000E+00  0.16451276840E+04  0.16451276840E+04  0.00000000000E+00 0.  1.
         21   -1    0    0  501  503 -0.00000000000E+00 -0.00000000000E+00 -0.10007713479E+03  0.10007713479E+03  0.00000000000E+00 0. -1.
          6    2    1    2  501    0  0.31367038065E+03 -0.15493482855E+02  0.11841819961E+04  0.12370092799E+04  0.17110173256E+03 0.  0.
         24    2    3    3    0    0  0.15929059311E+03 -0.74295160704E+02  0.63843550418E+03  0.66678820032E+03  0.78187896318E+02 0.  0.
         -6    2    1    2    0  502 -0.31367038065E+03  0.15493482855E+02  0.36086855308E+03  0.50819553890E+03  0.17148596864E+03 0.  0.
        -24    2    5    5    0    0 -0.55619036269E+02 -0.85505416020E+01  0.10543007688E+03  0.14427313429E+03  0.80824793287E+02 0.  0.
          5    1    3    3  501    0  0.15437978754E+03  0.58801677848E+02  0.54574649196E+03  0.57022107959E+03  0.47000000000E+01 0. -1.
        -11    1    4    4    0    0  0.33343146257E+02 -0.47117933596E+02  0.28026318172E+03  0.28614562044E+03  0.00000000000E+00 0.  1.
         12    1    4    4    0    0  0.12594744685E+03 -0.27177227108E+02  0.35817232246E+03  0.38064257988E+03  0.00000000000E+00 0. -1.
         -5    1    5    5    0  502 -0.25805134438E+03  0.24044024457E+02  0.25543847621E+03  0.36392240461E+03  0.47000000000E+01 0.  1.
         13    1    6    6    0    0  0.20251643895E+02  0.32139622851E+01  0.13740259243E+02  0.24683058119E+02  0.00000000000E+00 0. -1.
        -14    1    6    6    0    0 -0.75870680165E+02 -0.11764503887E+02  0.91689817634E+02  0.11959007617E+03  0.00000000000E+00 0.  1.
</event>
<event>
12    1  0.8461994E-002  0.1892514E+03  0.7818608E-02  0.1159145E+00
         21   -1    0    0  503  502  0.00000000000E+00  0.00000000000E+00  0.84210180521E+03  0.84210180521E+03  0.00000000000E+00 0.  1.
         21   -1    0    0  501  503 -0.00000000000E+00 -0.00000000000E+00 -0.49954661803E+02  0.49954661803E+02  0.00000000000E+00 0.  1.
          6    2    1    2  501    0 -0.45982879295E+02  0.64040441150E+02  0.22408790946E+03  0.29331122787E+03  0.17204790594E+03 0.  0.
         24    2    3    3    0    0 -0.92311431473E+02  0.77778649936E+02  0.18745300211E+03  0.23248952480E+03  0.65892582112E+02 0.  0.
         -6    2    1    2    0  502  0.45982879295E+02 -0.64040441150E+02  0.56805923395E+03  0.59874523914E+03  0.17201443203E+03 0.  0.
        -24    2    5    5    0    0  0.16382567068E+02 -0.59382663268E+02  0.17141074722E+03  0.20093877187E+03  0.84853147126E+02 0.  0.
          5    1    3    3  501    0  0.46328552179E+02 -0.13738208787E+02  0.36634907353E+02  0.60821703070E+02  0.47000000000E+01 0. -1.
        -13    1    4    4    0    0 -0.37195966148E+02  0.73255555535E+02  0.11552696546E+03  0.14176175811E+03  0.00000000000E+00 0.  1.
         14    1    4    4    0    0 -0.55115465325E+02  0.45230944015E+01  0.71926036641E+02  0.90727766686E+02  0.00000000000E+00 0. -1.
         -5    1    5    5    0  502  0.29600312227E+02 -0.46577778815E+01  0.39664848673E+03  0.39780646727E+03  0.47000000000E+01 0.  1.
         11    1    6    6    0    0 -0.34102977791E+02 -0.20347739404E+02  0.81762851072E+02  0.90896685355E+02  0.00000000000E+00 0. -1.
        -12    1    6    6    0    0  0.50485544858E+02 -0.39034923864E+02  0.89647896149E+02  0.11004208652E+03  0.00000000000E+00 0.  1.
</event>
<event>
12    1  0.8461994E-002  0.2000807E+03  0.7818608E-02  0.1149835E+00
         21   -1    0    0  503  502  0.00000000000E+00  0.00000000000E+00  0.16678706713E+03  0.16678706713E+03  0.00000000000E+00 0.  1.
         21   -1    0    0  501  503 -0.00000000000E+00 -0.00000000000E+00 -0.25889659682E+03  0.25889659682E+03  0.00000000000E+00 0.  1.
          6    2    1    2  501    0 -0.90688317045E+02  0.45169477038E+02 -0.10483954475E+03  0.22519841484E+03  0.17163433048E+03 0.  0.
         24    2    3    3    0    0 -0.33432096788E+02  0.64015176584E+02 -0.11874486451E+03  0.16315904777E+03  0.85468614667E+02 0.  0.
         -6    2    1    2    0  502  0.90688317045E+02 -0.45169477038E+02  0.12730015068E+02  0.20048524911E+03  0.17253298039E+03 0.  0.
        -24    2    5    5    0    0  0.64279330982E+02 -0.80095987100E+01 -0.54449009845E+02  0.11916242027E+03  0.83898758439E+02 0.  0.
          5    1    3    3  501    0 -0.57256220257E+02 -0.18845699545E+02  0.13905319755E+02  0.62039367074E+02  0.47000000000E+01 0. -1.
        -11    1    4    4    0    0 -0.16868410107E+02  0.79440461002E+02 -0.62331658792E+02  0.10237463451E+03  0.00000000000E+00 0.  1.
         12    1    4    4    0    0 -0.16563686681E+02 -0.15425284418E+02 -0.56413205714E+02  0.60784413255E+02  0.00000000000E+00 0. -1.
         -5    1    5    5    0  502  0.26408986063E+02 -0.37159878328E+02  0.67179024913E+02  0.81322828840E+02  0.47000000000E+01 0.  1.
         13    1    6    6    0    0  0.76351584882E+02  0.84777787944E+01 -0.60573929578E+02  0.97829638617E+02  0.00000000000E+00 0. -1.
        -14    1    6    6    0    0 -0.12072253900E+02 -0.16487377504E+02  0.61249197329E+01  0.21332781650E+02  0.00000000000E+00 0.  1.
</event>
<event>
12    1  0.8461994E-002  0.1888597E+03  0.7818608E-02  0.1159871E+00
         21   -1    0    0  501  502  0.00000000000E+00  0.00000000000E+00  0.76920909609E+03  0.76920909609E+03  0.00000000000E+00 0. -1.
         21   -1    0    0  502  503 -0.00000000000E+00 -0.00000000000E+00 -0.48077167039E+02  0.48077167039E+02  0.00000000000E+00 0. -1.
         -6    2    1    2    0  503  0.44920532023E+02  0.57298043652E+02  0.27339335630E+03  0.33134614075E+03  0.17246859921E+03 0.  0.
        -24    2    3    3    0    0  0.72546886805E+01 -0.62484205509E+01  0.23445607656E+03  0.24770960196E+03  0.79364487004E+02 0.  0.
          6    2    1    2  501    0 -0.44920532023E+02 -0.57298043652E+02  0.44773857275E+03  0.48594012239E+03  0.17426145015E+03 0.  0.
         24    2    5    5    0    0 -0.18893097566E+02 -0.11051236537E+03  0.26587505883E+03  0.29461417256E+03  0.59481356148E+02 0.  0.
          5    1    5    5  501    0 -0.26027434457E+02  0.53214321720E+02  0.18186351393E+03  0.19132594983E+03  0.47000000000E+01 0. -1.
        -13    1    6    6    0    0 -0.73503637320E+01 -0.64024599578E+02  0.21622790254E+03  0.22562731004E+03  0.00000000000E+00 0.  1.
         14    1    6    6    0    0 -0.11542733834E+02 -0.46487765794E+02  0.49647156290E+02  0.68986862522E+02  0.00000000000E+00 0. -1.
         -5    1    3    3    0  503  0.37665843342E+02  0.63546464203E+02  0.38937279741E+02  0.83636538791E+02  0.47000000000E+01 0.  1.
         13    1    4    4    0    0 -0.31914394919E+02 -0.20665583140E+02  0.10347227508E+03  0.11023659392E+03  0.00000000000E+00 0. -1.
        -14    1    4    4    0    0  0.39169083599E+02  0.14417162589E+02  0.13098380149E+03  0.13747300804E+03  0.00000000000E+00 0.  1.
</event>
<event>
12    1  0.8461994E-002  0.2288506E+03  0.7818608E-02  0.1127536E+00
         21   -1    0    0  501  502  0.00000000000E+00  0.00000000000E+00  0.10699765187E+04  0.10699765187E+04  0.00000000000E+00 0. -1.
         21   -1    0    0  502  503 -0.00000000000E+00 -0.00000000000E+00 -0.11854299638E+03  0.11854299638E+03  0.00000000000E+00 0. -1.
         -6    2    1    2    0  503  0.45931079672E+02 -0.14281281517E+03  0.20254083780E+02  0.22974513422E+03  0.17282197351E+03 0.  0.
        -24    2    3    3    0    0 -0.33701971728E+01 -0.12893051121E+03  0.62432907828E+02  0.16322838851E+03  0.78174189375E+02 0.  0.
          6    2    1    2  501    0 -0.45931079672E+02  0.14281281517E+03  0.93117943851E+03  0.95877438084E+03  0.17218595292E+03 0.  0.
         24    2    5    5    0    0 -0.26904867001E+02  0.13738284135E+03  0.46124592786E+03  0.48840104419E+03  0.78675644525E+02 0.  0.
          5    1    5    5  501    0 -0.19026212671E+02  0.54299738219E+01  0.46993351066E+03  0.47037333664E+03  0.47000000000E+01 0. -1.
        -11    1    6    6    0    0 -0.82876859769E+01 -0.53880726019E+01  0.76413750294E+01  0.12494305805E+02  0.00000000000E+00 0.  1.
         12    1    6    6    0    0 -0.18617181024E+02  0.14277091395E+03  0.45360455283E+03  0.47590673839E+03  0.00000000000E+00 0. -1.
         -5    1    3    3    0  503  0.49301276845E+02 -0.13882303962E+02 -0.42178824048E+02  0.66516745710E+02  0.47000000000E+01 0.  1.
         11    1    4    4    0    0  0.29291295749E+02 -0.34736851387E+02  0.41115836380E+02  0.61279204076E+02  0.00000000000E+00 0. -1.
        -12    1    4    4    0    0 -0.32661492922E+02 -0.94193659824E+02  0.21317071448E+02  0.10194918443E+03  0.00000000000E+00 0.  1.
</event>
<event>
12    1  0.8461994E-002  0.3345967E+03  0.7818608E-02  0.1069430E+00
         21   -1    0    0  501  502  0.00000000000E+00  0.00000000000E+00  0.55327705160E+03  0.55327705160E+03  0.00000000000E+00 0. -1.
         21   -1    0    0  502  503 -0.00000000000E+00 -0.00000000000E+00 -0.23082986923E+03  0.23082986923E+03  0.00000000000E+00 0.  1.
         -6    2    1    2    0  503  0.90207652550E+02 -0.26849840874E+03  0.20039894406E+02  0.33519626660E+03  0.17811828569E+03 0.  0.
        -24    2    3    3    0    0  0.34466548116E+02 -0.34155537163E+02  0.84535920839E+00  0.93506026075E+02  0.79925706892E+02 0.  0.
          6    2    1    2  501    0 -0.90207652550E+02  0.26849840874E+03  0.30240728796E+03  0.44891065423E+03  0.17274776873E+03 0.  0.
         24    2    5    5    0    0 -0.32881385565E+02  0.38714517045E+02  0.95563398602E+02  0.13443740842E+03  0.79756217840E+02 0.  0.
          5    1    5    5  501    0 -0.57326266986E+02  0.22978389169E+03  0.20684388935E+03  0.31447324581E+03  0.47000000000E+01 0. -1.
        -13    1    6    6    0    0 -0.13452968538E+02  0.77349184470E+01 -0.12771199835E+02  0.20097633470E+02  0.00000000000E+00 0.  1.
         14    1    6    6    0    0 -0.19428417027E+02  0.30979598598E+02  0.10833459844E+03  0.11433977495E+03  0.00000000000E+00 0. -1.
         -5    1    3    3    0  503  0.55741104435E+02 -0.23434287158E+03  0.19194535197E+02  0.24169024052E+03  0.47000000000E+01 0.  1.
         11    1    4    4    0    0 -0.21239567039E+02 -0.23776049868E+02  0.14798610363E+02  0.35148522359E+02  0.00000000000E+00 0. -1.
        -12    1    4    4    0    0  0.55706115155E+02 -0.10379487295E+02 -0.13953251154E+02  0.58357503716E+02  0.00000000000E+00 0.  1.
</event>
<event>
12    1  0.8461994E-002  0.2000534E+03  0.7818608E-02  0.1150028E+00
         21   -1    0    0  501  502  0.00000000000E+00  0.00000000000E+00  0.88222407372E+03  0.88222407372E+03  0.00000000000E+00 0.  1.
         21   -1    0    0  502  503 -0.00000000000E+00 -0.00000000000E+00 -0.14207501945E+03  0.14207501945E+03  0.00000000000E+00 0.  1.
         -6    2    1    2    0  503  0.10003681065E+03  0.43404060903E+01 -0.52787385444E+02  0.20690062943E+03  0.17319110770E+03 0.  0.
        -24    2    3    3    0    0  0.10391348058E+02  0.46392167223E+02  0.12235597109E+01  0.94011605281E+02  0.81095447068E+02 0.  0.
          6    2    1    2  501    0 -0.10003681065E+03 -0.43404060903E+01  0.79293643972E+03  0.81739846374E+03  0.17136466520E+03 0.  0.
         24    2    5    5    0    0 -0.11133918385E+03 -0.21139592605E+02  0.38671514837E+03  0.41064573313E+03  0.78981111201E+02 0.  0.
          5    1    5    5  501    0  0.11302373208E+02  0.16799186515E+02  0.40622129135E+03  0.40675273060E+03  0.47000000000E+01 0. -1.
        -11    1    6    6    0    0 -0.93129944809E+02 -0.73216040548E+01  0.37178873534E+03  0.38334534852E+03  0.00000000000E+00 0.  1.
         12    1    6    6    0    0 -0.18209239045E+02 -0.13817988550E+02  0.14926413029E+02  0.27300384614E+02  0.00000000000E+00 0. -1.
         -5    1    3    3    0  503  0.89645462589E+02 -0.42051761133E+02 -0.54010945155E+02  0.11288902415E+03  0.47000000000E+01 0.  1.
         11    1    4    4    0    0  0.20724429067E+02  0.75674362236E+01  0.35100767800E+02  0.41458798237E+02  0.00000000000E+00 0. -1.
        -12    1    4    4    0    0 -0.10333081009E+02  0.38824730999E+02 -0.33877208089E+02  0.52552807044E+02  0.00000000000E+00 0.  1.
</event>
<event>
12    1  0.8461994E-002  0.2576216E+03  0.7818608E-02  0.1109209E+00
         21   -1    0    0  501  502  0.00000000000E+00  0.00000000000E+00  0.65153342947E+03  0.65153342947E+03  0.00000000000E+00 0. -1.
         21   -1    0    0  502  503 -0.00000000000E+00 -0.00000000000E+00 -0.11962176514E+03  0.11962176514E+03  0.00000000000E+00 0. -1.
         -6    2    1    2    0  503  0.18560171446E+03  0.10428386840E+02  0.11258920490E+03  0.28114984946E+03  0.17835963984E+03 0.  0.
        -24    2    3    3    0    0  0.42734418743E+02  0.28264585278E+02  0.98408976353E+02  0.13640053843E+03  0.79345213662E+02 0.  0.
          6    2    1    2  501    0 -0.18560171446E+03 -0.10428386840E+02  0.41932245943E+03  0.49000534515E+03  0.17238667473E+03 0.  0.
         24    2    5    5    0    0 -0.82996480158E+02 -0.58455212680E+02  0.14950433965E+03  0.19733092216E+03  0.79262334430E+02 0.  0.
          5    1    5    5  501    0 -0.10260523430E+03  0.48026825839E+02  0.26981811979E+03  0.29267442299E+03  0.47000000000E+01 0. -1.
        -11    1    6    6    0    0 -0.18945202617E+01 -0.20835447533E+01  0.71285027942E+02  0.71340630600E+02  0.00000000000E+00 0.  1.
         12    1    6    6    0    0 -0.81101959896E+02 -0.56371667926E+02  0.78219311706E+02  0.12599029156E+03  0.00000000000E+00 0. -1.
         -5    1    3    3    0  503  0.14286729572E+03 -0.17836198438E+02  0.14180228548E+02  0.14474931103E+03  0.47000000000E+01 0.  1.
         13    1    4    4    0    0  0.60410504547E+02  0.30959515962E+02  0.97096416101E+02  0.11847208409E+03  0.00000000000E+00 0. -1.
        -14    1    4    4    0    0 -0.17676085804E+02 -0.26949306848E+01  0.13125602520E+01  0.17928454343E+02  0.00000000000E+00 0.  1.
</event>
<event>
12    1  0.8461994E-002  0.1942561E+03  0.7818608E-02  0.1154919E+00
         21   -1    0    0  503  502  0.00000000000E+00  0.00000000000E+00  0.76172502932E+02  0.76172502932E+02  0.00000000000E+00 0. -1.
         21   -1    0    0  501  503 -0.00000000000E+00 -0.00000000000E+00 -0.49642459940E+03  0.49642459940E+03  0.00000000000E+00 0. -1.
          6    2    1    2  501    0 -0.51039604886E+01  0.89227777604E+02 -0.23467091684E+03  0.30394156606E+03  0.17123781609E+03 0.  0.
         24    2    3    3    0    0  0.16875382912E+02  0.21955566247E+02 -0.28397864180E+02  0.85814758422E+02  0.76098019917E+02 0.  0.
         -6    2    1    2    0  502  0.51039604886E+01 -0.89227777604E+02 -0.18558117964E+03  0.26865553628E+03  0.17247543660E+03 0.  0.
        -24    2    5    5    0    0 -0.51157212476E+02 -0.99764788135E+02 -0.12736322391E+03  0.18687675820E+03  0.78303630901E+02 0.  0.
          5    1    3    3  501    0 -0.21979343401E+02  0.67272211357E+02 -0.20627305266E+03  0.21812680764E+03  0.47000000000E+01 0. -1.
        -11    1    4    4    0    0  0.22666519314E+02 -0.24479738613E+02 -0.17883718676E+02  0.37853085661E+02  0.00000000000E+00 0.  1.
         12    1    4    4    0    0 -0.57911364017E+01  0.46435304861E+02 -0.10514145504E+02  0.47961672761E+02  0.00000000000E+00 0. -1.
         -5    1    5    5    0  502  0.56261172965E+02  0.10537010531E+02 -0.58217955726E+02  0.81778778073E+02  0.47000000000E+01 0.  1.
         11    1    6    6    0    0 -0.12509348054E+02 -0.95345607442E+02 -0.76714326390E+02  0.12301364364E+03  0.00000000000E+00 0. -1.
        -12    1    6    6    0    0 -0.38647864422E+02 -0.44191806932E+01 -0.50648897519E+02  0.63863114567E+02  0.00000000000E+00 0.  1.
</event>
<event>
12    1  0.8461994E-002  0.1879821E+03  0.7818608E-02  0.1160442E+00
         21   -1    0    0  503  502  0.00000000000E+00  0.00000000000E+00  0.12313083124E+03  0.12313083124E+03  0.00000000000E+00 0. -1.
         21   -1    0    0  501  503 -0.00000000000E+00 -0.00000000000E+00 -0.42688472932E+03  0.42688472932E+03  0.00000000000E+00 0. -1.
          6    2    1    2  501    0  0.75008269545E+02 -0.11746346927E+02 -0.30968526209E+03  0.36193992730E+03  0.17126392572E+03 0.  0.
         24    2    3    3    0    0  0.10837025157E+03 -0.26311799003E+02 -0.17254214484E+03  0.21996986410E+03  0.78609968653E+02 0.  0.
         -6    2    1    2    0  502 -0.75008269545E+02  0.11746346927E+02  0.59313640054E+01  0.18807563326E+03  0.17196815281E+03 0.  0.
        -24    2    5    5    0    0  0.42023423900E+01  0.13674737777E+01  0.10224263454E+02  0.10793475083E+03  0.10735848922E+03 0.  0.
          5    1    3    3  501    0 -0.33361982023E+02  0.14565452076E+02 -0.13714311724E+03  0.14197006320E+03  0.47000000000E+01 0. -1.
        -11    1    4    4    0    0 -0.95117326144E+01  0.32610489705E+01 -0.15310342876E+01  0.10171114182E+02  0.00000000000E+00 0.  1.
         12    1    4    4    0    0  0.11788198418E+03 -0.29572847973E+02 -0.17101111055E+03  0.20979874991E+03  0.00000000000E+00 0. -1.
         -5    1    5    5    0  502 -0.79210611935E+02  0.10378873150E+02 -0.42928994490E+01  0.80140882430E+02  0.47000000000E+01 0.  1.
         11    1    6    6    0    0 -0.45410531796E+02  0.13939454837E+02 -0.16386982988E+02  0.50248960294E+02  0.00000000000E+00 0. -1.
        -12    1    6    6    0    0  0.49612874186E+02 -0.12571981059E+02  0.26611246442E+02  0.57685790538E+02  0.00000000000E+00 0.  1.
</event>
<event>
12    1  0.8461994E-002  0.2361608E+03  0.7818608E-02  0.1122397E+00
         21   -1    0    0  503  502  0.00000000000E+00  0.00000000000E+00  0.73975661818E+02  0.73975661818E+02  0.00000000000E+00 0. -1.
         21   -1    0    0  501  503 -0.00000000000E+00 -0.00000000000E+00 -0.75375646726E+03  0.75375646726E+03  0.00000000000E+00 0.  1.
          6    2    1    2  501    0 -0.13467992300E+02 -0.16073630654E+03 -0.33291283959E+03  0.40810216180E+03  0.17233359696E+03 0.  0.
         24    2    3    3    0    0 -0.18887519182E+02 -0.17720833367E+03 -0.21975104870E+03  0.29352301942E+03  0.78139027534E+02 0.  0.
         -6    2    1    2    0  502  0.13467992300E+02  0.16073630654E+03 -0.34686796586E+03  0.41962996728E+03  0.17249456991E+03 0.  0.
        -24    2    5    5    0    0  0.23268665311E+02  0.10050531990E+03 -0.33179975030E+03  0.35659849845E+03  0.80178954099E+02 0.  0.
          5    1    3    3  501    0  0.54195268825E+01  0.16472027127E+02 -0.11316179090E+03  0.11457914238E+03  0.47000000000E+01 0. -1.
        -11    1    4    4    0    0 -0.22520672020E+02 -0.16464273952E+02 -0.63334516834E+02  0.69206314795E+02  0.00000000000E+00 0.  1.
         12    1    4    4    0    0  0.36331528371E+01 -0.16074405972E+03 -0.15641653186E+03  0.22431670463E+03  0.00000000000E+00 0. -1.
         -5    1    5    5    0  502 -0.98006730105E+01  0.60230986646E+02 -0.15068215553E+02  0.63031468838E+02  0.47000000000E+01 0.  1.
         13    1    6    6    0    0  0.79906868087E+01 -0.11477208723E+02 -0.70975752212E+02  0.72340409162E+02  0.00000000000E+00 0. -1.
        -14    1    6    6    0    0  0.15277978502E+02  0.11198252862E+03 -0.26082399809E+03  0.28425808928E+03  0.00000000000E+00 0.  1.
</event>
<event>
12    1  0.8461994E-002  0.2105798E+03  0.7818608E-02  0.1141349E+00
         21   -1    0    0  503  502  0.00000000000E+00  0.00000000000E+00  0.11880376552E+04  0.11880376552E+04  0.00000000000E+00 0.  1.
         21   -1    0    0  501  503 -0.00000000000E+00 -0.00000000000E+00 -0.87419371931E+02  0.87419371931E+02  0.00000000000E+00 0.  1.
          6    2    1    2  501    0 -0.74466655348E+02 -0.96445385153E+02  0.65841939908E+02  0.21947126271E+03  0.17025122328E+03 0.  0.
         24    2    3    3    0    0 -0.43234557370E+02 -0.45225302603E+02 -0.28803320745E+02  0.10731620859E+03  0.82295700941E+02 0.  0.
         -6    2    1    2    0  502  0.74466655348E+02  0.96445385153E+02  0.10347763434E+04  0.10559857644E+04  0.17174649576E+03 0.  0.
        -24    2    5    5    0    0  0.40922675859E+02 -0.16163089978E+02  0.40525105187E+03  0.41557179685E+03  0.80843010957E+02 0.  0.
          5    1    3    3  501    0 -0.31232097978E+02 -0.51220082550E+02  0.94645260653E+02  0.11215505412E+03  0.47000000000E+01 0. -1.
        -11    1    4    4    0    0  0.16142436845E+02 -0.37560481381E+02 -0.96048722823E-02  0.40882369319E+02  0.00000000000E+00 0.  1.
         12    1    4    4    0    0 -0.59376994215E+02 -0.76648212220E+01 -0.28793715873E+02  0.66433839270E+02  0.00000000000E+00 0. -1.
         -5    1    5    5    0  502  0.33543979489E+02  0.11260847513E+03  0.62952529149E+03  0.64041396757E+03  0.47000000000E+01 0.  1.
         13    1    6    6    0    0 -0.21488428296E+01  0.29272717542E+02  0.12126341498E+03  0.12476508058E+03  0.00000000000E+00 0. -1.
        -14    1    6    6    0    0  0.43071518688E+02 -0.45435807519E+02  0.28398763689E+03  0.29080671628E+03  0.00000000000E+00 0.  1.
</event>
<event>
12    1  0.8461994E-002  0.2816723E+03  0.7818608E-02  0.1094988E+00
         21   -1    0    0  503  502  0.00000000000E+00  0.00000000000E+00  0.19336161827E+03  0.19336161827E+03  0.00000000000E+00 0. -1.
         21   -1    0    0  501  503 -0.00000000000E+00 -0.00000000000E+00 -0.65332741275E+03  0.65332741275E+03  0.00000000000E+00 0.  1.
          6    2    1    2  501    0  0.33643111443E+02  0.21277062400E+03 -0.48975277564E+03  0.56497529689E+03  0.18148307762E+03 0.  0.
         24    2    3    3    0    0 -0.19939202311E+02  0.10766170774E+03 -0.38256676598E+03  0.40550781026E+03  0.78042543817E+02 0.  0.
         -6    2    1    2    0  502 -0.33643111443E+02 -0.21277062400E+03  0.29786981160E+02  0.28171373414E+03  0.17908703574E+03 0.  0.
        -24    2    5    5    0    0 -0.38337338565E+01 -0.22687658657E+03  0.45316318660E+02  0.24496012893E+03  0.80400329493E+02 0.  0.
          5    1    3    3  501    0  0.53582313754E+02  0.10510891626E+03 -0.10718600966E+03  0.15946748663E+03  0.47000000000E+01 0. -1.
        -11    1    4    4    0    0 -0.20675628692E+02  0.11881952369E+03 -0.36723004926E+03  0.38652745040E+03  0.00000000000E+00 0.  1.
         12    1    4    4    0    0  0.73642638086E+00 -0.11157815953E+02 -0.15336716725E+02  0.18980359864E+02  0.00000000000E+00 0. -1.
         -5    1    5    5    0  502 -0.29809377587E+02  0.14105962571E+02 -0.15529337500E+02  0.36753605202E+02  0.47000000000E+01 0.  1.
         13    1    6    6    0    0 -0.54753284570E+01 -0.10144776314E+03  0.61066179281E+02  0.11853567446E+03  0.00000000000E+00 0. -1.
        -14    1    6    6    0    0  0.16415946005E+01 -0.12542882343E+03 -0.15749860621E+02  0.12642445448E+03  0.00000000000E+00 0.  1.
</event>
<event>
12    1  0.8461994E-002  0.1733015E+03  0.7818608E-02  0.1174741E+00
         21   -1    0    0  503  502  0.00000000000E+00  0.00000000000E+00  0.85606925053E+02  0.85606925053E+02  0.00000000000E+00 0.  1.
         21   -1    0    0  501  503 -0.00000000000E+00 -0.00000000000E+00 -0.51083456192E+03  0.51083456192E+03  0.00000000000E+00 0.  1.
          6    2    1    2  501    0 -0.14377365566E+02 -0.14417662167E+02 -0.38024122445E+03  0.41739623867E+03  0.17094342239E+03 0.  0.
         24    2    3    3    0    0  0.19266974862E+02  0.43694011832E+02 -0.13696305737E+03  0.16497741038E+03  0.78602060149E+02 0.  0.
         -6    2    1    2    0  502  0.14377365566E+02  0.14417662167E+02 -0.44986412420E+02  0.17904524831E+03  0.17210126675E+03 0.  0.
        -24    2    5    5    0    0 -0.40396941690E+02  0.51803882406E+02 -0.42291543550E+02  0.11250724024E+03  0.80955230352E+02 0.  0.
          5    1    3    3  501    0 -0.33644340428E+02 -0.58111673999E+02 -0.24327816708E+03  0.25241882829E+03  0.47000000000E+01 0. -1.
        -11    1    4    4    0    0 -0.28584637020E+02  0.14287463913E+02 -0.73992615700E+02  0.80598512869E+02  0.00000000000E+00 0.  1.
         12    1    4    4    0    0  0.47851611882E+02  0.29406547919E+02 -0.62970441670E+02  0.84378897506E+02  0.00000000000E+00 0. -1.
         -5    1    5    5    0  502  0.54774307256E+02 -0.37386220239E+02 -0.26948688700E+01  0.66538008066E+02  0.47000000000E+01 0.  1.
         13    1    6    6    0    0 -0.45112267700E+02 -0.60193701463E+01 -0.12036145664E+02  0.47076727971E+02  0.00000000000E+00 0. -1.
        -14    1    6    6    0    0  0.47153260102E+01  0.57823252552E+02 -0.30255397886E+02  0.65430512273E+02  0.00000000000E+00 0.  1.
</event>
<event>
12    1  0.8461994E-002  0.2187201E+03  0.7818608E-02  0.1134978E+00
         21   -1    0    0  503  502  0.00000000000E+00  0.00000000000E+00  0.11275498610E+03  0.11275498610E+03  0.00000000000E+00 0.  1.
         21   -1    0    0  501  503 -0.00000000000E+00 -0.00000000000E+00 -0.48304665192E+03  0.48304665192E+03  0.00000000000E+00 0.  1.
          6    2    1    2  501    0  0.13226942913E+03  0.20592650230E+02 -0.29003009706E+03  0.36282006291E+03  0.17205139268E+03 0.  0.
         24    2    3    3    0    0  0.70568618228E+02  0.55682345412E+02 -0.87587172037E+02  0.14824256021E+03  0.78891637595E+02 0.  0.
         -6    2    1    2    0  502 -0.13226942913E+03 -0.20592650230E+02 -0.80261568755E+02  0.23298157511E+03  0.17297177746E+03 0.  0.
        -24    2    5    5    0    0 -0.36016921649E+01 -0.25034121427E+02 -0.53668126997E+01  0.83963362515E+02  0.79883440989E+02 0.  0.
          5    1    3    3  501    0  0.61700810899E+02 -0.35089695182E+02 -0.20244292502E+03  0.21457750270E+03  0.47000000000E+01 0. -1.
        -11    1    4    4    0    0  0.40006701042E+02 -0.63241150035E+01 -0.62949313007E+02  0.74854168667E+02  0.00000000000E+00 0.  1.
         12    1    4    4    0    0  0.30561917185E+02  0.62006460416E+02 -0.24637859030E+02  0.73388391541E+02  0.00000000000E+00 0. -1.
         -5    1    5    5    0  502 -0.12866773696E+03  0.44414711968E+01 -0.74894756055E+02  0.14901821260E+03  0.47000000000E+01 0. -1.
         11    1    6    6    0    0  0.24461415645E+02 -0.37123766216E+02 -0.21528058625E+02  0.49396277001E+02  0.00000000000E+00 0. -1.
        -12    1    6    6    0    0 -0.28063107810E+02  0.12089644789E+02  0.16161245925E+02  0.34567085514E+02  0.00000000000E+00 0.  1.
</event>
<event>
12    1  0.8461994E-002  0.1752064E+03  0.7818608E-02  0.1172704E+00
         21   -1    0    0  501  502  0.00000000000E+00  0.00000000000E+00  0.39179756445E+03  0.39179756445E+03  0.00000000000E+00 0. -1.
         21   -1    0    0  502  503 -0.00000000000E+00 -0.00000000000E+00 -0.79208180809E+02  0.79208180809E+02  0.00000000000E+00 0. -1.
         -6    2    1    2    0  503  0.37139565224E+02  0.11878513824E+02  0.12789764887E+03  0.21692187905E+03  0.17081231405E+03 0.  0.
        -24    2    3    3    0    0  0.33936153918E+01 -0.47383763473E+02  0.28144945276E+02  0.95994220865E+02  0.78523976139E+02 0.  0.
          6    2    1    2  501    0 -0.37139565224E+02 -0.11878513824E+02  0.18469173478E+03  0.25408386621E+03  0.17007976887E+03 0.  0.
         24    2    5    5    0    0  0.12085968799E+02  0.51229532473E+02  0.95009944079E+02  0.13378967562E+03  0.78116913593E+02 0.  0.
          5    1    5    5  501    0 -0.49225534022E+02 -0.63108046297E+02  0.89681790698E+02  0.12029419059E+03  0.47000000000E+01 0. -1.
        -13    1    6    6    0    0 -0.26103269412E+02  0.24152745355E+01  0.88792083512E+01  0.27677690764E+02  0.00000000000E+00 0.  1.
         14    1    6    6    0    0  0.38189238210E+02  0.48814257938E+02  0.86130735728E+02  0.10611198486E+03  0.00000000000E+00 0. -1.
         -5    1    3    3    0  503  0.33745949832E+02  0.59262277297E+02  0.99752703590E+02  0.12092765819E+03  0.47000000000E+01 0.  1.
         11    1    4    4    0    0  0.23617242171E+02 -0.61237115789E+02  0.12217992774E+02  0.66761050212E+02  0.00000000000E+00 0. -1.
        -12    1    4    4    0    0 -0.20223626779E+02  0.13853352316E+02  0.15926952501E+02  0.29233170654E+02  0.00000000000E+00 0.  1.
</event>
<event>
12    1  0.8461994E-002  0.1803103E+03  0.7818608E-02  0.1167550E+00
         21   -1    0    0  503  502  0.00000000000E+00  0.00000000000E+00  0.47361377984E+03  0.47361377984E+03  0.00000000000E+00 0. -1.
         21   -1    0    0  501  503 -0.00000000000E+00 -0.00000000000E+00 -0.74389142871E+02  0.74389142871E+02  0.00000000000E+00 0. -1.
          6    2    1    2  501    0  0.50597197051E+02 -0.20411240476E+02  0.12289829242E+03  0.21805132964E+03  0.17165575141E+03 0.  0.
         24    2    3    3    0    0 -0.14502694849E+02 -0.56786679433E+02  0.98438845586E+02  0.13942866736E+03  0.79467552135E+02 0.  0.
         -6    2    1    2    0  502 -0.50597197051E+02  0.20411240476E+02  0.27632634454E+03  0.32995159307E+03  0.17185781912E+03 0.  0.
        -24    2    5    5    0    0 -0.97638906905E+01 -0.49053812506E+02  0.16567857157E+03  0.19299257672E+03  0.85411565431E+02 0.  0.
          5    1    3    3  501    0  0.65099891900E+02  0.36375438957E+02  0.24459446837E+02  0.78622662282E+02  0.47000000000E+01 0. -1.
        -11    1    4    4    0    0  0.13759255935E+02 -0.22157322118E+02  0.90305467297E+02  0.93996497121E+02  0.00000000000E+00 0.  1.
         12    1    4    4    0    0 -0.28261950784E+02 -0.34629357316E+02  0.81333782895E+01  0.45432170239E+02  0.00000000000E+00 0. -1.
         -5    1    5    5    0  502 -0.40833306361E+02  0.69465052982E+02  0.11064777297E+03  0.13695901634E+03  0.47000000000E+01 0.  1.
         11    1    6    6    0    0 -0.39560417343E+02 -0.36727972658E+02  0.14490962715E+03  0.15463754601E+03  0.00000000000E+00 0. -1.
        -12    1    6    6    0    0  0.29796526653E+02 -0.12325839848E+02  0.20768944425E+02  0.38355030714E+02  0.00000000000E+00 0.  1.
</event>
<event>
12    1  0.8461994E-002  0.2529056E+03  0.7818608E-02  0.1111680E+00
         21   -1    0    0  503  502  0.00000000000E+00  0.00000000000E+00  0.10662267595E+03  0.10662267595E+03  0.00000000000E+00 0. -1.
         21   -1    0    0  501  503 -0.00000000000E+00 -0.00000000000E+00 -0.10887648754E+04  0.10887648754E+04  0.00000000000E+00 0.  1.
          6    2    1    2  501    0 -0.79858187384E+02 -0.16564790364E+03 -0.89348883630E+03  0.92859224307E+03  0.17362227746E+03 0.  0.
         24    2    3    3    0    0 -0.94137164270E+02 -0.15004765313E+03 -0.88323588081E+03  0.90462413732E+03  0.82843857816E+02 0.  0.
         -6    2    1    2    0  502  0.79858187384E+02  0.16564790364E+03 -0.88653363171E+02  0.26679530830E+03  0.17176658480E+03 0.  0.
        -24    2    5    5    0    0  0.11401549248E+03  0.12112973192E+03 -0.96651106756E+02  0.20992138626E+03  0.83985757683E+02 0.  0.
          5    1    3    3  501    0  0.14278976886E+02 -0.15600250510E+02 -0.10252955493E+02  0.23968105750E+02  0.47000000000E+01 0. -1.
        -13    1    4    4    0    0 -0.38044169250E+02 -0.10360870734E+03 -0.36578810591E+03  0.38207729777E+03  0.00000000000E+00 0.  1.
         14    1    4    4    0    0 -0.56092995020E+02 -0.46438945793E+02 -0.51744777490E+03  0.52254683955E+03  0.00000000000E+00 0. -1.
         -5    1    5    5    0  502 -0.34157305095E+02  0.44518171723E+02  0.79977435859E+01  0.56873922033E+02  0.47000000000E+01 0.  1.
         13    1    6    6    0    0  0.81904255801E+02  0.11017201111E+03 -0.38469937939E+02  0.14256968568E+03  0.00000000000E+00 0. -1.
        -14    1    6    6    0    0  0.32111236678E+02  0.10957720809E+02 -0.58181168818E+02  0.67351700582E+02  0.00000000000E+00 0.  1.
</event>
<event>
12    1  0.8461994E-002  0.1977772E+03  0.7818608E-02  0.1151803E+00
         21   -1    0    0  501  502  0.00000000000E+00  0.00000000000E+00  0.10826582273E+03  0.10826582273E+03  0.00000000000E+00 0.  1.
         21   -1    0    0  502  503 -0.00000000000E+00 -0.00000000000E+00 -0.46746895394E+03  0.46746895394E+03  0.00000000000E+00 0.  1.
         -6    2    1    2    0  503  0.81184463807E+02  0.54517176534E+02 -0.41164807399E+02  0.20121613291E+03  0.17096885995E+03 0.  0.
        -24    2    3    3    0    0  0.26691352776E+02  0.60035658694E+02  0.34236842146E+02  0.10790240643E+03  0.78447812749E+02 0.  0.
          6    2    1    2  501    0 -0.81184463807E+02 -0.54517176534E+02 -0.31803832381E+03  0.37451864376E+03  0.17190927668E+03 0.  0.
         24    2    5    5    0    0 -0.47912700400E+01 -0.30924248635E+02 -0.47234727030E+02  0.92119592181E+02  0.72633562516E+02 0.  0.
          5    1    5    5  501    0 -0.76393193767E+02 -0.23592927899E+02 -0.27080359678E+03  0.28239905158E+03  0.47000000000E+01 0. -1.
        -13    1    6    6    0    0 -0.33596358941E+02 -0.35935280388E+02 -0.23798277999E+02  0.54648126650E+02  0.00000000000E+00 0.  1.
         14    1    6    6    0    0  0.28805088901E+02  0.50110317529E+01 -0.23436449031E+02  0.37471465531E+02  0.00000000000E+00 0. -1.
         -5    1    3    3    0  503  0.54493111032E+02 -0.55184821606E+01 -0.75401649545E+02  0.93313726478E+02  0.47000000000E+01 0.  1.
         13    1    4    4    0    0 -0.27061848940E+02  0.19309813985E+02  0.20565983807E+02  0.39091844087E+02  0.00000000000E+00 0. -1.
        -14    1    4    4    0    0  0.53753201716E+02  0.40725844710E+02  0.13670858339E+02  0.68810562342E+02  0.00000000000E+00 0.  1.
</event>
<event>
12    1  0.8461994E-002  0.1818654E+03  0.7818608E-02  0.1166219E+00
         21   -1    0    0  503  502  0.00000000000E+00  0.00000000000E+00  0.28950345507E+03  0.28950345507E+03  0.00000000000E+00 0. -1.
         21   -1    0    0  501  503 -0.00000000000E+00 -0.00000000000E+00 -0.11379423964E+03  0.11379423964E+03  0.00000000000E+00 0. -1.
          6    2    1    2  501    0  0.11987795504E+02  0.55211360468E+02  0.82215329175E+02  0.19958556719E+03  0.17286710709E+03 0.  0.
         24    2    3    3    0    0  0.28908731656E+01  0.33393249886E+02 -0.23740201065E+02  0.90923483955E+02  0.81117300881E+02 0.  0.
         -6    2    1    2    0  502 -0.11987795504E+02 -0.55211360468E+02  0.93493886257E+02  0.20371212752E+03  0.17194627813E+03 0.  0.
        -24    2    5    5    0    0 -0.45875607752E+02 -0.38304964255E+02 -0.23382568056E+01  0.10056126860E+03  0.80840952639E+02 0.  0.
          5    1    3    3  501    0  0.90969223385E+01  0.21818110582E+02  0.10595553024E+03  0.10866208324E+03  0.47000000000E+01 0. -1.
        -11    1    4    4    0    0 -0.22852957190E+02  0.31485991072E+02  0.17189180409E+02  0.42533436368E+02  0.00000000000E+00 0.  1.
         12    1    4    4    0    0  0.25743830356E+02  0.19072588138E+01 -0.40929381474E+02  0.48390047587E+02  0.00000000000E+00 0. -1.
         -5    1    5    5    0  502  0.33887812248E+02 -0.16906396213E+02  0.95832143062E+02  0.10315085892E+03  0.47000000000E+01 0.  1.
         13    1    6    6    0    0 -0.53394774942E+02 -0.37656068962E+02 -0.29994799306E+02  0.71893459412E+02  0.00000000000E+00 0. -1.
        -14    1    6    6    0    0  0.75191671901E+01 -0.64889529377E+00  0.27656542501E+02  0.28667809184E+02  0.00000000000E+00 0.  1.
</event>
<event>
12    1  0.8461994E-002  0.1776298E+03  0.7818608E-02  0.1170571E+00
         21   -1    0    0  501  502  0.00000000000E+00  0.00000000000E+00  0.45151405764E+03  0.45151405764E+03  0.00000000000E+00 0.  1.
         21   -1    0    0  502  503 -0.00000000000E+00 -0.00000000000E+00 -0.69723065372E+02  0.69723065372E+02  0.00000000000E+00 0.  1.
         -6    2    1    2    0  503  0.32169676285E+02  0.30998341883E+02  0.16652066575E+03  0.24214279701E+03  0.17002416519E+03 0.  0.
        -24    2    3    3    0    0 -0.41770950802E+02 -0.91315274231E+01  0.10437101807E+03  0.13744183497E+03  0.78541399680E+02 0.  0.
          6    2    1    2  501    0 -0.32169676285E+02 -0.30998341883E+02  0.21527032652E+03  0.27909432600E+03  0.17192016769E+03 0.  0.
         24    2    5    5    0    0 -0.48901781450E+02 -0.50768696965E+02  0.63551129596E+02  0.12510849874E+03  0.81514081996E+02 0.  0.
          5    1    5    5  501    0  0.16732105165E+02  0.19770355082E+02  0.15171919692E+03  0.15398582726E+03  0.47000000000E+01 0. -1.
        -11    1    6    6    0    0 -0.21304646662E+02  0.80761468077E+01  0.55026706270E+02  0.59557119806E+02  0.00000000000E+00 0.  1.
         12    1    6    6    0    0 -0.27597134788E+02 -0.58844843773E+02  0.85244233255E+01  0.65551378934E+02  0.00000000000E+00 0. -1.
         -5    1    3    3    0  503  0.73940627087E+02  0.40129869306E+02  0.62149647687E+02  0.10470096204E+03  0.47000000000E+01 0.  1.
         13    1    4    4    0    0 -0.22576824225E+02  0.33740846394E+02  0.34652266298E+02  0.53375436926E+02  0.00000000000E+00 0. -1.
        -14    1    4    4    0    0 -0.19194126577E+02 -0.42872373818E+02  0.69718751770E+02  0.84066398045E+02  0.00000000000E+00 0.  1.
</event>
<event>
12    1  0.8461994E-002  0.3215005E+03  0.7818608E-02  0.1074966E+00
         21   -1    0    0  503  502  0.00000000000E+00  0.00000000000E+00  0.33409010941E+03  0.33409010941E+03  0.00000000000E+00 0. -1.
         21   -1    0    0  501  503 -0.00000000000E+00 -0.00000000000E+00 -0.31642661504E+03  0.31642661504E+03  0.00000000000E+00 0. -1.
          6    2    1    2  501    0 -0.14359260049E+03 -0.22995009074E+03  0.57509269896E+02  0.32655647937E+03  0.17273082803E+03 0.  0.
         24    2    3    3    0    0 -0.76094153842E+01 -0.11878734780E+03  0.22978143503E+02  0.14749483988E+03  0.84014257790E+02 0.  0.
         -6    2    1    2    0  502  0.14359260049E+03  0.22995009074E+03 -0.39845775526E+02  0.32396024508E+03  0.17281977729E+03 0.  0.
        -24    2    5    5    0    0  0.17027831887E+03  0.22352192987E+03 -0.26354678304E+02  0.29301596416E+03  0.78784688707E+02 0.  0.
          5    1    3    3  501    0 -0.13598318510E+03 -0.11116274294E+03  0.34531126393E+02  0.17906163949E+03  0.47000000000E+01 0. -1.
        -13    1    4    4    0    0  0.76477217061E+01 -0.20797888726E+02 -0.28226486342E+02  0.35885573062E+02  0.00000000000E+00 0.  1.
         14    1    4    4    0    0 -0.15257137090E+02 -0.97989459072E+02  0.51204629845E+02  0.11160926681E+03  0.00000000000E+00 0. -1.
         -5    1    5    5    0  502 -0.26685718382E+02  0.64281608704E+01 -0.13491097222E+02  0.30944280926E+02  0.47000000000E+01 0.  1.
         11    1    6    6    0    0  0.68745312502E+02  0.33722018160E+02 -0.77823576330E+01  0.76965301208E+02  0.00000000000E+00 0. -1.
        -12    1    6    6    0    0  0.10153300637E+03  0.18979991171E+03 -0.18572320671E+02  0.21605066295E+03  0.00000000000E+00 0.  1.
</event>
<event>
12    1  0.8461994E-002  0.1817172E+03  0.7818608E-02  0.1166169E+00
         21   -1    0    0  501  502  0.00000000000E+00  0.00000000000E+00  0.61291845157E+03  0.61291845157E+03  0.00000000000E+00 0. -1.
         21   -1    0    0  502  503 -0.00000000000E+00 -0.00000000000E+00 -0.13737678549E+03  0.13737678549E+03  0.00000000000E+00 0. -1.
         -6    2    1    2    0  503  0.50818351405E+02 -0.28019162711E+02 -0.54726222046E+02  0.18977908976E+03  0.17220210571E+03 0.  0.
        -24    2    3    3    0    0  0.35763729845E+02 -0.57287992246E+02 -0.92284930268E+02  0.13961882086E+03  0.80099615204E+02 0.  0.
          6    2    1    2  501    0 -0.50818351405E+02  0.28019162711E+02  0.53026788812E+03  0.56051614730E+03  0.17212419902E+03 0.  0.
         24    2    5    5    0    0 -0.27033460942E+01  0.51750526681E+02  0.14610192820E+03  0.17259372447E+03  0.75877501339E+02 0.  0.
          5    1    5    5  501    0 -0.48115005311E+02 -0.23731363970E+02  0.38416595992E+03  0.38792242283E+03  0.47000000000E+01 0. -1.
        -11    1    6    6    0    0  0.32101468274E+02  0.28721795739E+02  0.40829075583E+02  0.59350309425E+02  0.00000000000E+00 0.  1.
         12    1    6    6    0    0 -0.34804814369E+02  0.23028730942E+02  0.10527285262E+03  0.11324341504E+03  0.00000000000E+00 0. -1.
         -5    1    3    3    0  503  0.15054621560E+02  0.29268829534E+02  0.37558708222E+02  0.50160268898E+02  0.47000000000E+01 0.  1.
         11    1    4    4    0    0  0.30546006806E+02  0.12201988193E+02 -0.16976570825E+02  0.37015550848E+02  0.00000000000E+00 0. -1.
        -12    1    4    4    0    0  0.52177230392E+01 -0.69489980439E+02 -0.75308359443E+02  0.10260327001E+03  0.00000000000E+00 0.  1.
</event>
<event>
12    1  0.8461994E-002  0.1729043E+03  0.7818608E-02  0.1178019E+00
         21   -1    0    0  503  502  0.00000000000E+00  0.00000000000E+00  0.15680149930E+03  0.15680149930E+03  0.00000000000E+00 0. -1.
         21   -1    0    0  501  503 -0.00000000000E+00 -0.00000000000E+00 -0.90654157481E+03  0.90654157481E+03  0.00000000000E+00 0. -1.
          6    2    1    2  501    0 -0.76909408900E+01  0.45065788570E+00 -0.85415953754E+03  0.87148403652E+03  0.17273261613E+03 0.  0.
         24    2    3    3    0    0 -0.10123878407E+02 -0.54434805646E+02 -0.32916356325E+03  0.34360034070E+03  0.81528533522E+02 0.  0.
         -6    2    1    2    0  502  0.76909408900E+01 -0.45065788570E+00  0.10441946202E+03  0.19185903759E+03  0.16077037224E+03 0.  0.
        -24    2    5    5    0    0 -0.33741306457E+02 -0.44220396139E+02  0.41685148945E+02  0.10473782809E+03  0.78348208622E+02 0.  0.
          5    1    3    3  501    0  0.24329375168E+01  0.54885463531E+02 -0.52499597429E+03  0.52788369582E+03  0.47000000000E+01 0. -1.
        -11    1    4    4    0    0  0.16243982605E+02  0.15167201403E+02 -0.10754650200E+03  0.10981876462E+03  0.00000000000E+00 0.  1.
         12    1    4    4    0    0 -0.26367861012E+02 -0.69602007048E+02 -0.22161706124E+03  0.23378157608E+03  0.00000000000E+00 0. -1.
         -5    1    5    5    0  502  0.41432247347E+02  0.43769738253E+02  0.62734313079E+02  0.87121209498E+02  0.47000000000E+01 0.  1.
         13    1    6    6    0    0  0.16500522726E+02 -0.88012097129E+01  0.38948305250E+02  0.43205312457E+02  0.00000000000E+00 0. -1.
        -14    1    6    6    0    0 -0.50241829183E+02 -0.35419186426E+02  0.27368436950E+01  0.61532515633E+02  0.00000000000E+00 0.  1.
</event>
<event>
12    1  0.8461994E-002  0.1967173E+03  0.7818608E-02  0.1152990E+00
         21   -1    0    0  501  502  0.00000000000E+00  0.00000000000E+00  0.28554219226E+03  0.28554219226E+03  0.00000000000E+00 0. -1.
         21   -1    0    0  502  503 -0.00000000000E+00 -0.00000000000E+00 -0.16070632717E+03  0.16070632717E+03  0.00000000000E+00 0. -1.
         -6    2    1    2    0  503  0.67503443626E+02 -0.69067516935E+02  0.15293831128E+03  0.24753405363E+03  0.16898504033E+03 0.  0.
        -24    2    3    3    0    0  0.35761762020E+02 -0.11109770569E+03  0.10687589442E+03  0.17740626054E+03  0.80180550251E+02 0.  0.
          6    2    1    2  501    0 -0.67503443626E+02  0.69067516935E+02 -0.28102446194E+02  0.19871446580E+03  0.17137868782E+03 0.  0.
         24    2    5    5    0    0  0.29488391028E+02  0.21691326013E+02 -0.23440495532E+02  0.90567606206E+02  0.79454110236E+02 0.  0.
          5    1    5    5  501    0 -0.96991834654E+02  0.47376190922E+02 -0.46619506622E+01  0.10814685959E+03  0.47000000000E+01 0. -1.
        -11    1    6    6    0    0 -0.73963351475E+01  0.15766538903E+02 -0.44427271369E+02  0.47718675211E+02  0.00000000000E+00 0.  1.
         12    1    6    6    0    0  0.36884726175E+02  0.59247871101E+01  0.20986775837E+02  0.42848930995E+02  0.00000000000E+00 0. -1.
         -5    1    3    3    0  503  0.31741681605E+02  0.42030188751E+02  0.46062416854E+02  0.70127793093E+02  0.47000000000E+01 0.  1.
         11    1    4    4    0    0  0.11020682152E+02 -0.64061972406E+02  0.10589141797E+03  0.12425129433E+03  0.00000000000E+00 0. -1.
        -12    1    4    4    0    0  0.24741079869E+02 -0.47035733281E+02  0.98447644881E+00  0.53154966205E+02  0.00000000000E+00 0.  1.
</event>
<event>
12    1  0.8461994E-002  0.2120105E+03  0.7818608E-02  0.1140173E+00
         21   -1    0    0  503  502  0.00000000000E+00  0.00000000000E+00  0.26379488433E+03  0.26379488433E+03  0.00000000000E+00 0.  1.
         21   -1    0    0  501  503 -0.00000000000E+00 -0.00000000000E+00 -0.16967412142E+03  0.16967412142E+03  0.00000000000E+00 0. -1.
          6    2    1    2  501    0  0.34692282123E+02  0.11974968439E+03  0.51132046855E+02  0.21808924171E+03  0.17147854030E+03 0.  0.
         24    2    3    3    0    0  0.11822239036E+02  0.14504800681E+03  0.68623619530E+02  0.17947461880E+03  0.79518853230E+02 0.  0.
         -6    2    1    2    0  502 -0.34692282123E+02 -0.11974968439E+03  0.42988716056E+02  0.21537976405E+03  0.17028467842E+03 0.  0.
        -24    2    5    5    0    0 -0.50773208214E+02 -0.13565069664E+03 -0.14136580977E+01  0.16532879797E+03  0.79703091776E+02 0.  0.
          5    1    3    3  501    0  0.22870043087E+02 -0.25298322421E+02 -0.17491572675E+02  0.38614622913E+02  0.47000000000E+01 0. -1.
        -13    1    4    4    0    0  0.89416260445E+01 -0.84129339665E+01  0.64931789734E+01  0.13888538707E+02  0.00000000000E+00 0.  1.
         14    1    4    4    0    0  0.28806129919E+01  0.15346094078E+03  0.62130440557E+02  0.16558608009E+03  0.00000000000E+00 0. -1.
         -5    1    5    5    0  502  0.16080926091E+02  0.15901012250E+02  0.44402374154E+02  0.50050966075E+02  0.47000000000E+01 0.  1.
         13    1    6    6    0    0 -0.51231453267E+02 -0.61936945272E+02  0.29186968767E+02  0.85514479121E+02  0.00000000000E+00 0. -1.
        -14    1    6    6    0    0  0.45824505318E+00 -0.73713751368E+02 -0.30600626865E+02  0.79814318852E+02  0.00000000000E+00 0.  1.
</event>
<event>
12    1  0.8461994E-002  0.1944467E+03  0.7818608E-02  0.1154527E+00
         21   -1    0    0  503  502  0.00000000000E+00  0.00000000000E+00  0.26115242218E+03  0.26115242218E+03  0.00000000000E+00 0.  1.
         21   -1    0    0  501  503 -0.00000000000E+00 -0.00000000000E+00 -0.32691184305E+03  0.32691184305E+03  0.00000000000E+00 0.  1.
          6    2    1    2  501    0  0.39647800863E+02  0.81101949607E+02 -0.25238527604E+03  0.31860295630E+03  0.17222091005E+03 0.  0.
         24    2    3    3    0    0  0.71593019050E+02  0.72834907716E+02 -0.25426763823E+03  0.28521921424E+03  0.79167443825E+02 0.  0.
         -6    2    1    2    0  502 -0.39647800863E+02 -0.81101949607E+02  0.18662585517E+03  0.26946130892E+03  0.17213573959E+03 0.  0.
        -24    2    5    5    0    0 -0.40968323793E+02 -0.37695268224E+01  0.16385168487E+03  0.18869745421E+03  0.84063914402E+02 0.  0.
          5    1    3    3  501    0 -0.31945218187E+02  0.82670418908E+01  0.18823621874E+01  0.33383742062E+02  0.47000000000E+01 0. -1.
        -13    1    4    4    0    0  0.79931208332E+02  0.58322621526E+02 -0.15051841603E+03  0.18012862019E+03  0.00000000000E+00 0.  1.
         14    1    4    4    0    0 -0.83381892813E+01  0.14512286191E+02 -0.10374922220E+03  0.10509059405E+03  0.00000000000E+00 0. -1.
         -5    1    5    5    0  502  0.13205229297E+01 -0.77332422785E+02  0.22774170300E+02  0.80763854709E+02  0.47000000000E+01 0.  1.
         11    1    6    6    0    0 -0.10356133943E+02  0.38730298838E+02  0.85749626579E+02  0.94658776755E+02  0.00000000000E+00 0. -1.
        -12    1    6    6    0    0 -0.30612189850E+02 -0.42499825660E+02  0.78102058291E+02  0.94038677457E+02  0.00000000000E+00 0.  1.
</event>
<event>
12    1  0.8461994E-002  0.1916078E+03  0.7818608E-02  0.1157417E+00
         21   -1    0    0  503  502  0.00000000000E+00  0.00000000000E+00  0.22505260646E+03  0.22505260646E+03  0.00000000000E+00 0. -1.
         21   -1    0    0  501  503 -0.00000000000E+00 -0.00000000000E+00 -0.17270357306E+03  0.17270357306E+03  0.00000000000E+00 0.  1.
          6    2    1    2  501    0  0.42993830935E+02 -0.68049562140E+02  0.76427942378E+02  0.20464132263E+03  0.17192332054E+03 0.  0.
         24    2    3    3    0    0  0.23720660609E+02 -0.11331811713E+03  0.58408954197E+02  0.15203456356E+03  0.79367733847E+02 0.  0.
         -6    2    1    2    0  502 -0.42993830935E+02  0.68049562140E+02 -0.24078908976E+02  0.19311485689E+03  0.17388025100E+03 0.  0.
        -24    2    5    5    0    0  0.42985749761E+02  0.36776749876E+02 -0.13289216617E+02  0.10087069965E+03  0.82449928780E+02 0.  0.
          5    1    3    3  501    0  0.19273170326E+02  0.45268554989E+02  0.18018988181E+02  0.52606759074E+02  0.47000000000E+01 0. -1.
        -13    1    4    4    0    0 -0.54842738348E+01 -0.10156654765E+02 -0.17289656571E+02  0.20788629581E+02  0.00000000000E+00 0.  1.
         14    1    4    4    0    0  0.29204934444E+02 -0.10316146236E+03  0.75698610768E+02  0.13124593398E+03  0.00000000000E+00 0. -1.
         -5    1    5    5    0  502 -0.85979580696E+02  0.31272812264E+02 -0.10789692360E+02  0.92244157239E+02  0.47000000000E+01 0.  1.
         11    1    6    6    0    0  0.25367574006E+02 -0.24854035415E+02 -0.89507564786E+01  0.36624485374E+02  0.00000000000E+00 0. -1.
        -12    1    6    6    0    0  0.17618175756E+02  0.61630785292E+02 -0.43384601381E+01  0.64246214277E+02  0.00000000000E+00 0.  1.
</event>
<event>
12    1  0.8461994E-002  0.1771635E+03  0.7818608E-02  0.1170611E+00
         21   -1    0    0  503  502  0.00000000000E+00  0.00000000000E+00  0.90131536913E+03  0.90131536913E+03  0.00000000000E+00 0. -1.
         21   -1    0    0  501  503 -0.00000000000E+00 -0.00000000000E+00 -0.19754889119E+03  0.19754889119E+03  0.00000000000E+00 0. -1.
          6    2    1    2  501    0 -0.37074666672E+02  0.20303471752E+02 -0.14679407606E+03  0.23007694932E+03  0.17204691211E+03 0.  0.
         24    2    3    3    0    0  0.26427621588E+02 -0.17334029935E+02 -0.12695497774E+03  0.15349495424E+03  0.80276066350E+02 0.  0.
         -6    2    1    2    0  502  0.37074666672E+02 -0.20303471752E+02  0.85056055400E+03  0.86878731100E+03  0.17190513040E+03 0.  0.
        -24    2    5    5    0    0  0.17675578938E+02 -0.47791664492E+02  0.25740762060E+03  0.27466239337E+03  0.81143563538E+02 0.  0.
          5    1    3    3  501    0 -0.63502288260E+02  0.37637501687E+02 -0.19839098323E+02  0.76581995075E+02  0.47000000000E+01 0. -1.
        -13    1    4    4    0    0  0.23538548234E+02 -0.26247302728E+02 -0.10672997036E+02  0.36836083114E+02  0.00000000000E+00 0.  1.
         14    1    4    4    0    0  0.28890733542E+01  0.89132727928E+01 -0.11628198071E+03  0.11665887113E+03  0.00000000000E+00 0. -1.
         -5    1    5    5    0  502  0.19399087734E+02  0.27488192741E+02  0.59315293340E+03  0.59412491763E+03  0.47000000000E+01 0.  1.
         13    1    6    6    0    0 -0.64727321063E+01 -0.37948492387E+02  0.24054945070E+03  0.24361039093E+03  0.00000000000E+00 0. -1.
        -14    1    6    6    0    0  0.24148311044E+02 -0.98431721051E+01  0.16858169898E+02  0.31052002443E+02  0.00000000000E+00 0.  1.
</event>
<event>
12    1  0.8461994E-002  0.2508369E+03  0.7818608E-02  0.1113053E+00
         21   -1    0    0  503  502  0.00000000000E+00  0.00000000000E+00  0.12354704912E+03  0.12354704912E+03  0.00000000000E+00 0.  1.
         21   -1    0    0  501  503 -0.00000000000E+00 -0.00000000000E+00 -0.95710026922E+03  0.95710026922E+03  0.00000000000E+00 0. -1.
          6    2    1    2  501    0  0.12685912059E+03 -0.12978604360E+03 -0.78706398891E+03  0.82553869733E+03  0.17060704723E+03 0.  0.
         24    2    3    3    0    0  0.34363444126E+02 -0.12499494565E+03 -0.41923290530E+03  0.44619689783E+03  0.80813736533E+02 0.  0.
         -6    2    1    2    0  502 -0.12685912059E+03  0.12978604360E+03 -0.46489231187E+02  0.25510862101E+03  0.17315168584E+03 0.  0.
        -24    2    5    5    0    0 -0.92338089246E+02  0.10678620660E+03 -0.97157898291E+02  0.18945728490E+03  0.80776165776E+02 0.  0.
          5    1    3    3  501    0  0.92495676462E+02 -0.47910979527E+01 -0.36783108361E+03  0.37934179951E+03  0.47000000000E+01 0. -1.
        -11    1    4    4    0    0 -0.16467424832E+02 -0.24961943296E+02 -0.17349567771E+03  0.17605403965E+03  0.00000000000E+00 0.  1.
         12    1    4    4    0    0  0.50830868958E+02 -0.10003300235E+03 -0.24573722760E+03  0.27014285818E+03  0.00000000000E+00 0. -1.
         -5    1    5    5    0  502 -0.34521031342E+02  0.22999836999E+02  0.50668667105E+02  0.65651336110E+02  0.47000000000E+01 0.  1.
         13    1    6    6    0    0  0.27464473899E+01  0.44851937165E+02 -0.91632804088E+01  0.45860712473E+02  0.00000000000E+00 0. -1.
        -14    1    6    6    0    0 -0.95084536636E+02  0.61934269435E+02 -0.87994617883E+02  0.14359657243E+03  0.00000000000E+00 0.  1.
</event>
<event>
12    1  0.8461994E-002  0.2221330E+03  0.7818608E-02  0.1132459E+00
         21   -1    0    0  503  502  0.00000000000E+00  0.00000000000E+00  0.48222617896E+03  0.48222617896E+03  0.00000000000E+00 0.  1.
         21   -1    0    0  501  503 -0.00000000000E+00 -0.00000000000E+00 -0.10211313730E+03  0.10211313730E+03  0.00000000000E+00 0.  1.
          6    2    1    2  501    0  0.10157676796E+03 -0.95892943015E+02  0.17815049322E+03  0.28474671031E+03  0.17271304088E+03 0.  0.
         24    2    3    3    0    0  0.76810280917E+02 -0.12455261774E+02  0.15957735070E+03  0.19562725590E+03  0.82159233154E+02 0.  0.
         -6    2    1    2    0  502 -0.10157676796E+03  0.95892943015E+02  0.20196254844E+03  0.29959260596E+03  0.17162040165E+03 0.  0.
        -24    2    5    5    0    0 -0.79350196701E+02  0.27280664098E+02  0.19470191682E+03  0.22695327736E+03  0.80983117627E+02 0.  0.
          5    1    3    3  501    0  0.24766487038E+02 -0.83437681241E+02  0.18573142511E+02  0.89119454407E+02  0.47000000000E+01 0. -1.
        -13    1    4    4    0    0  0.70433208665E+02 -0.38383339969E+02  0.87200170571E+02  0.11848201306E+03  0.00000000000E+00 0.  1.
         14    1    4    4    0    0  0.63770722521E+01  0.25928078195E+02  0.72377180134E+02  0.77145242844E+02  0.00000000000E+00 0. -1.
         -5    1    5    5    0  502 -0.22226571255E+02  0.68612278917E+02  0.72606316210E+01  0.72639328600E+02  0.47000000000E+01 0.  1.
         11    1    6    6    0    0 -0.13704503101E+02  0.40578137677E+02  0.11573853807E+03  0.12340910768E+03  0.00000000000E+00 0. -1.
        -12    1    6    6    0    0 -0.65645693600E+02 -0.13297473579E+02  0.78963378745E+02  0.10354416968E+03  0.00000000000E+00 0.  1.
</event>
<event>
12    1  0.8461994E-002  0.2164323E+03  0.7818608E-02  0.1137367E+00
         21   -1    0    0  503  502  0.00000000000E+00  0.00000000000E+00  0.26386743484E+02  0.26386743484E+02  0.00000000000E+00 0.  1.
         21   -1    0    0  501  503 -0.00000000000E+00 -0.00000000000E+00 -0.17421951653E+04  0.17421951653E+04  0.00000000000E+00 0. -1.
          6    2    1    2  501    0 -0.11988849661E+03  0.53704929745E+02 -0.88437313965E+03  0.91047173602E+03  0.17200424665E+03 0.  0.
         24    2    3    3    0    0 -0.75644153925E+02 -0.22790984349E+02 -0.32361807478E+03  0.34277681839E+03  0.80782559439E+02 0.  0.
         -6    2    1    2    0  502  0.11988849661E+03 -0.53704929745E+02 -0.83143528214E+03  0.85811017274E+03  0.16676621079E+03 0.  0.
        -24    2    5    5    0    0  0.97815951546E+02  0.41878253025E+01 -0.33445524432E+03  0.35726087771E+03  0.78673540862E+02 0.  0.
          5    1    3    3  501    0 -0.44244342687E+02  0.76495914095E+02 -0.56075506486E+03  0.56769491763E+03  0.47000000000E+01 0. -1.
        -13    1    4    4    0    0 -0.79531498166E+02 -0.24922115217E+01 -0.16913563760E+03  0.18691798796E+03  0.00000000000E+00 0.  1.
         14    1    4    4    0    0  0.38873442405E+01 -0.20298772827E+02 -0.15448243719E+03  0.15585883043E+03  0.00000000000E+00 0. -1.
         -5    1    5    5    0  502  0.22072545066E+02 -0.57892755048E+02 -0.49698003783E+03  0.50084929503E+03  0.47000000000E+01 0.  1.
         11    1    6    6    0    0  0.10202345763E+03 -0.17268609490E+02 -0.28437753093E+03  0.30261786279E+03  0.00000000000E+00 0. -1.
        -12    1    6    6    0    0 -0.42075060836E+01  0.21456434793E+02 -0.50077713387E+02  0.54643014920E+02  0.00000000000E+00 0.  1.
</event>
<event>
12    1  0.8461994E-002  0.1814551E+03  0.7818608E-02  0.1166443E+00
         21   -1    0    0  501  502  0.00000000000E+00  0.00000000000E+00  0.78931907673E+03  0.78931907673E+03  0.00000000000E+00 0. -1.
         21   -1    0    0  502  503 -0.00000000000E+00 -0.00000000000E+00 -0.74999390734E+02  0.74999390734E+02  0.00000000000E+00 0. -1.
         -6    2    1    2    0  503 -0.54757319547E+02  0.18423684259E+02  0.69001422239E+02  0.19397406581E+03  0.17183406459E+03 0.  0.
        -24    2    3    3    0    0 -0.10247758846E+03  0.98808218913E+01  0.64842871510E+02  0.14509065241E+03  0.79040575994E+02 0.  0.
          6    2    1    2  501    0  0.54757319547E+02 -0.18423684259E+02  0.64531826376E+03  0.67034440165E+03  0.17201208998E+03 0.  0.
         24    2    5    5    0    0  0.64889484899E+02 -0.27716111763E+01  0.20256911412E+03  0.22717790058E+03  0.79732210789E+02 0.  0.
          5    1    5    5  501    0 -0.10132165352E+02 -0.15652073083E+02  0.44274914964E+03  0.44316650107E+03  0.47000000000E+01 0. -1.
        -11    1    6    6    0    0  0.13522391316E+02 -0.85271638001E+01 -0.20626425486E+01  0.16118997601E+02  0.00000000000E+00 0.  1.
         12    1    6    6    0    0  0.51367093583E+02  0.57555526238E+01  0.20463175667E+03  0.21105890298E+03  0.00000000000E+00 0. -1.
         -5    1    3    3    0  503  0.47720268909E+02  0.85428623677E+01  0.41585507292E+01  0.48883413407E+02  0.47000000000E+01 0.  1.
         13    1    4    4    0    0 -0.69474391869E+02  0.43761297966E+02  0.46495662324E+02  0.94358830748E+02  0.00000000000E+00 0. -1.
        -14    1    4    4    0    0 -0.33003196586E+02 -0.33880476074E+02  0.18347209186E+02  0.50731821659E+02  0.00000000000E+00 0.  1.
</event>
<event>
12    1  0.8461994E-002  0.3309532E+03  0.7818608E-02  0.1070748E+00
         21   -1    0    0  503  502  0.00000000000E+00  0.00000000000E+00  0.35050936151E+03  0.35050936151E+03  0.00000000000E+00 0.  1.
         21   -1    0    0  501  503 -0.00000000000E+00 -0.00000000000E+00 -0.32892888316E+03  0.32892888316E+03  0.00000000000E+00 0. -1.
          6    2    1    2  501    0 -0.24885312999E+03  0.13279494375E+03 -0.65788097429E+02  0.33742865947E+03  0.17311166651E+03 0.  0.
         24    2    3    3    0    0 -0.51544102522E+02  0.90345846658E+02 -0.16235848500E+02  0.12955780164E+03  0.75514599095E+02 0.  0.
         -6    2    1    2    0  502  0.24885312999E+03 -0.13279494375E+03  0.87368575775E+02  0.34200958520E+03  0.17255408122E+03 0.  0.
        -24    2    5    5    0    0  0.26122285088E+03 -0.11619790130E+03  0.10435426482E+03  0.31482364315E+03  0.80528154164E+02 0.  0.
          5    1    3    3  501    0 -0.19730902746E+03  0.42449097089E+02 -0.49552248929E+02  0.20787085783E+03  0.47000000000E+01 0. -1.
        -13    1    4    4    0    0 -0.56863731903E+02  0.10137616984E+03 -0.13566730810E+02  0.11702421973E+03  0.00000000000E+00 0.  1.
         14    1    4    4    0    0  0.53196293807E+01 -0.11030323186E+02 -0.26691176904E+01  0.12533581913E+02  0.00000000000E+00 0. -1.
         -5    1    5    5    0  502 -0.12369720890E+02 -0.16597042444E+02 -0.16985689042E+02  0.27185942048E+02  0.47000000000E+01 0.  1.
         11    1    6    6    0    0  0.17883096299E+03 -0.36762811249E+02  0.63106295048E+02  0.19316941293E+03  0.00000000000E+00 0. -1.
        -12    1    6    6    0    0  0.82391887883E+02 -0.79435090054E+02  0.41247969769E+02  0.12165423022E+03  0.00000000000E+00 0.  1.
</event>
<event>
12    1  0.8461994E-002  0.2479784E+03  0.7818608E-02  0.1114839E+00
         21   -1    0    0  501  502  0.00000000000E+00  0.00000000000E+00  0.82229983121E+03  0.82229983121E+03  0.00000000000E+00 0.  1.
         21   -1    0    0  502  503 -0.00000000000E+00 -0.00000000000E+00 -0.14387246499E+03  0.14387246499E+03  0.00000000000E+00 0. -1.
         -6    2    1    2    0  503  0.86286699973E+02  0.15407884841E+03  0.27563076956E+01  0.24643297834E+03  0.17186020325E+03 0.  0.
        -24    2    3    3    0    0  0.21272717033E+02  0.13131035723E+03 -0.44402398280E+02  0.16281924910E+03  0.82726032761E+02 0.  0.
          6    2    1    2  501    0 -0.86286699973E+02 -0.15407884841E+03  0.67567105852E+03  0.71973931787E+03  0.17409083903E+03 0.  0.
         24    2    5    5    0    0 -0.47367438304E+01 -0.10561259069E+03  0.52412518476E+03  0.54088849920E+03  0.81711095983E+02 0.  0.
          5    1    5    5  501    0 -0.81549956142E+02 -0.48466257717E+02  0.15154587376E+03  0.17885081867E+03  0.47000000000E+01 0. -1.
        -13    1    6    6    0    0 -0.22338630610E+02 -0.10578391711E+03  0.36172339926E+03  0.37753552032E+03  0.00000000000E+00 0.  1.
         14    1    6    6    0    0  0.17601886780E+02  0.17132642020E+00  0.16240178551E+03  0.16335297887E+03  0.00000000000E+00 0. -1.
         -5    1    3    3    0  503  0.65013982940E+02  0.22768491178E+02  0.47158705976E+02  0.83613729241E+02  0.47000000000E+01 0. -1.
         13    1    4    4    0    0  0.66457387252E+01  0.84752542044E+02  0.14592166434E+02  0.86255959489E+02  0.00000000000E+00 0. -1.
        -14    1    4    4    0    0  0.14626978308E+02  0.46557815191E+02 -0.58994564715E+02  0.76563289608E+02  0.00000000000E+00 0.  1.
</event>
<event>
12    1  0.8461994E-002  0.1901337E+03  0.7818608E-02  0.1158343E+00
         21   -1    0    0  503  502  0.00000000000E+00  0.00000000000E+00  0.91327021897E+03  0.91327021897E+03  0.00000000000E+00 0.  1.
         21   -1    0    0  501  503 -0.00000000000E+00 -0.00000000000E+00 -0.39920160966E+02  0.39920160966E+02  0.00000000000E+00 0.  1.
          6    2    1    2  501    0  0.54268799994E+02 -0.61840648908E+02  0.39278816093E+03  0.43638232000E+03  0.17139901206E+03 0.  0.
         24    2    3    3    0    0  0.48715313168E+02 -0.10440937100E+03  0.23942885348E+03  0.27705842193E+03  0.78490093600E+02 0.  0.
         -6    2    1    2    0  502 -0.54268799994E+02  0.61840648908E+02  0.48056189708E+03  0.51680805994E+03  0.17141022543E+03 0.  0.
        -24    2    5    5    0    0 -0.39822366834E+02  0.78283352307E+02  0.47834907007E+03  0.49431253751E+03  0.88390880482E+02 0.  0.
          5    1    3    3  501    0  0.55534868257E+01  0.42568722090E+02  0.15335930745E+03  0.15932389807E+03  0.47000000000E+01 0. -1.
        -11    1    4    4    0    0  0.92878382996E+01 -0.40642811933E+02  0.16944681775E+03  0.17450021819E+03  0.00000000000E+00 0.  1.
         12    1    4    4    0    0  0.39427474869E+02 -0.63766559064E+02  0.69982035730E+02  0.10255820374E+03  0.00000000000E+00 0. -1.
         -5    1    5    5    0  502 -0.14446433160E+02 -0.16442703398E+02  0.22128270101E+01  0.22495522432E+02  0.47000000000E+01 0.  1.
         13    1    6    6    0    0  0.22098325969E+02  0.53403700271E+02  0.21318504900E+03  0.22088041183E+03  0.00000000000E+00 0. -1.
        -14    1    6    6    0    0 -0.61920692803E+02  0.24879652036E+02  0.26516402107E+03  0.27343212568E+03  0.00000000000E+00 0.  1.
</event>
<event>
12    1  0.8461994E-002  0.2298802E+03  0.7818608E-02  0.1126965E+00
         21   -1    0    0  501  502  0.00000000000E+00  0.00000000000E+00  0.18772008256E+03  0.18772008256E+03  0.00000000000E+00 0.  1.
         21   -1    0    0  502  503 -0.00000000000E+00 -0.00000000000E+00 -0.33052116251E+03  0.33052116251E+03  0.00000000000E+00 0. -1.
         -6    2    1    2    0  503 -0.13408278681E+03 -0.73364002823E+02 -0.17304223252E+03  0.28772992026E+03  0.17171028551E+03 0.  0.
        -24    2    3    3    0    0 -0.40921465153E+02 -0.31060035399E+02 -0.15786313023E+03  0.18418692118E+03  0.79779458123E+02 0.  0.
          6    2    1    2  501    0  0.13408278681E+03  0.73364002823E+02  0.30241152572E+02  0.23051132481E+03  0.16988370413E+03 0.  0.
         24    2    5    5    0    0  0.75491960123E+02  0.11191373935E+03  0.32187932373E+02  0.16019171795E+03  0.80010014431E+02 0.  0.
          5    1    5    5  501    0  0.58590826684E+02 -0.38549736529E+02 -0.19467798015E+01  0.70319606864E+02  0.47000000000E+01 0. -1.
        -11    1    6    6    0    0 -0.78918907897E+01  0.77710144322E+00  0.19047208895E+02  0.20632062271E+02  0.00000000000E+00 0.  1.
         12    1    6    6    0    0  0.83383850912E+02  0.11113663791E+03  0.13140723479E+02  0.13955965568E+03  0.00000000000E+00 0. -1.
         -5    1    3    3    0  503 -0.93161321654E+02 -0.42303967424E+02 -0.15179102288E+02  0.10354299908E+03  0.47000000000E+01 0.  1.
         11    1    4    4    0    0 -0.17458904673E+02 -0.52240872797E+02 -0.13305466385E+03  0.14400508920E+03  0.00000000000E+00 0. -1.
        -12    1    4    4    0    0 -0.23462560480E+02  0.21180837398E+02 -0.24808466379E+02  0.40181831980E+02  0.00000000000E+00 0.  1.
</event>
<event>
12    1  0.8461994E-002  0.2171028E+03  0.7818608E-02  0.1136071E+00
         21   -1    0    0  503  502  0.00000000000E+00  0.00000000000E+00  0.36047049024E+03  0.36047049024E+03  0.00000000000E+00 0. -1.
         21   -1    0    0  501  503 -0.00000000000E+00 -0.00000000000E+00 -0.27152327953E+03  0.27152327953E+03  0.00000000000E+00 0. -1.
          6    2    1    2  501    0  0.96252959976E+02 -0.90160645468E+02 -0.18307482459E+03  0.28398949962E+03  0.17245309565E+03 0.  0.
         24    2    3    3    0    0  0.26947329290E+01 -0.37778276439E+02 -0.23581186123E+02  0.91746514974E+02  0.80167892043E+02 0.  0.
         -6    2    1    2    0  502 -0.96252959976E+02  0.90160645468E+02  0.27202203529E+03  0.34800427015E+03  0.17238738372E+03 0.  0.
        -24    2    5    5    0    0 -0.96248488600E+02  0.12253406400E+03  0.25934963422E+03  0.31292267959E+03  0.79874916175E+02 0.  0.
          5    1    3    3  501    0  0.93558227047E+02 -0.52382369029E+02 -0.15949363847E+03  0.19224298464E+03  0.47000000000E+01 0. -1.
        -11    1    4    4    0    0  0.49619353634E+01  0.24777156502E+02 -0.12443762555E+02  0.28166922328E+02  0.00000000000E+00 0.  1.
         12    1    4    4    0    0 -0.22672024344E+01 -0.62555432941E+02 -0.11137423569E+02  0.63579592647E+02  0.00000000000E+00 0. -1.
         -5    1    5    5    0  502 -0.44713755641E-02 -0.32373418532E+02  0.12672401068E+02  0.35081590561E+02  0.47000000000E+01 0.  1.
         13    1    6    6    0    0 -0.91025275063E+02  0.88771643093E+02  0.24467817517E+03  0.27574157235E+03  0.00000000000E+00 0. -1.
        -14    1    6    6    0    0 -0.52232135368E+01  0.33762420907E+02  0.14671459056E+02  0.37181107245E+02  0.00000000000E+00 0.  1.
</event>
<event>
12    1  0.8461994E-002  0.2288259E+03  0.7818608E-02  0.1127632E+00
         21   -1    0    0  503  502  0.00000000000E+00  0.00000000000E+00  0.17217281593E+03  0.17217281593E+03  0.00000000000E+00 0.  1.
         21   -1    0    0  501  503 -0.00000000000E+00 -0.00000000000E+00 -0.31463259391E+03  0.31463259391E+03  0.00000000000E+00 0.  1.
          6    2    1    2  501    0  0.13082339255E+03 -0.73727772293E+02 -0.11837519935E+03  0.25763147449E+03  0.17265788248E+03 0.  0.
         24    2    3    3    0    0  0.34753277792E+02 -0.76033804517E+02 -0.11193922412E+03  0.16120379947E+03  0.80419806767E+02 0.  0.
         -6    2    1    2    0  502 -0.13082339255E+03  0.73727772293E+02 -0.24084578627E+02  0.22917393534E+03  0.17143535594E+03 0.  0.
        -24    2    5    5    0    0 -0.47652401898E+02  0.95763362498E+02 -0.47365551647E+02  0.13991546445E+03  0.76755903386E+02 0.  0.
          5    1    3    3  501    0  0.96070114756E+02  0.23060322241E+01 -0.64359752383E+01  0.96427675027E+02  0.47000000000E+01 0. -1.
        -11    1    4    4    0    0  0.50356964514E+02 -0.37280646617E+02 -0.99555114065E+02  0.11763031592E+03  0.00000000000E+00 0.  1.
         12    1    4    4    0    0 -0.15603686723E+02 -0.38753157900E+02 -0.12384110051E+02  0.43573483546E+02  0.00000000000E+00 0. -1.
         -5    1    5    5    0  502 -0.83170990649E+02 -0.22035590205E+02  0.23280973020E+02  0.89258470892E+02  0.47000000000E+01 0.  1.
         11    1    6    6    0    0 -0.51093137508E+01  0.43109287624E+02 -0.56884058357E+02  0.71556354446E+02  0.00000000000E+00 0. -1.
        -12    1    6    6    0    0 -0.42543088147E+02  0.52654074874E+02  0.95185067101E+01  0.68359109999E+02  0.00000000000E+00 0.  1.
</event>
<event>
12    1  0.8461994E-002  0.2608783E+03  0.7818608E-02  0.1106706E+00
         21   -1    0    0  501  502  0.00000000000E+00  0.00000000000E+00  0.28249394230E+04  0.28249394230E+04  0.00000000000E+00 0.  1.
         21   -1    0    0  502  503 -0.00000000000E+00 -0.00000000000E+00 -0.24218394223E+02  0.24218394223E+02  0.00000000000E+00 0. -1.
         -6    2    1    2    0  503 -0.16881803893E+03 -0.99497589762E+02  0.12753543841E+04  0.13016434026E+04  0.17131095065E+03 0.  0.
        -24    2    3    3    0    0 -0.68894065341E+02  0.14991579610E+02  0.35185195219E+03  0.36570996364E+03  0.70518377344E+02 0.  0.
          6    2    1    2  501    0  0.16881803893E+03  0.99497589762E+02  0.15253666446E+04  0.15475144146E+04  0.17221545279E+03 0.  0.
         24    2    5    5    0    0  0.85458322803E+02  0.25671242240E+02  0.11466720096E+04  0.11527602019E+04  0.77699728431E+02 0.  0.
          5    1    5    5  501    0  0.83359716132E+02  0.73826347522E+02  0.37869463504E+03  0.39475421273E+03  0.47000000000E+01 0. -1.
        -13    1    6    6    0    0  0.89499772027E+02  0.14475442908E+02  0.11186109446E+04  0.11222790174E+04  0.00000000000E+00 0.  1.
         14    1    6    6    0    0 -0.40414492234E+01  0.11195799332E+02  0.28061065034E+02  0.30481184448E+02  0.00000000000E+00 0. -1.
         -5    1    3    3    0  503 -0.99923973594E+02 -0.11448916937E+03  0.92350243195E+03  0.93593343899E+03  0.47000000000E+01 0.  1.
         11    1    4    4    0    0 -0.40231547301E+02 -0.27263949260E+02  0.16521371168E+03  0.17221344563E+03  0.00000000000E+00 0. -1.
        -12    1    4    4    0    0 -0.28662518040E+02  0.42255528870E+02  0.18663824051E+03  0.19349651801E+03  0.00000000000E+00 0.  1.
</event>
<event>
12    1  0.8461994E-002  0.2140962E+03  0.7818608E-02  0.1138596E+00
         21   -1    0    0  503  502  0.00000000000E+00  0.00000000000E+00  0.35443469719E+03  0.35443469719E+03  0.00000000000E+00 0.  1.
         21   -1    0    0  501  503 -0.00000000000E+00 -0.00000000000E+00 -0.13062024344E+03  0.13062024344E+03  0.00000000000E+00 0.  1.
          6    2    1    2  501    0 -0.12076531916E+03 -0.35529876595E+02  0.81409756288E+02  0.22792409143E+03  0.17168345462E+03 0.  0.
         24    2    3    3    0    0 -0.59524209010E+02 -0.87156950538E+02  0.59938032462E+02  0.14486415367E+03  0.79079642119E+02 0.  0.
         -6    2    1    2    0  502  0.12076531916E+03  0.35529876595E+02  0.14240469746E+03  0.25713084919E+03  0.17317777371E+03 0.  0.
        -24    2    5    5    0    0  0.14134861806E+03 -0.79031444708E+01  0.12833654622E+03  0.20683072601E+03  0.79163050782E+02 0.  0.
          5    1    3    3  501    0 -0.61241110151E+02  0.51627073943E+02  0.21471723826E+02  0.83059937759E+02  0.47000000000E+01 0. -1.
        -13    1    4    4    0    0  0.34514620925E+01 -0.55566842001E+02  0.57284322464E+01  0.55967860926E+02  0.00000000000E+00 0.  1.
         14    1    4    4    0    0 -0.62975671102E+02 -0.31590108537E+02  0.54209600215E+02  0.88896292744E+02  0.00000000000E+00 0. -1.
         -5    1    5    5    0  502 -0.20583298898E+02  0.43433021066E+02  0.14068151243E+02  0.50300123179E+02  0.47000000000E+01 0.  1.
         11    1    6    6    0    0 -0.19381523592E+01 -0.16734254689E+02  0.50165959354E+01  0.17577199701E+02  0.00000000000E+00 0. -1.
        -12    1    6    6    0    0  0.14328677042E+03  0.88311102180E+01  0.12331995028E+03  0.18925352631E+03  0.00000000000E+00 0.  1.
</event>
<event>
12    1  0.8461994E-002  0.1966417E+03  0.7818608E-02  0.1154154E+00
         21   -1    0    0  503  502  0.00000000000E+00  0.00000000000E+00  0.24427540643E+03  0.24427540643E+03  0.00000000000E+00 0. -1.
         21   -1    0    0  501  503 -0.00000000000E+00 -0.00000000000E+00 -0.33852280995E+03  0.33852280995E+03  0.00000000000E+00 0. -1.
          6    2    1    2  501    0  0.69357730706E+02  0.38859880517E+02 -0.26340716731E+03  0.32871155759E+03  0.17985373830E+03 0.  0.
         24    2    3    3    0    0 -0.15341125478E+02  0.50836827693E+02 -0.71918626550E+02  0.11893240051E+03  0.78440384153E+02 0.  0.
         -6    2    1    2    0  502 -0.69357730706E+02 -0.38859880517E+02  0.16915976379E+03  0.25408665878E+03  0.17211745804E+03 0.  0.
        -24    2    5    5    0    0 -0.10928735243E+02 -0.75194683798E+02  0.54237362654E+02  0.12005899849E+03  0.75490356244E+02 0.  0.
          5    1    3    3  501    0  0.84698856184E+02 -0.11976947176E+02 -0.19148854076E+03  0.20977915708E+03  0.47000000000E+01 0. -1.
        -13    1    4    4    0    0  0.20038745930E+02  0.53090028089E+00  0.47931869816E+01  0.20610866915E+02  0.00000000000E+00 0.  1.
         14    1    4    4    0    0 -0.35379871408E+02  0.50305927412E+02 -0.76711813531E+02  0.98321533597E+02  0.00000000000E+00 0. -1.
         -5    1    5    5    0  502 -0.58428995463E+02  0.36334803281E+02  0.11492240113E+03  0.13402766029E+03  0.47000000000E+01 0.  1.
         13    1    6    6    0    0 -0.34524524866E+02 -0.55013064489E+02  0.60067100438E+02  0.88467150043E+02  0.00000000000E+00 0. -1.
        -14    1    6    6    0    0  0.23595789622E+02 -0.20181619308E+02 -0.58297377839E+01  0.31591848449E+02  0.00000000000E+00 0.  1.
</event>
<event>
12    1  0.8461994E-002  0.2007368E+03  0.7818608E-02  0.1149568E+00
         21   -1    0    0  501  502  0.00000000000E+00  0.00000000000E+00  0.46117290805E+02  0.46117290805E+02  0.00000000000E+00 0. -1.
         21   -1    0    0  502  503 -0.00000000000E+00 -0.00000000000E+00 -0.10051165393E+04  0.10051165393E+04  0.00000000000E+00 0.  1.
         -6    2    1    2    0  503  0.73547295184E+02 -0.65870777090E+02 -0.67827351609E+03  0.70735439399E+03  0.17477732164E+03 0.  0.
        -24    2    3    3    0    0  0.27702812673E+02 -0.10259658841E+03 -0.35684499847E+03  0.38056870928E+03  0.78744420520E+02 0.  0.
          6    2    1    2  501    0 -0.73547295184E+02  0.65870777090E+02 -0.28072573236E+03  0.34387943607E+03  0.17233097760E+03 0.  0.
         24    2    5    5    0    0 -0.18056225536E+02 -0.14915498501E+02 -0.20760896641E+03  0.22151182354E+03  0.73603706820E+02 0.  0.
          5    1    5    5  501    0 -0.55491069648E+02  0.80786275591E+02 -0.73116765953E+02  0.12236761254E+03  0.47000000000E+01 0. -1.
        -13    1    6    6    0    0  0.26938827086E+02 -0.17476607033E+02 -0.82074454029E+02  0.88132560398E+02  0.00000000000E+00 0.  1.
         14    1    6    6    0    0 -0.44995052622E+02  0.25611085323E+01 -0.12553451238E+03  0.13337926314E+03  0.00000000000E+00 0. -1.
         -5    1    3    3    0  503  0.45844482511E+02  0.36725811318E+02 -0.32142851762E+03  0.32678568471E+03  0.47000000000E+01 0.  1.
         11    1    4    4    0    0  0.53371317247E+02 -0.74727735032E+02 -0.28371905460E+03  0.29821004985E+03  0.00000000000E+00 0. -1.
        -12    1    4    4    0    0 -0.25668504574E+02 -0.27868853376E+02 -0.73125943868E+02  0.82358659425E+02  0.00000000000E+00 0.  1.
</event>
<event>
12    1  0.8461994E-002  0.1967272E+03  0.7818608E-02  0.1153735E+00
         21   -1    0    0  501  502  0.00000000000E+00  0.00000000000E+00  0.11751685595E+03  0.11751685595E+03  0.00000000000E+00 0.  1.
         21   -1    0    0  502  503 -0.00000000000E+00 -0.00000000000E+00 -0.40224770455E+03  0.40224770455E+03  0.00000000000E+00 0.  1.
         -6    2    1    2    0  503  0.81289530004E+02 -0.18990529888E+02 -0.26135634498E+03  0.32712189461E+03  0.17813749454E+03 0.  0.
        -24    2    3    3    0    0 -0.68544587698E+01 -0.50336020005E+02 -0.84724399854E+02  0.12718981478E+03  0.80114458981E+02 0.  0.
          6    2    1    2  501    0 -0.81289530004E+02  0.18990529888E+02 -0.23374503615E+02  0.19264266589E+03  0.17203546549E+03 0.  0.
         24    2    5    5    0    0 -0.76761885851E+02 -0.49358409032E+02 -0.27911122120E+02  0.12383316131E+03  0.78911225054E+02 0.  0.
          5    1    5    5  501    0 -0.45276441533E+01  0.68348938920E+02  0.45366185055E+01  0.68809504580E+02  0.47000000000E+01 0. -1.
        -11    1    6    6    0    0 -0.20446706869E+02  0.15412351128E+02  0.13041078249E+02  0.28734615205E+02  0.00000000000E+00 0.  1.
         12    1    6    6    0    0 -0.56315178982E+02 -0.64770760160E+02 -0.40952200370E+02  0.95098546101E+02  0.00000000000E+00 0. -1.
         -5    1    3    3    0  503  0.88143988774E+02  0.31345490117E+02 -0.17663194513E+03  0.19993207984E+03  0.47000000000E+01 0.  1.
         11    1    4    4    0    0  0.24483059863E+02 -0.46637906938E+02 -0.22213461415E+02  0.57166007836E+02  0.00000000000E+00 0. -1.
        -12    1    4    4    0    0 -0.31337518633E+02 -0.36981130668E+01 -0.62510938439E+02  0.70023806943E+02  0.00000000000E+00 0.  1.
</event>
<event>
12    1  0.8461994E-002  0.1868851E+03  0.7818608E-02  0.1162043E+00
         21   -1    0    0  501  502  0.00000000000E+00  0.00000000000E+00  0.56528911743E+02  0.56528911743E+02  0.00000000000E+00 0. -1.
         21   -1    0    0  502  503 -0.00000000000E+00 -0.00000000000E+00 -0.64905572912E+03  0.64905572912E+03  0.00000000000E+00 0. -1.
         -6    2    1    2    0  503 -0.57022065167E+02 -0.33952898308E+02 -0.38808566857E+03  0.43073949161E+03  0.17470463149E+03 0.  0.
        -24    2    3    3    0    0 -0.62099995814E+02 -0.84346015666E+02 -0.23534292245E+03  0.26974977719E+03  0.80049930093E+02 0.  0.
          6    2    1    2  501    0  0.57022065167E+02  0.33952898308E+02 -0.20444114880E+03  0.27484514925E+03  0.17128735366E+03 0.  0.
         24    2    5    5    0    0  0.58671465224E+02  0.51666979980E+02 -0.54198731305E+02  0.12348008318E+03  0.78727446394E+02 0.  0.
          5    1    5    5  501    0 -0.16494000572E+01 -0.17714081672E+02 -0.15024241750E+03  0.15136506607E+03  0.47000000000E+01 0. -1.
        -11    1    6    6    0    0 -0.93649975503E+01 -0.18042039548E+01 -0.33050942068E+02  0.34399463697E+02  0.00000000000E+00 0.  1.
         12    1    6    6    0    0  0.68036462774E+02  0.53471183935E+02 -0.21147789237E+02  0.89080619485E+02  0.00000000000E+00 0. -1.
         -5    1    3    3    0  503  0.50779306478E+01  0.50393117357E+02 -0.15274274613E+03  0.16098971442E+03  0.47000000000E+01 0.  1.
         13    1    4    4    0    0 -0.57400489122E+02 -0.13364530262E+02 -0.12876883040E+03  0.14161510690E+03  0.00000000000E+00 0. -1.
        -14    1    4    4    0    0 -0.46995066923E+01 -0.70981485404E+02 -0.10657409205E+03  0.12813467029E+03  0.00000000000E+00 0.  1.
</event>
<event>
12    1  0.8461994E-002  0.3802000E+03  0.7818608E-02  0.1050892E+00
         21   -1    0    0  501  502  0.00000000000E+00  0.00000000000E+00  0.99654205566E+03  0.99654205566E+03  0.00000000000E+00 0. -1.
         21   -1    0    0  502  503 -0.00000000000E+00 -0.00000000000E+00 -0.14683010689E+03  0.14683010689E+03  0.00000000000E+00 0.  1.
         -6    2    1    2    0  503  0.27959522834E+03 -0.19179794875E+03  0.35982763394E+03  0.52347682856E+03  0.17202360023E+03 0.  0.
        -24    2    3    3    0    0  0.15748785072E+03 -0.80497879882E+02  0.27699423044E+03  0.33859475876E+03  0.81475610890E+02 0.  0.
          6    2    1    2  501    0 -0.27959522834E+03  0.19179794875E+03  0.48988431483E+03  0.61989533399E+03  0.17124146205E+03 0.  0.
         24    2    5    5    0    0 -0.27547479774E+03  0.17097336965E+03  0.37156418862E+03  0.49959411492E+03  0.80100412445E+02 0.  0.
          5    1    5    5  501    0 -0.41204305947E+01  0.20824579102E+02  0.11832012621E+03  0.12030121907E+03  0.47000000000E+01 0. -1.
        -13    1    6    6    0    0 -0.19538720834E+03  0.15198293631E+03  0.24256379945E+03  0.34657202847E+03  0.00000000000E+00 0.  1.
         14    1    6    6    0    0 -0.80087589409E+02  0.18990433331E+02  0.12900038917E+03  0.15302208645E+03  0.00000000000E+00 0. -1.
         -5    1    3    3    0  503  0.12210737762E+03 -0.11130006887E+03  0.82833403498E+02  0.18488206980E+03  0.47000000000E+01 0.  1.
         13    1    4    4    0    0  0.13454797564E+03 -0.86404285973E+02  0.18949607992E+03  0.24794681424E+03  0.00000000000E+00 0. -1.
        -14    1    4    4    0    0  0.22939875074E+02  0.59064060906E+01  0.87498150520E+02  0.90647944520E+02  0.00000000000E+00 0.  1.
</event>
<event>
12    1  0.8461994E-002  0.2042044E+03  0.7818608E-02  0.1146732E+00
         21   -1    0    0  501  502  0.00000000000E+00  0.00000000000E+00  0.48084409598E+03  0.48084409598E+03  0.00000000000E+00 0.  1.
         21   -1    0    0  502  503 -0.00000000000E+00 -0.00000000000E+00 -0.87706475646E+02  0.87706475646E+02  0.00000000000E+00 0.  1.
         -6    2    1    2    0  503  0.10714466934E+03  0.25644378030E+02  0.15257998787E+03  0.25300752699E+03  0.16909920675E+03 0.  0.
        -24    2    3    3    0    0  0.82136547852E+02  0.81108274335E+02  0.11891567403E+03  0.18331516041E+03  0.78348872659E+02 0.  0.
          6    2    1    2  501    0 -0.10714466934E+03 -0.25644378030E+02  0.24055763246E+03  0.31554304463E+03  0.17193552334E+03 0.  0.
         24    2    5    5    0    0 -0.83381277868E+02 -0.80423755451E+02  0.13954393249E+03  0.19810652328E+03  0.79707386937E+02 0.  0.
          5    1    5    5  501    0 -0.23763391473E+02  0.54779377422E+02  0.10101369997E+03  0.11743652135E+03  0.47000000000E+01 0. -1.
        -11    1    6    6    0    0 -0.40063157745E+02  0.11022997582E+01  0.76349309137E+02  0.86229279708E+02  0.00000000000E+00 0.  1.
         12    1    6    6    0    0 -0.43318120123E+02 -0.81526055210E+02  0.63194623354E+02  0.11187724357E+03  0.00000000000E+00 0. -1.
         -5    1    3    3    0  503  0.25008121489E+02 -0.55463896305E+02  0.33664313839E+02  0.69692366583E+02  0.47000000000E+01 0.  1.
         13    1    4    4    0    0  0.84846809924E+01  0.51038169614E+02  0.17928381282E+02  0.54756839066E+02  0.00000000000E+00 0. -1.
        -14    1    4    4    0    0  0.73651866859E+02  0.30070104721E+02  0.10098729275E+03  0.12855832134E+03  0.00000000000E+00 0.  1.
</event>
<event>
12    1  0.8461994E-002  0.1799936E+03  0.7818608E-02  0.1167999E+00
         21   -1    0    0  501  502  0.00000000000E+00  0.00000000000E+00  0.94080503619E+02  0.94080503619E+02  0.00000000000E+00 0.  1.
         21   -1    0    0  502  503 -0.00000000000E+00 -0.00000000000E+00 -0.55428628805E+03  0.55428628805E+03  0.00000000000E+00 0.  1.
         -6    2    1    2    0  503  0.25513277229E+02  0.45918138862E+02 -0.43000711910E+03  0.46585747860E+03  0.17134078644E+03 0.  0.
        -24    2    3    3    0    0  0.68612332944E+02  0.54058666658E+02 -0.30148746302E+03  0.32997816158E+03  0.10178853120E+03 0.  0.
          6    2    1    2  501    0 -0.25513277229E+02 -0.45918138862E+02 -0.30198665331E+02  0.18250931307E+03  0.17215773923E+03 0.  0.
         24    2    5    5    0    0  0.39752767040E+02 -0.11428402783E+02  0.20133901099E+02  0.93040571753E+02  0.80872017047E+02 0.  0.
          5    1    5    5  501    0 -0.65266044270E+02 -0.34489736078E+02 -0.50332566431E+02  0.89468741317E+02  0.47000000000E+01 0. -1.
        -11    1    6    6    0    0  0.69971457173E+01 -0.35366547643E+02  0.34599058636E+02  0.49968466045E+02  0.00000000000E+00 0.  1.
         12    1    6    6    0    0  0.32755621323E+02  0.23938144860E+02 -0.14465157537E+02  0.43072105709E+02  0.00000000000E+00 0. -1.
         -5    1    3    3    0  503 -0.43099055714E+02 -0.81405277966E+01 -0.12851965608E+03  0.13587931702E+03  0.47000000000E+01 0.  1.
         13    1    4    4    0    0  0.20400272965E+02  0.76169006171E+02 -0.14982926428E+03  0.16931242445E+03  0.00000000000E+00 0. -1.
        -14    1    4    4    0    0  0.48212059979E+02 -0.22110339513E+02 -0.15165819874E+03  0.16066573713E+03  0.00000000000E+00 0.  1.
</event>
<event>
12    1  0.8461994E-002  0.2597715E+03  0.7818608E-02  0.1107313E+00
         21   -1    0    0  503  502  0.00000000000E+00  0.00000000000E+00  0.47854499762E+02  0.47854499762E+02  0.00000000000E+00 0.  1.
         21   -1    0    0  501  503 -0.00000000000E+00 -0.00000000000E+00 -0.14191732684E+04  0.14191732684E+04  0.00000000000E+00 0. -1.
          6    2    1    2  501    0  0.14728093882E+03 -0.12653547439E+03 -0.62322103661E+03  0.67511146071E+03  0.17224436911E+03 0.  0.
         24    2    3    3    0    0  0.14749530946E+03 -0.15646330880E+03 -0.54996573843E+03  0.59583883026E+03  0.79535934520E+02 0.  0.
         -6    2    1    2    0  502 -0.14728093882E+03  0.12653547439E+03 -0.74809773200E+03  0.79191630742E+03  0.17256395951E+03 0.  0.
        -24    2    5    5    0    0 -0.12516182158E+03  0.87517362846E+02 -0.71803934893E+03  0.73771976908E+03  0.72973835663E+02 0.  0.
          5    1    3    3  501    0 -0.21437064681E+00  0.29927834413E+02 -0.73255298178E+02  0.79272630451E+02  0.47000000000E+01 0. -1.
        -11    1    4    4    0    0  0.86576821160E+02 -0.13859428687E+03 -0.43201365372E+03  0.46188712833E+03  0.00000000000E+00 0.  1.
         12    1    4    4    0    0  0.60918488304E+02 -0.17869021932E+02 -0.11795208471E+03  0.13395170193E+03  0.00000000000E+00 0. -1.
         -5    1    5    5    0  502 -0.22119117235E+02  0.39018111545E+02 -0.30058383062E+02  0.54196538341E+02  0.47000000000E+01 0.  1.
         11    1    6    6    0    0  0.47866885657E+01  0.11486117235E+02 -0.13437620250E+03  0.13495112846E+03  0.00000000000E+00 0. -1.
        -12    1    6    6    0    0 -0.12994851015E+03  0.76031245611E+02 -0.58366314644E+03  0.60276864061E+03  0.00000000000E+00 0.  1.
</event>
<event>
12    1  0.8461994E-002  0.1956225E+03  0.7818608E-02  0.1154199E+00
         21   -1    0    0  501  502  0.00000000000E+00  0.00000000000E+00  0.15978137042E+03  0.15978137042E+03  0.00000000000E+00 0. -1.
         21   -1    0    0  502  503 -0.00000000000E+00 -0.00000000000E+00 -0.26291852476E+03  0.26291852476E+03  0.00000000000E+00 0.  1.
         -6    2    1    2    0  503 -0.50268707467E+02  0.77804315029E+02  0.16251485854E+02  0.19629635337E+03  0.17230116995E+03 0.  0.
        -24    2    3    3    0    0 -0.34963339696E+02 -0.20525945277E+02  0.40455223532E+02  0.93773159451E+02  0.74249786331E+02 0.  0.
          6    2    1    2  501    0  0.50268707467E+02 -0.77804315029E+02 -0.11938864020E+03  0.22640354180E+03  0.16859555731E+03 0.  0.
         24    2    5    5    0    0  0.44157855555E+02 -0.31224246560E+02 -0.14322405523E+03  0.17351439075E+03  0.81665439553E+02 0.  0.
          5    1    5    5  501    0  0.61108519120E+01 -0.46580068468E+02  0.23835415039E+02  0.52889151059E+02  0.47000000000E+01 0. -1.
        -13    1    6    6    0    0  0.59700597908E+02 -0.43573518464E+02 -0.88518898348E+02  0.11531872470E+03  0.00000000000E+00 0.  1.
         14    1    6    6    0    0 -0.15542742352E+02  0.12349271904E+02 -0.54705156887E+02  0.58195666045E+02  0.00000000000E+00 0. -1.
         -5    1    3    3    0  503 -0.15305367772E+02  0.98330260306E+02 -0.24203737678E+02  0.10252319392E+03  0.47000000000E+01 0.  1.
         11    1    4    4    0    0 -0.22258832824E+02  0.18431747535E+02  0.44001275837E+02  0.52643111906E+02  0.00000000000E+00 0. -1.
        -12    1    4    4    0    0 -0.12704506872E+02 -0.38957692812E+02 -0.35460523050E+01  0.41130047545E+02  0.00000000000E+00 0.  1.
</event>
<event>
12    1  0.8461994E-002  0.1946600E+03  0.7818608E-02  0.1154393E+00
         21   -1    0    0  503  502  0.00000000000E+00  0.00000000000E+00  0.87463290284E+03  0.87463290284E+03  0.00000000000E+00 0.  1.
         21   -1    0    0  501  503 -0.00000000000E+00 -0.00000000000E+00 -0.15995122142E+03  0.15995122142E+03  0.00000000000E+00 0.  1.
          6    2    1    2  501    0 -0.90024296548E+02 -0.21102135168E+02 -0.84428249839E+02  0.21218070018E+03  0.17129753671E+03 0.  0.
         24    2    3    3    0    0 -0.40577401592E+01  0.75273586988E+01 -0.90684427477E+02  0.12123496639E+03  0.80007032844E+02 0.  0.
         -6    2    1    2    0  502  0.90024296548E+02  0.21102135168E+02  0.79910993125E+03  0.82240342408E+03  0.17094161468E+03 0.  0.
        -24    2    5    5    0    0  0.11834161601E+03  0.86844217041E+01  0.44756142324E+03  0.46946644150E+03  0.77507127779E+02 0.  0.
          5    1    3    3  501    0 -0.85966556389E+02 -0.28629493867E+02  0.62561776382E+01  0.90945733793E+02  0.47000000000E+01 0. -1.
        -13    1    4    4    0    0 -0.37303619015E+02 -0.51463547655E+01 -0.21309178671E+02  0.43268072000E+02  0.00000000000E+00 0.  1.
         14    1    4    4    0    0  0.33245878856E+02  0.12673713464E+02 -0.69375248806E+02  0.77966894389E+02  0.00000000000E+00 0. -1.
         -5    1    5    5    0  502 -0.28317319462E+02  0.12417713464E+02  0.35154850801E+03  0.35293698258E+03  0.47000000000E+01 0.  1.
         11    1    6    6    0    0  0.19511135212E+02 -0.21278041902E+02  0.18648820246E+03  0.18870953638E+03  0.00000000000E+00 0. -1.
        -12    1    6    6    0    0  0.98830480798E+02  0.29962463606E+02  0.26107322078E+03  0.28075690511E+03  0.00000000000E+00 0.  1.
</event>
<event>
12    1  0.8461994E-002  0.2126467E+03  0.7818608E-02  0.1140087E+00
         21   -1    0    0  501  502  0.00000000000E+00  0.00000000000E+00  0.47931206183E+02  0.47931206183E+02  0.00000000000E+00 0.  1.
         21   -1    0    0  502  503 -0.00000000000E+00 -0.00000000000E+00 -0.13290479407E+04  0.13290479407E+04  0.00000000000E+00 0.  1.
         -6    2    1    2    0  503  0.11506813759E+03 -0.31281424686E+02 -0.10146139243E+04  0.10360357945E+04  0.17236457936E+03 0.  0.
        -24    2    3    3    0    0  0.47880104780E+02  0.26445919439E+02 -0.76248188345E+03  0.76875441832E+03  0.81319382746E+02 0.  0.
          6    2    1    2  501    0 -0.11506813759E+03  0.31281424686E+02 -0.26650281021E+03  0.34094335241E+03  0.17606651551E+03 0.  0.
         24    2    5    5    0    0 -0.12763749418E+03  0.62891624233E+02 -0.26265456185E+03  0.30638770951E+03  0.68112578572E+02 0.  0.
          5    1    5    5  501    0  0.12569356591E+02 -0.31610199547E+02 -0.38482483592E+01  0.34555642896E+02  0.47000000000E+01 0. -1.
        -11    1    6    6    0    0 -0.40426726889E+02  0.40802390696E+02 -0.15942846210E+03  0.16945969982E+03  0.00000000000E+00 0.  1.
         12    1    6    6    0    0 -0.87210767295E+02  0.22089233537E+02 -0.10322609975E+03  0.13692800970E+03  0.00000000000E+00 0. -1.
         -5    1    3    3    0  503  0.67188032813E+02 -0.57727344125E+02 -0.25213204089E+03  0.26728137619E+03  0.47000000000E+01 0.  1.
         13    1    4    4    0    0  0.50199523344E+02  0.51959109550E+02 -0.54447114668E+03  0.54924363517E+03  0.00000000000E+00 0. -1.
        -14    1    4    4    0    0 -0.23194185634E+01 -0.25513190111E+02 -0.21801073677E+03  0.21951078315E+03  0.00000000000E+00 0.  1.
</event>
<event>
12    1  0.8461994E-002  0.1860129E+03  0.7818608E-02  0.1162695E+00
         21   -1    0    0  501  502  0.00000000000E+00  0.00000000000E+00  0.17333084644E+03  0.17333084644E+03  0.00000000000E+00 0. -1.
         21   -1    0    0  502  503 -0.00000000000E+00 -0.00000000000E+00 -0.62026117191E+03  0.62026117191E+03  0.00000000000E+00 0. -1.
         -6    2    1    2    0  503  0.56090078678E+02  0.36243966009E+02 -0.55078792484E+03  0.58054931964E+03  0.17091065613E+03 0.  0.
        -24    2    3    3    0    0 -0.11945164092E+02 -0.22796854687E+02 -0.19774238190E+03  0.21616235752E+03  0.83436992279E+02 0.  0.
          6    2    1    2  501    0 -0.56090078678E+02 -0.36243966009E+02  0.10385759937E+03  0.21304269871E+03  0.17361183292E+03 0.  0.
         24    2    5    5    0    0 -0.44190987800E+02  0.20086353950E+02  0.12090314183E+03  0.15281534755E+03  0.79866486870E+02 0.  0.
          5    1    5    5  501    0 -0.11899090878E+02 -0.56330319958E+02 -0.17045542460E+02  0.60227351163E+02  0.47000000000E+01 0. -1.
        -11    1    6    6    0    0 -0.34081087032E+02 -0.10923234993E+02  0.99190881840E+01  0.37137930292E+02  0.00000000000E+00 0.  1.
         12    1    6    6    0    0 -0.10109900768E+02  0.31009588943E+02  0.11098405364E+03  0.11567741726E+03  0.00000000000E+00 0. -1.
         -5    1    3    3    0  503  0.68035242770E+02  0.59040820696E+02 -0.35304554295E+03  0.36438696212E+03  0.47000000000E+01 0.  1.
         11    1    4    4    0    0  0.48880269921E+01  0.30402958186E+02 -0.84092383813E+02  0.89553122166E+02  0.00000000000E+00 0. -1.
        -12    1    4    4    0    0 -0.16833191084E+02 -0.53199812874E+02 -0.11364999809E+03  0.12660923535E+03  0.00000000000E+00 0.  1.
</event>
<event>
12    1  0.8461994E-002  0.2109710E+03  0.7818608E-02  0.1140896E+00
         21   -1    0    0  501  502  0.00000000000E+00  0.00000000000E+00  0.75587486775E+03  0.75587486775E+03  0.00000000000E+00 0. -1.
         21   -1    0    0  502  503 -0.00000000000E+00 -0.00000000000E+00 -0.15092609888E+03  0.15092609888E+03  0.00000000000E+00 0. -1.
         -6    2    1    2    0  503  0.11832280885E+03  0.29191790276E+02  0.65667339684E+03  0.68958168751E+03  0.17161149703E+03 0.  0.
        -24    2    3    3    0    0  0.14748969909E+03  0.13948418352E+02  0.60545374533E+03  0.62851933762E+03  0.80712764230E+02 0.  0.
          6    2    1    2  501    0 -0.11832280885E+03 -0.29191790276E+02 -0.51724627969E+02  0.21721927913E+03  0.17221013434E+03 0.  0.
         24    2    5    5    0    0  0.68416022740E+01 -0.33995060641E+02  0.74353146715E+01  0.78614841849E+02  0.70160799490E+02 0.  0.
          5    1    5    5  501    0 -0.12516441113E+03  0.48032703653E+01 -0.59159942641E+02  0.13860443728E+03  0.47000000000E+01 0. -1.
        -13    1    6    6    0    0  0.29615644664E+02  0.66519036245E+01  0.99831056773E+01  0.31953037879E+02  0.00000000000E+00 0.  1.
         14    1    6    6    0    0 -0.22774042390E+02 -0.40646964266E+02 -0.25477910057E+01  0.46661803971E+02  0.00000000000E+00 0. -1.
         -5    1    3    3    0  503 -0.29166890233E+02  0.15243371924E+02  0.51219651510E+02  0.61062349891E+02  0.47000000000E+01 0.  1.
         11    1    4    4    0    0  0.11692232183E+03  0.26744334109E+02  0.33078897395E+03  0.35186280570E+03  0.00000000000E+00 0. -1.
        -12    1    4    4    0    0  0.30567377254E+02 -0.12795915757E+02  0.27466477138E+03  0.27665653191E+03  0.00000000000E+00 0.  1.
</event>
<event>
12    1  0.8461994E-002  0.1994202E+03  0.7818608E-02  0.1150756E+00
         21   -1    0    0  501  502  0.00000000000E+00  0.00000000000E+00  0.32361993580E+03  0.32361993580E+03  0.00000000000E+00 0.  1.
         21   -1    0    0  502  503 -0.00000000000E+00 -0.00000000000E+00 -0.18059448042E+03  0.18059448042E+03  0.00000000000E+00 0. -1.
         -6    2    1    2    0  503 -0.96693199720E+02  0.89436446573E+01 -0.73161330549E+02  0.21009686029E+03  0.17134335926E+03 0.  0.
        -24    2    3    3    0    0 -0.16451488044E+00  0.37882358154E+02 -0.61628695933E+01  0.88993103506E+02  0.80291290845E+02 0.  0.
          6    2    1    2  501    0  0.96693199720E+02 -0.89436446573E+01  0.21618678593E+03  0.29411755593E+03  0.17418050018E+03 0.  0.
         24    2    5    5    0    0 -0.10820352332E+02 -0.96641587658E+01  0.46081233396E+02  0.92827536259E+02  0.79265348214E+02 0.  0.
          5    1    5    5  501    0  0.10751355205E+03  0.72051410850E+00  0.17010555254E+03  0.20129001967E+03  0.47000000000E+01 0. -1.
        -13    1    6    6    0    0  0.10649763176E+02 -0.22226190653E+02  0.59615308829E+02  0.64508961032E+02  0.00000000000E+00 0.  1.
         14    1    6    6    0    0 -0.21470115508E+02  0.12562031888E+02 -0.13534075433E+02  0.28318575227E+02  0.00000000000E+00 0. -1.
         -5    1    3    3    0  503 -0.96528684840E+02 -0.28938713496E+02 -0.66998460955E+02  0.12110375678E+03  0.47000000000E+01 0.  1.
         13    1    4    4    0    0 -0.33897560521E+02  0.15113176885E+02 -0.24378218967E+02  0.44404394883E+02  0.00000000000E+00 0. -1.
        -14    1    4    4    0    0  0.33733045641E+02  0.22769181268E+02  0.18215349374E+02  0.44588708623E+02  0.00000000000E+00 0.  1.
</event>
<event>
12    1  0.8461994E-002  0.4013351E+03  0.7818608E-02  0.1043319E+00
         21   -1    0    0  501  502  0.00000000000E+00  0.00000000000E+00  0.12529091767E+03  0.12529091767E+03  0.00000000000E+00 0.  1.
         21   -1    0    0  502  503 -0.00000000000E+00 -0.00000000000E+00 -0.13444473226E+04  0.13444473226E+04  0.00000000000E+00 0. -1.
         -6    2    1    2    0  503  0.33424128082E+03  0.14030648924E+03 -0.45573215983E+03  0.60724972229E+03  0.17221288858E+03 0.  0.
        -24    2    3    3    0    0  0.27819555927E+03  0.14038456197E+03 -0.29286366458E+03  0.43494369876E+03  0.79412219623E+02 0.  0.
          6    2    1    2  501    0 -0.33424128082E+03 -0.14030648924E+03 -0.76342424508E+03  0.86248851796E+03  0.17224029987E+03 0.  0.
         24    2    5    5    0    0 -0.20095212751E+03 -0.13965515939E+03 -0.40462023554E+03  0.47969767443E+03  0.80665995024E+02 0.  0.
          5    1    5    5  501    0 -0.13328915332E+03 -0.65132985231E+00 -0.35880400955E+03  0.38279084353E+03  0.47000000000E+01 0. -1.
        -11    1    6    6    0    0 -0.20025604926E+03 -0.11394356392E+03 -0.37797620185E+03  0.44266424091E+03  0.00000000000E+00 0.  1.
         12    1    6    6    0    0 -0.69607825095E+00 -0.25711595471E+02 -0.26644033690E+02  0.37033433514E+02  0.00000000000E+00 0. -1.
         -5    1    3    3    0  503  0.56045721555E+02 -0.78072728612E-01 -0.16286849525E+03  0.17230602353E+03  0.47000000000E+01 0. -1.
         13    1    4    4    0    0  0.25802896540E+03  0.15034294303E+03 -0.27786173406E+03  0.40790818914E+03  0.00000000000E+00 0. -1.
        -14    1    4    4    0    0  0.20166593867E+02 -0.99583810633E+01 -0.15001930515E+02  0.27035509627E+02  0.00000000000E+00 0.  1.
</event>
<event>
12    1  0.8461994E-002  0.1899866E+03  0.7818608E-02  0.1158781E+00
         21   -1    0    0  501  502  0.00000000000E+00  0.00000000000E+00  0.55322816236E+03  0.55322816236E+03  0.00000000000E+00 0.  1.
         21   -1    0    0  502  503 -0.00000000000E+00 -0.00000000000E+00 -0.84239897898E+02  0.84239897898E+02  0.00000000000E+00 0.  1.
         -6    2    1    2    0  503  0.65828567905E+02 -0.50622681269E+02  0.80646906856E+02  0.20514418182E+03  0.16936397356E+03 0.  0.
        -24    2    3    3    0    0  0.43266530564E+02 -0.57122691427E+02 -0.14638382670E+02  0.10689616881E+03  0.77958412734E+02 0.  0.
          6    2    1    2  501    0 -0.65828567905E+02  0.50622681269E+02  0.38834135761E+03  0.43232387844E+03  0.17087676737E+03 0.  0.
         24    2    5    5    0    0 -0.64844791740E+02 -0.19195553792E+02  0.14705158580E+03  0.18109012724E+03  0.81216679294E+02 0.  0.
          5    1    5    5  501    0 -0.98377616508E+00  0.69818235061E+02  0.24128977181E+03  0.25123375120E+03  0.47000000000E+01 0. -1.
        -13    1    6    6    0    0 -0.23033432583E+02  0.28926903563E+02  0.82291681775E+02  0.90217657117E+02  0.00000000000E+00 0.  1.
         14    1    6    6    0    0 -0.41811359158E+02 -0.48122457355E+02  0.64759904022E+02  0.90872470119E+02  0.00000000000E+00 0. -1.
         -5    1    3    3    0  503  0.22562037341E+02  0.65000101575E+01  0.95285289525E+02  0.98248013013E+02  0.47000000000E+01 0.  1.
         13    1    4    4    0    0  0.19268296485E+02 -0.27360108950E+01 -0.38262890279E+02  0.42927867144E+02  0.00000000000E+00 0. -1.
        -14    1    4    4    0    0  0.23998234079E+02 -0.54386680532E+02  0.23624507609E+02  0.63968301665E+02  0.00000000000E+00 0.  1.
</event>
<event>
12    1  0.8461994E-002  0.1737266E+03  0.7818608E-02  0.1174664E+00
         21   -1    0    0  501  502  0.00000000000E+00  0.00000000000E+00  0.36951913000E+03  0.36951913000E+03  0.00000000000E+00 0.  1.
         21   -1    0    0  502  503 -0.00000000000E+00 -0.00000000000E+00 -0.94643220599E+02  0.94643220599E+02  0.00000000000E+00 0.  1.
         -6    2    1    2    0  503  0.69844638083E+01  0.15844006995E+01  0.22632982506E+03  0.28378036499E+03  0.17104038349E+03 0.  0.
        -24    2    3    3    0    0  0.16640930490E+02  0.63846591277E+02  0.10543696162E+03  0.14737287930E+03  0.79047485042E+02 0.  0.
          6    2    1    2  501    0 -0.69844638083E+01 -0.15844006995E+01  0.48546084348E+02  0.18038198561E+03  0.17357893123E+03 0.  0.
         24    2    5    5    0    0 -0.23816058090E+02  0.54640346198E+02 -0.76203253888E+01  0.99010735696E+02  0.78691069178E+02 0.  0.
          5    1    5    5  501    0  0.16831594281E+02 -0.56224746897E+02  0.56166409736E+02  0.81371249913E+02  0.47000000000E+01 0. -1.
        -11    1    6    6    0    0 -0.28546876472E+02 -0.12514530060E+02 -0.55350849649E+01  0.31657144288E+02  0.00000000000E+00 0.  1.
         12    1    6    6    0    0  0.47308183820E+01  0.67154876258E+02 -0.20852404239E+01  0.67353591407E+02  0.00000000000E+00 0. -1.
         -5    1    3    3    0  503 -0.96564666822E+01 -0.62262190577E+02  0.12089286343E+03  0.13640748570E+03  0.47000000000E+01 0.  1.
         13    1    4    4    0    0  0.11501703465E+02  0.31935403641E+02 -0.31386633631E+01  0.34088273585E+02  0.00000000000E+00 0. -1.
        -14    1    4    4    0    0  0.51392270259E+01  0.31911187636E+02  0.10857562499E+03  0.11328460571E+03  0.00000000000E+00 0.  1.
</event>
<event>
12    1  0.8461994E-002  0.1841696E+03  0.7818608E-02  0.1164386E+00
         21   -1    0    0  503  502  0.00000000000E+00  0.00000000000E+00  0.10857872071E+03  0.10857872071E+03  0.00000000000E+00 0.  1.
         21   -1    0    0  501  503 -0.00000000000E+00 -0.00000000000E+00 -0.34679191173E+03  0.34679191173E+03  0.00000000000E+00 0.  1.
          6    2    1    2  501    0 -0.60336818425E+02  0.10250070232E+02 -0.19554935589E+03  0.26862237299E+03  0.17370329037E+03 0.  0.
         24    2    3    3    0    0 -0.68468599078E+02 -0.49861591628E+02 -0.92962604169E+02  0.14935096243E+03  0.80557661496E+02 0.  0.
         -6    2    1    2    0  502  0.60336818425E+02 -0.10250070232E+02 -0.42663835133E+02  0.18674825945E+03  0.17119904784E+03 0.  0.
        -24    2    5    5    0    0  0.49879230037E+02  0.30443540176E+02 -0.80900700697E+02  0.12974405811E+03  0.82908687802E+02 0.  0.
          5    1    3    3  501    0  0.81317806534E+01  0.60111661860E+02 -0.10258675172E+03  0.11927141056E+03  0.47000000000E+01 0. -1.
        -13    1    4    4    0    0 -0.58916773472E+02 -0.10328088427E+02 -0.15390440131E+02  0.61763429749E+02  0.00000000000E+00 0.  1.
         14    1    4    4    0    0 -0.95518256061E+01 -0.39533503201E+02 -0.77572164038E+02  0.87587532682E+02  0.00000000000E+00 0. -1.
         -5    1    5    5    0  502  0.10457588388E+02 -0.40693610407E+02  0.38236865565E+02  0.57004201346E+02  0.47000000000E+01 0.  1.
         11    1    6    6    0    0  0.56132844068E+02  0.15687564790E+02 -0.92937176014E+02  0.10970102350E+03  0.00000000000E+00 0. -1.
        -12    1    6    6    0    0 -0.62536140316E+01  0.14755975386E+02  0.12036475317E+02  0.20043034603E+02  0.00000000000E+00 0.  1.
</event>
<event>
12    1  0.8461994E-002  0.2380632E+03  0.7818608E-02  0.1121209E+00
         21   -1    0    0  503  502  0.00000000000E+00  0.00000000000E+00  0.43556244289E+03  0.43556244289E+03  0.00000000000E+00 0.  1.
         21   -1    0    0  501  503 -0.00000000000E+00 -0.00000000000E+00 -0.14575103835E+03  0.14575103835E+03  0.00000000000E+00 0. -1.
          6    2    1    2  501    0 -0.62182271021E+02 -0.15082496951E+03  0.48347831628E+02  0.24222833393E+03  0.17240141147E+03 0.  0.
         24    2    3    3    0    0 -0.39924764340E+01 -0.55672039407E+01  0.22636790061E+02  0.83580868426E+02  0.80164853114E+02 0.  0.
         -6    2    1    2    0  502  0.62182271021E+02  0.15082496951E+03  0.24146357291E+03  0.33908514730E+03  0.17337610510E+03 0.  0.
        -24    2    5    5    0    0 -0.11387701882E+02  0.55527083585E+02  0.17793930665E+03  0.20288070399E+03  0.79279546119E+02 0.  0.
          5    1    3    3  501    0 -0.58189794587E+02 -0.14525776557E+03  0.25711041566E+02  0.15864746551E+03  0.47000000000E+01 0. -1.
        -13    1    4    4    0    0 -0.37080637613E+02  0.15370396175E+02  0.18527458270E+02  0.44209608393E+02  0.00000000000E+00 0.  1.
         14    1    4    4    0    0  0.33088161179E+02 -0.20937600116E+02  0.41093317918E+01  0.39371260033E+02  0.00000000000E+00 0. -1.
         -5    1    5    5    0  502  0.73569972903E+02  0.95297885927E+02  0.63524266261E+02  0.13620444332E+03  0.47000000000E+01 0.  1.
         11    1    6    6    0    0 -0.21808689592E+02 -0.64590203988E+01  0.12611576780E+02  0.26007494211E+02  0.00000000000E+00 0. -1.
        -12    1    6    6    0    0  0.10420987710E+02  0.61986103984E+02  0.16532772987E+03  0.17687320978E+03  0.00000000000E+00 0.  1.
</event>
<event>
12    1  0.8461994E-002  0.2127785E+03  0.7818608E-02  0.1139538E+00
         21   -1    0    0  503  502  0.00000000000E+00  0.00000000000E+00  0.13258125360E+04  0.13258125360E+04  0.00000000000E+00 0. -1.
         21   -1    0    0  501  503 -0.00000000000E+00 -0.00000000000E+00 -0.34183685060E+02  0.34183685060E+02  0.00000000000E+00 0.  1.
          6    2    1    2  501    0 -0.31447124792E+02  0.12379328289E+03  0.60032569508E+03  0.63691884992E+03  0.17017926626E+03 0.  0.
         24    2    3    3    0    0 -0.24907123331E+02  0.69726889598E+02  0.15334467388E+03  0.18660776876E+03  0.76326053408E+02 0.  0.
         -6    2    1    2    0  502  0.31447124792E+02 -0.12379328289E+03  0.69130315589E+03  0.72307737117E+03  0.16919554606E+03 0.  0.
        -24    2    5    5    0    0  0.42753199424E+02 -0.14736685391E+03  0.54270746599E+03  0.57212602261E+03  0.96187142675E+02 0.  0.
          5    1    3    3  501    0 -0.65400014606E+01  0.54066393293E+02  0.44698102120E+03  0.45031108116E+03  0.47000000000E+01 0. -1.
        -13    1    4    4    0    0 -0.22160203211E+02  0.63073102477E+02  0.16205790597E+03  0.17530560673E+03  0.00000000000E+00 0.  1.
         14    1    4    4    0    0 -0.27469201196E+01  0.66537871216E+01 -0.87132320897E+01  0.11302162034E+02  0.00000000000E+00 0. -1.
         -5    1    5    5    0  502 -0.11306074633E+02  0.23573571018E+02  0.14859568990E+03  0.15095134856E+03  0.47000000000E+01 0.  1.
         11    1    6    6    0    0  0.18055438601E+02 -0.74373411600E+02  0.42224678319E+03  0.42912672852E+03  0.00000000000E+00 0. -1.
        -12    1    6    6    0    0  0.24697760823E+02 -0.72993442310E+02  0.12046068280E+03  0.14299929409E+03  0.00000000000E+00 0.  1.
</event>
<event>
12    1  0.8461994E-002  0.1760339E+03  0.7818608E-02  0.1171763E+00
         21   -1    0    0  501  502  0.00000000000E+00  0.00000000000E+00  0.19317442774E+03  0.19317442774E+03  0.00000000000E+00 0.  1.
         21   -1    0    0  502  503 -0.00000000000E+00 -0.00000000000E+00 -0.22573859864E+03  0.22573859864E+03  0.00000000000E+00 0.  1.
         -6    2    1    2    0  503  0.44772429757E+01 -0.38264456847E+02  0.96590726068E+02  0.20079271302E+03  0.17176650103E+03 0.  0.
        -24    2    3    3    0    0  0.30879841994E+02  0.28211748773E+02  0.14086940446E+02  0.91498853217E+02  0.80150675845E+02 0.  0.
          6    2    1    2  501    0 -0.44772429757E+01  0.38264456847E+02 -0.12915489697E+03  0.21812031337E+03  0.17149714088E+03 0.  0.
         24    2    5    5    0    0 -0.24694344008E+02  0.55170884185E+02 -0.16413053337E+02  0.10224377664E+03  0.80813145299E+02 0.  0.
          5    1    5    5  501    0  0.20217101032E+02 -0.16906427338E+02 -0.11274184363E+03  0.11587653673E+03  0.47000000000E+01 0. -1.
        -13    1    6    6    0    0  0.26853900263E+02  0.37141444648E+02 -0.25606072455E+01  0.45903982173E+02  0.00000000000E+00 0.  1.
         14    1    6    6    0    0 -0.51548244271E+02  0.18029439537E+02 -0.13852446091E+02  0.56339794463E+02  0.00000000000E+00 0. -1.
         -5    1    3    3    0  503 -0.26402599018E+02 -0.66476205620E+02  0.82503785622E+02  0.10929385980E+03  0.47000000000E+01 0.  1.
         13    1    4    4    0    0  0.21079710173E+02  0.11886407058E+02 -0.32876119300E+02  0.40822543697E+02  0.00000000000E+00 0. -1.
        -14    1    4    4    0    0  0.98001318213E+01  0.16325341715E+02  0.46963059746E+02  0.50676309520E+02  0.00000000000E+00 0.  1.
</event>
<event>
12    1  0.8461994E-002  0.1770229E+03  0.7818608E-02  0.1170881E+00
         21   -1    0    0  503  502  0.00000000000E+00  0.00000000000E+00  0.50481992605E+03  0.50481992605E+03  0.00000000000E+00 0.  1.
         21   -1    0    0  501  503 -0.00000000000E+00 -0.00000000000E+00 -0.61864362351E+02  0.61864362351E+02  0.00000000000E+00 0.  1.
          6    2    1    2  501    0  0.15061476025E-02  0.41490686832E+02  0.21652477699E+03  0.27967854763E+03  0.17209193432E+03 0.  0.
         24    2    3    3    0    0  0.28140523762E+02  0.55538189258E+02  0.22576490575E+03  0.24656349643E+03  0.77119294322E+02 0.  0.
         -6    2    1    2    0  502 -0.15061476025E-02 -0.41490686832E+02  0.22643078671E+03  0.28700574077E+03  0.17140570868E+03 0.  0.
        -24    2    5    5    0    0 -0.56432955701E+02 -0.52259558011E+02  0.19056027703E+03  0.21911420558E+03  0.76039963278E+02 0.  0.
          5    1    3    3  501    0 -0.28139017615E+02 -0.14047502425E+02 -0.92401287627E+01  0.33115051204E+02  0.47000000000E+01 0. -1.
        -13    1    4    4    0    0 -0.15310183329E+02  0.53268357536E+02  0.13380152417E+03  0.14482668089E+03  0.00000000000E+00 0.  1.
         14    1    4    4    0    0  0.43450707091E+02  0.22698317214E+01  0.91963381583E+02  0.10173681553E+03  0.00000000000E+00 0. -1.
         -5    1    5    5    0  502  0.56431449553E+02  0.10768871179E+02  0.35870509682E+02  0.67891535186E+02  0.47000000000E+01 0.  1.
         11    1    6    6    0    0 -0.33218778210E+02  0.14475015371E+02  0.49478953223E+02  0.61328460830E+02  0.00000000000E+00 0. -1.
        -12    1    6    6    0    0 -0.23214177491E+02 -0.66734573382E+02  0.14108132380E+03  0.15778574475E+03  0.00000000000E+00 0.  1.
</event>
<event>
12    1  0.8461994E-002  0.1873107E+03  0.7818608E-02  0.1161052E+00
         21   -1    0    0  503  502  0.00000000000E+00  0.00000000000E+00  0.79902277865E+02  0.79902277865E+02  0.00000000000E+00 0.  1.
         21   -1    0    0  501  503 -0.00000000000E+00 -0.00000000000E+00 -0.65794651180E+03  0.65794651180E+03  0.00000000000E+00 0.  1.
          6    2    1    2  501    0 -0.69804514240E+02 -0.25033405719E+02 -0.50217749217E+03  0.53575703453E+03  0.17133016313E+03 0.  0.
         24    2    3    3    0    0 -0.99333678973E+02  0.31052712894E+02 -0.26182928098E+03  0.28714694444E+03  0.55383612814E+02 0.  0.
         -6    2    1    2    0  502  0.69804514240E+02  0.25033405719E+02 -0.75866741768E+02  0.20209175514E+03  0.17200573647E+03 0.  0.
        -24    2    5    5    0    0  0.22507038352E+02 -0.34597722780E+01 -0.10871720405E+03  0.13767005623E+03  0.81333124406E+02 0.  0.
          5    1    3    3  501    0  0.29529164733E+02 -0.56086118613E+02 -0.24034821119E+03  0.24861009009E+03  0.47000000000E+01 0. -1.
        -11    1    4    4    0    0 -0.45202531748E+02  0.18645014285E+01 -0.17494302260E+03  0.18069810845E+03  0.00000000000E+00 0.  1.
         12    1    4    4    0    0 -0.54131147224E+02  0.29188211466E+02 -0.86886258377E+02  0.10644883599E+03  0.00000000000E+00 0. -1.
         -5    1    5    5    0  502  0.47297475888E+02  0.28493177997E+02  0.32850462286E+02  0.64421698907E+02  0.47000000000E+01 0.  1.
         11    1    6    6    0    0 -0.28998143721E+02 -0.61271743668E+01 -0.59040858784E+02  0.66062528039E+02  0.00000000000E+00 0. -1.
        -12    1    6    6    0    0  0.51505182073E+02  0.26674020888E+01 -0.49676345270E+02  0.71607528191E+02  0.00000000000E+00 0.  1.
</event>
<event>
12    1  0.8461994E-002  0.1962666E+03  0.7818608E-02  0.1152964E+00
         21   -1    0    0  501  502  0.00000000000E+00  0.00000000000E+00  0.25390943409E+03  0.25390943409E+03  0.00000000000E+00 0.  1.
         21   -1    0    0  502  503 -0.00000000000E+00 -0.00000000000E+00 -0.54057117172E+03  0.54057117172E+03  0.00000000000E+00 0.  1.
         -6    2    1    2    0  503 -0.94380977144E+01  0.93985857338E+02 -0.48028829267E+03  0.51877821490E+03  0.17184752867E+03 0.  0.
        -24    2    3    3    0    0 -0.12097284419E+02  0.47071896953E+02 -0.10118678513E+03  0.13674675812E+03  0.78094830799E+02 0.  0.
          6    2    1    2  501    0  0.94380977144E+01 -0.93985857338E+02  0.19362655504E+03  0.27570239091E+03  0.17204111853E+03 0.  0.
         24    2    5    5    0    0  0.56757549447E+02 -0.95070720983E+02  0.18181527683E+03  0.22669316999E+03  0.77930334434E+02 0.  0.
          5    1    5    5  501    0 -0.47319451733E+02  0.10848636452E+01  0.11811278209E+02  0.49009220911E+02  0.47000000000E+01 0. -1.
        -11    1    6    6    0    0 -0.14190511008E+02 -0.48071396554E+02  0.73000850324E+02  0.88551419624E+02  0.00000000000E+00 0.  1.
         12    1    6    6    0    0  0.70948060455E+02 -0.46999324429E+02  0.10881442651E+03  0.13814175037E+03  0.00000000000E+00 0. -1.
         -5    1    3    3    0  503  0.26591867044E+01  0.46913960385E+02 -0.37910150754E+03  0.38203145678E+03  0.47000000000E+01 0.  1.
         13    1    4    4    0    0  0.27347323468E+02  0.13780311364E+02 -0.70088488703E+02  0.76486399646E+02  0.00000000000E+00 0. -1.
        -14    1    4    4    0    0 -0.39444607887E+02  0.33291585589E+02 -0.31098296426E+02  0.60260358470E+02  0.00000000000E+00 0.  1.
</event>
<event>
12    1  0.8461994E-002  0.2017268E+03  0.7818608E-02  0.1149612E+00
         21   -1    0    0  501  502  0.00000000000E+00  0.00000000000E+00  0.28502392613E+03  0.28502392613E+03  0.00000000000E+00 0. -1.
         21   -1    0    0  502  503 -0.00000000000E+00 -0.00000000000E+00 -0.18575736472E+03  0.18575736472E+03  0.00000000000E+00 0. -1.
         -6    2    1    2    0  503 -0.81675593855E+02  0.51988745093E+02 -0.69790786166E+02  0.20758154040E+03  0.16983995359E+03 0.  0.
        -24    2    3    3    0    0 -0.45551068885E+02 -0.11059504813E+02 -0.95136037119E+02  0.13048073064E+03  0.76007519274E+02 0.  0.
          6    2    1    2  501    0  0.81675593855E+02 -0.51988745093E+02  0.16905734757E+03  0.26319975044E+03  0.17697454511E+03 0.  0.
         24    2    5    5    0    0 -0.31956494349E+01  0.18226982981E+02  0.11712255720E+03  0.14132814236E+03  0.76899384477E+02 0.  0.
          5    1    5    5  501    0  0.84871243290E+02 -0.70215728074E+02  0.51934790370E+02  0.12187160809E+03  0.47000000000E+01 0. -1.
        -11    1    6    6    0    0  0.62558584119E+01  0.46083671032E+02  0.51364677095E+02  0.69290479529E+02  0.00000000000E+00 0.  1.
         12    1    6    6    0    0 -0.94515078468E+01 -0.27856688051E+02  0.65757880105E+02  0.72037662828E+02  0.00000000000E+00 0. -1.
         -5    1    3    3    0  503 -0.36124524970E+02  0.63048249906E+02  0.25345250953E+02  0.77100809765E+02  0.47000000000E+01 0.  1.
         11    1    4    4    0    0 -0.30770573966E+02  0.27958942486E+02 -0.71003833946E+02  0.82280466225E+02  0.00000000000E+00 0. -1.
        -12    1    4    4    0    0 -0.14780494919E+02 -0.39018447299E+02 -0.24132203173E+02  0.48200264415E+02  0.00000000000E+00 0.  1.
</event>
<event>
12    1  0.8461994E-002  0.1962336E+03  0.7818608E-02  0.1154540E+00
         21   -1    0    0  503  502  0.00000000000E+00  0.00000000000E+00  0.10638742382E+03  0.10638742382E+03  0.00000000000E+00 0.  1.
         21   -1    0    0  501  503 -0.00000000000E+00 -0.00000000000E+00 -0.55504612707E+03  0.55504612707E+03  0.00000000000E+00 0.  1.
          6    2    1    2  501    0 -0.85049480145E+02 -0.42131826367E+02 -0.42326147946E+03  0.46356330766E+03  0.16349971053E+03 0.  0.
         24    2    3    3    0    0 -0.29634012588E+02 -0.45725956416E+02 -0.38300020912E+03  0.39481120438E+03  0.78852324816E+02 0.  0.
         -6    2    1    2    0  502  0.85049480145E+02  0.42131826367E+02 -0.25397223792E+02  0.19787024323E+03  0.17175304747E+03 0.  0.
        -24    2    5    5    0    0  0.93225049480E+02  0.75714717409E+02  0.14767993078E+02  0.14467263848E+03  0.79299750462E+02 0.  0.
          5    1    3    3  501    0 -0.55415467557E+02  0.35941300489E+01 -0.40261270347E+02  0.68752103279E+02  0.47000000000E+01 0. -1.
        -11    1    4    4    0    0 -0.46854386856E+01 -0.64259229108E+02 -0.24235950294E+03  0.25077745219E+03  0.00000000000E+00 0.  1.
         12    1    4    4    0    0 -0.24948573903E+02  0.18533272692E+02 -0.14064070618E+03  0.14403375219E+03  0.00000000000E+00 0. -1.
         -5    1    5    5    0  502 -0.81755693349E+01 -0.33582891042E+02 -0.40165216870E+02  0.53197604748E+02  0.47000000000E+01 0.  1.
         11    1    6    6    0    0  0.68978800769E+02  0.15614902692E+02  0.31981622448E+02  0.77619097625E+02  0.00000000000E+00 0. -1.
        -12    1    6    6    0    0  0.24246248711E+02  0.60099814717E+02 -0.17213629370E+02  0.67053540858E+02  0.00000000000E+00 0.  1.
</event>
<event>
12    1  0.8461994E-002  0.2366015E+03  0.7818608E-02  0.1122203E+00
         21   -1    0    0  501  502  0.00000000000E+00  0.00000000000E+00  0.20321208635E+03  0.20321208635E+03  0.00000000000E+00 0. -1.
         21   -1    0    0  502  503 -0.00000000000E+00 -0.00000000000E+00 -0.30065730132E+03  0.30065730132E+03  0.00000000000E+00 0.  1.
         -6    2    1    2    0  503  0.12473296765E+03  0.10464018497E+03 -0.12293545431E+03  0.26663343368E+03  0.17167521807E+03 0.  0.
        -24    2    3    3    0    0  0.81235759448E+01  0.77697381253E+02 -0.86284300457E+02  0.14137744786E+03  0.80247907867E+02 0.  0.
          6    2    1    2  501    0 -0.12473296765E+03 -0.10464018497E+03  0.25490239342E+02  0.23723595399E+03  0.17065539556E+03 0.  0.
         24    2    5    5    0    0 -0.11730661950E+03 -0.11594755450E+03  0.65509805033E+02  0.19473109673E+03  0.80149779188E+02 0.  0.
          5    1    5    5  501    0 -0.74263481501E+01  0.11307369534E+02 -0.40019565691E+02  0.42504857260E+02  0.47000000000E+01 0. -1.
        -13    1    6    6    0    0 -0.28713966043E+02  0.77514334140E+01  0.18516419492E+01  0.29799415159E+02  0.00000000000E+00 0.  1.
         14    1    6    6    0    0 -0.88592653456E+02 -0.12369898791E+03  0.63658163084E+02  0.16493168157E+03  0.00000000000E+00 0. -1.
         -5    1    3    3    0  503  0.11660939170E+03  0.26942803713E+02 -0.36651153852E+02  0.12525598582E+03  0.47000000000E+01 0.  1.
         11    1    4    4    0    0 -0.14766663127E+02  0.53620089973E+02 -0.78116026698E+01  0.56162171654E+02  0.00000000000E+00 0. -1.
        -12    1    4    4    0    0  0.22890239071E+02  0.24077291280E+02 -0.78472697787E+02  0.85215276202E+02  0.00000000000E+00 0.  1.
</event>
<event>
12    1  0.8461994E-002  0.1768754E+03  0.7818608E-02  0.1171182E+00
         21   -1    0    0  503  502  0.00000000000E+00  0.00000000000E+00  0.83868436742E+03  0.83868436742E+03  0.00000000000E+00 0.  1.
         21   -1    0    0  501  503 -0.00000000000E+00 -0.00000000000E+00 -0.83621008762E+02  0.83621008762E+02  0.00000000000E+00 0. -1.
          6    2    1    2  501    0  0.99819185985E+01 -0.24432524987E+02  0.33926264517E+02  0.18009969807E+03  0.17489517673E+03 0.  0.
         24    2    3    3    0    0  0.46390682092E+02  0.32813398958E+02 -0.10275996577E+02  0.98990982427E+02  0.80404004628E+02 0.  0.
         -6    2    1    2    0  502 -0.99819185985E+01  0.24432524987E+02  0.72113709414E+03  0.74220567811E+03  0.17359139696E+03 0.  0.
        -24    2    5    5    0    0  0.50550971200E+02 -0.27710093921E+02  0.29965075889E+03  0.31318830754E+03  0.70520129595E+02 0.  0.
          5    1    3    3  501    0 -0.36408763494E+02 -0.57245923944E+02  0.44202261094E+02  0.81108715643E+02  0.47000000000E+01 0. -1.
        -13    1    4    4    0    0  0.32438712177E+02 -0.22533287337E+02  0.52358492147E+01  0.39842605373E+02  0.00000000000E+00 0.  1.
         14    1    4    4    0    0  0.13951969916E+02  0.55346686295E+02 -0.15511845792E+02  0.59148377055E+02  0.00000000000E+00 0. -1.
         -5    1    5    5    0  502 -0.60532889798E+02  0.52142618907E+02  0.42148633524E+03  0.42901737057E+03  0.47000000000E+01 0.  1.
         13    1    6    6    0    0  0.57539192893E+02 -0.19567601670E+02  0.13340393343E+03  0.14659556340E+03  0.00000000000E+00 0. -1.
        -14    1    6    6    0    0 -0.69882216933E+01 -0.81424922502E+01  0.16624682546E+03  0.16659274414E+03  0.00000000000E+00 0.  1.
</event>
<event>
12    1  0.8461994E-002  0.1853159E+03  0.7818608E-02  0.1162882E+00
         21   -1    0    0  503  502  0.00000000000E+00  0.00000000000E+00  0.45402871403E+03  0.45402871403E+03  0.00000000000E+00 0.  1.
         21   -1    0    0  501  503 -0.00000000000E+00 -0.00000000000E+00 -0.11434039598E+03  0.11434039598E+03  0.00000000000E+00 0.  1.
          6    2    1    2  501    0  0.65409643954E+02  0.25194843462E+02  0.42010602185E+01  0.18536350792E+03  0.17154818420E+03 0.  0.
         24    2    3    3    0    0  0.28094353742E+01  0.72720895432E+02 -0.15066097655E+01  0.10641935534E+03  0.77631100454E+02 0.  0.
         -6    2    1    2    0  502 -0.65409643954E+02 -0.25194843462E+02  0.33548725784E+03  0.38300560209E+03  0.17096312293E+03 0.  0.
        -24    2    5    5    0    0 -0.89718001697E+02 -0.29396099570E+02  0.33501350924E+03  0.35788865071E+03  0.83287360598E+02 0.  0.
          5    1    3    3  501    0  0.62600208580E+02 -0.47526051970E+02  0.57076699841E+01  0.78944152581E+02  0.47000000000E+01 0. -1.
        -13    1    4    4    0    0  0.22197082214E+02  0.75153755131E+02 -0.18507357867E+02  0.80519063980E+02  0.00000000000E+00 0.  1.
         14    1    4    4    0    0 -0.19387646840E+02 -0.24328596989E+01  0.17000748101E+02  0.25900291356E+02  0.00000000000E+00 0. -1.
         -5    1    5    5    0  502  0.24308357743E+02  0.42012561076E+01  0.47374859864E+00  0.25116951383E+02  0.47000000000E+01 0.  1.
         11    1    6    6    0    0 -0.57983003588E+02  0.81994295100E+01  0.85890610495E+02  0.10395410680E+03  0.00000000000E+00 0. -1.
        -12    1    6    6    0    0 -0.31734998108E+02 -0.37595529080E+02  0.24912289874E+03  0.25393454391E+03  0.00000000000E+00 0.  1.
</event>
<event>
12    1  0.8461994E-002  0.2572438E+03  0.7818608E-02  0.1109021E+00
         21   -1    0    0  501  502  0.00000000000E+00  0.00000000000E+00  0.17537783997E+03  0.17537783997E+03  0.00000000000E+00 0.  1.
         21   -1    0    0  502  503 -0.00000000000E+00 -0.00000000000E+00 -0.40437716330E+03  0.40437716330E+03  0.00000000000E+00 0. -1.
         -6    2    1    2    0  503 -0.18688958986E+03  0.29140693330E+02 -0.19250031984E+03  0.32129538378E+03  0.17434864982E+03 0.  0.
        -24    2    3    3    0    0 -0.17281712974E+03  0.15558380003E+02 -0.78739095768E+02  0.20576954480E+03  0.77675200975E+02 0.  0.
          6    2    1    2  501    0  0.18688958986E+03 -0.29140693330E+02 -0.36499003486E+02  0.25845961948E+03  0.17231453462E+03 0.  0.
         24    2    5    5    0    0  0.72415377055E+02 -0.66949859403E+02  0.11599302198E+02  0.12857730565E+03  0.81678082789E+02 0.  0.
          5    1    5    5  501    0  0.11447421281E+03  0.37809166073E+02 -0.48098305684E+02  0.12988231383E+03  0.47000000000E+01 0. -1.
        -11    1    6    6    0    0  0.36136929095E+02  0.10542849497E+02 -0.12533064206E+02  0.39675017559E+02  0.00000000000E+00 0.  1.
         12    1    6    6    0    0  0.36278447961E+02 -0.77492708900E+02  0.24132366404E+02  0.88902288089E+02  0.00000000000E+00 0. -1.
         -5    1    3    3    0  503 -0.14072460124E+02  0.13582313327E+02 -0.11376122407E+03  0.11552583898E+03  0.47000000000E+01 0.  1.
         11    1    4    4    0    0 -0.83446332534E+02  0.28681257263E+02 -0.36623670357E+01  0.88313746743E+02  0.00000000000E+00 0. -1.
        -12    1    4    4    0    0 -0.89370797206E+02 -0.13122877260E+02 -0.75076728732E+02  0.11745579806E+03  0.00000000000E+00 0.  1.
</event>
<event>
12    1  0.8461994E-002  0.2133924E+03  0.7818608E-02  0.1139086E+00
         21   -1    0    0  503  502  0.00000000000E+00  0.00000000000E+00  0.17201882931E+03  0.17201882931E+03  0.00000000000E+00 0.  1.
         21   -1    0    0  501  503 -0.00000000000E+00 -0.00000000000E+00 -0.32181762270E+03  0.32181762270E+03  0.00000000000E+00 0. -1.
          6    2    1    2  501    0  0.11200565268E+03 -0.57322806523E+02 -0.18007218082E+03  0.27921732882E+03  0.17235183790E+03 0.  0.
         24    2    3    3    0    0  0.28496063333E+02 -0.83405547064E+02 -0.13764744717E+03  0.18187202132E+03  0.79762782802E+02 0.  0.
         -6    2    1    2    0  502 -0.11200565268E+03  0.57322806523E+02  0.30273387441E+02  0.21461912318E+03  0.17121249858E+03 0.  0.
        -24    2    5    5    0    0 -0.34428360376E+02 -0.19268108873E+02 -0.23406332610E+02  0.93013173710E+02  0.80913670413E+02 0.  0.
          5    1    3    3  501    0  0.83509589350E+02  0.26082740541E+02 -0.42424733655E+02  0.97345307505E+02  0.47000000000E+01 0. -1.
        -11    1    4    4    0    0  0.23867383607E+02  0.83400191109E+01 -0.18039836357E+02  0.31058712381E+02  0.00000000000E+00 0.  1.
         12    1    4    4    0    0  0.46286797261E+01 -0.91745566175E+02 -0.11960761081E+03  0.15081330894E+03  0.00000000000E+00 0. -1.
         -5    1    5    5    0  502 -0.77577292306E+02  0.76590915395E+02  0.53679720051E+02  0.12160594947E+03  0.47000000000E+01 0.  1.
         11    1    6    6    0    0  0.18890780790E+02 -0.15859851819E+02  0.13461055050E+02  0.28099759814E+02  0.00000000000E+00 0. -1.
        -12    1    6    6    0    0 -0.53319141166E+02 -0.34082570540E+01 -0.36867387659E+02  0.64913413896E+02  0.00000000000E+00 0.  1.
</event>
<event>
12    1  0.8461994E-002  0.1960691E+03  0.7818608E-02  0.1154317E+00
         21   -1    0    0  501  502  0.00000000000E+00  0.00000000000E+00  0.13467163645E+03  0.13467163645E+03  0.00000000000E+00 0.  1.
         21   -1    0    0  502  503 -0.00000000000E+00 -0.00000000000E+00 -0.59162676141E+03  0.59162676141E+03  0.00000000000E+00 0.  1.
         -6    2    1    2    0  503  0.87860166565E+02 -0.29292704464E+02 -0.49156704502E+03  0.52719773270E+03  0.16649870333E+03 0.  0.
        -24    2    3    3    0    0  0.52921705880E+02 -0.13963848663E+02 -0.12251039098E+03  0.15614440265E+03  0.79853506848E+02 0.  0.
          6    2    1    2  501    0 -0.87860166565E+02  0.29292704464E+02  0.34611920054E+02  0.19910066516E+03  0.17281671926E+03 0.  0.
         24    2    5    5    0    0  0.62939775143E+01 -0.23031704521E+02 -0.90716866067E+01  0.82768407756E+02  0.78728903577E+02 0.  0.
          5    1    5    5  501    0 -0.94154144079E+02  0.52324408984E+02  0.43683606661E+02  0.11633225741E+03  0.47000000000E+01 0. -1.
        -13    1    6    6    0    0  0.16178876838E+01  0.11050747863E+02  0.29226644877E+02  0.31287910759E+02  0.00000000000E+00 0.  1.
         14    1    6    6    0    0  0.46760898305E+01 -0.34082452384E+02 -0.38298331484E+02  0.51480496997E+02  0.00000000000E+00 0. -1.
         -5    1    3    3    0  503  0.34938460685E+02 -0.15328855801E+02 -0.36905665403E+03  0.37105333005E+03  0.47000000000E+01 0.  1.
         13    1    4    4    0    0 -0.16931028267E+02  0.10345639606E+02 -0.12066762447E+02  0.23222806312E+02  0.00000000000E+00 0. -1.
        -14    1    4    4    0    0  0.69852734148E+02 -0.24309488268E+02 -0.11044362854E+03  0.13292159634E+03  0.00000000000E+00 0.  1.
</event>
<event>
12    1  0.8461994E-002  0.1725879E+03  0.7818608E-02  0.1175199E+00
         21   -1    0    0  503  502  0.00000000000E+00  0.00000000000E+00  0.37517477952E+02  0.37517477952E+02  0.00000000000E+00 0. -1.
         21   -1    0    0  501  503 -0.00000000000E+00 -0.00000000000E+00 -0.12565688475E+04  0.12565688475E+04  0.00000000000E+00 0. -1.
          6    2    1    2  501    0  0.14785764436E+02  0.12797567117E+02 -0.10022072198E+04  0.10169438373E+04  0.17138570603E+03 0.  0.
         24    2    3    3    0    0 -0.32740294601E+02 -0.35463272937E+02 -0.37966844128E+03  0.39071348372E+03  0.78608717325E+02 0.  0.
         -6    2    1    2    0  502 -0.14785764436E+02 -0.12797567117E+02 -0.21684414972E+03  0.27714248814E+03  0.17147646167E+03 0.  0.
        -24    2    5    5    0    0  0.81674988400E+01 -0.70242797362E+02 -0.11162005825E+03  0.15499091754E+03  0.81008570522E+02 0.  0.
          5    1    3    3  501    0  0.47526059037E+02  0.48260840055E+02 -0.62253877854E+03  0.62623035359E+03  0.47000000000E+01 0. -1.
        -11    1    4    4    0    0 -0.52118324975E+02 -0.14556932578E+01 -0.18841523945E+03  0.19549614139E+03  0.00000000000E+00 0.  1.
         12    1    4    4    0    0  0.19378030375E+02 -0.34007579679E+02 -0.19125320183E+03  0.19521734233E+03  0.00000000000E+00 0. -1.
         -5    1    5    5    0  502 -0.22953263276E+02  0.57445230244E+02 -0.10522409147E+03  0.12215157060E+03  0.47000000000E+01 0.  1.
         11    1    6    6    0    0 -0.28410392911E+02 -0.63306974050E+02 -0.62745055704E+02  0.93551405142E+02  0.00000000000E+00 0. -1.
        -12    1    6    6    0    0  0.36577891751E+02 -0.69358233121E+01 -0.48875002549E+02  0.61439512401E+02  0.00000000000E+00 0.  1.
</event>
<event>
12    1  0.8461994E-002  0.1739249E+03  0.7818608E-02  0.1174047E+00
         21   -1    0    0  503  502  0.00000000000E+00  0.00000000000E+00  0.72367720228E+03  0.72367720228E+03  0.00000000000E+00 0. -1.
         21   -1    0    0  501  503 -0.00000000000E+00 -0.00000000000E+00 -0.82103325924E+02  0.82103325924E+02  0.00000000000E+00 0. -1.
          6    2    1    2  501    0 -0.71215312304E+01 -0.24339182556E+02  0.37317722438E+02  0.17699172226E+03  0.17114422375E+03 0.  0.
         24    2    3    3    0    0 -0.49813818092E+02 -0.46059906013E+02  0.60702055764E+02  0.12348155285E+03  0.83426751733E+02 0.  0.
         -6    2    1    2    0  502  0.71215312304E+01  0.24339182556E+02  0.60425615392E+03  0.62878880595E+03  0.17206612370E+03 0.  0.
        -24    2    5    5    0    0 -0.22267860079E+01  0.82478018005E+02  0.43118590581E+03  0.44591476185E+03  0.78173572530E+02 0.  0.
          5    1    3    3  501    0  0.42692286862E+02  0.21720723457E+02 -0.23384333326E+02  0.53510169408E+02  0.47000000000E+01 0. -1.
        -13    1    4    4    0    0 -0.54904291587E+02 -0.58801658257E+02  0.23472113092E+02  0.83803677374E+02  0.00000000000E+00 0.  1.
         14    1    4    4    0    0  0.50904734945E+01  0.12741752245E+02  0.37229942672E+02  0.39677875473E+02  0.00000000000E+00 0. -1.
         -5    1    5    5    0  502  0.93483172383E+01 -0.58138835449E+02  0.17307024811E+03  0.18287404409E+03  0.47000000000E+01 0.  1.
         11    1    6    6    0    0 -0.37747033300E+02  0.31953929834E+02  0.14703972706E+03  0.15513405006E+03  0.00000000000E+00 0. -1.
        -12    1    6    6    0    0  0.35520247292E+02  0.50524088172E+02  0.28414617875E+03  0.29078071179E+03  0.00000000000E+00 0.  1.
</event>
<event>
12    1  0.8461994E-002  0.2076156E+03  0.7818608E-02  0.1147385E+00
         21   -1    0    0  501  502  0.00000000000E+00  0.00000000000E+00  0.18389771205E+03  0.18389771205E+03  0.00000000000E+00 0. -1.
         21   -1    0    0  502  503 -0.00000000000E+00 -0.00000000000E+00 -0.48256141329E+03  0.48256141329E+03  0.00000000000E+00 0. -1.
         -6    2    1    2    0  503 -0.66999109801E+02  0.40969114378E+02 -0.40093360696E+03  0.45149969921E+03  0.19218967753E+03 0.  0.
        -24    2    3    3    0    0  0.11422362586E+02 -0.21932495471E+02 -0.80126173996E+02  0.11527650117E+03  0.79100968631E+02 0.  0.
          6    2    1    2  501    0  0.66999109801E+02 -0.40969114378E+02  0.10226990572E+03  0.21495942613E+03  0.17199148880E+03 0.  0.
         24    2    5    5    0    0  0.12156427271E+02 -0.85757529297E+02  0.72485207257E+02  0.13799878553E+03  0.79293297211E+02 0.  0.
          5    1    5    5  501    0  0.54842682530E+02  0.44788414919E+02  0.29784698462E+02  0.76960640593E+02  0.47000000000E+01 0. -1.
        -11    1    6    6    0    0  0.34268446638E+02 -0.38358709275E+02  0.36757434885E+01  0.51567704064E+02  0.00000000000E+00 0.  1.
         12    1    6    6    0    0 -0.22112019367E+02 -0.47398820022E+02  0.68809463769E+02  0.86431081470E+02  0.00000000000E+00 0. -1.
         -5    1    3    3    0  503 -0.78421472387E+02  0.62901609849E+02 -0.32080743297E+03  0.33622319804E+03  0.47000000000E+01 0.  1.
         11    1    4    4    0    0 -0.28094289831E+02  0.35783112135E+01 -0.55206603975E+02  0.62047260654E+02  0.00000000000E+00 0. -1.
        -12    1    4    4    0    0  0.39516652417E+02 -0.25510806685E+02 -0.24919570021E+02  0.53229240517E+02  0.00000000000E+00 0.  1.
</event>
<event>
12    1  0.8461994E-002  0.1793708E+03  0.7818608E-02  0.1169616E+00
         21   -1    0    0  503  502  0.00000000000E+00  0.00000000000E+00  0.34456724125E+03  0.34456724125E+03  0.00000000000E+00 0. -1.
         21   -1    0    0  501  503 -0.00000000000E+00 -0.00000000000E+00 -0.54183257487E+03  0.54183257487E+03  0.00000000000E+00 0. -1.
          6    2    1    2  501    0 -0.46254150764E+02  0.17642325933E+02 -0.50273703641E+03  0.53215857436E+03  0.16732460181E+03 0.  0.
         24    2    3    3    0    0 -0.75133515386E+02  0.57685732618E+02 -0.35027034094E+03  0.37182867900E+03  0.81206932628E+02 0.  0.
         -6    2    1    2    0  502  0.46254150764E+02 -0.17642325933E+02  0.30547170279E+03  0.35424124175E+03  0.17240417056E+03 0.  0.
        -24    2    5    5    0    0 -0.17872759476E+02  0.39164218750E+02  0.18793699988E+03  0.20872237520E+03  0.79946497247E+02 0.  0.
          5    1    3    3  501    0  0.28879364622E+02 -0.40043406684E+02 -0.15246669547E+03  0.16032989536E+03  0.47000000000E+01 0. -1.
        -11    1    4    4    0    0 -0.66378318739E+02  0.12102171815E+02 -0.27695216520E+03  0.28505270665E+03  0.00000000000E+00 0.  1.
         12    1    4    4    0    0 -0.87551966471E+01  0.45583560803E+02 -0.73318175737E+02  0.86775972349E+02  0.00000000000E+00 0. -1.
         -5    1    5    5    0  502  0.64126910240E+02 -0.56806544683E+02  0.11753470291E+03  0.14551886655E+03  0.47000000000E+01 0.  1.
         13    1    6    6    0    0  0.26473285226E+02  0.19223391834E+02  0.12488737890E+03  0.12910163063E+03  0.00000000000E+00 0. -1.
        -14    1    6    6    0    0 -0.44346044702E+02  0.19940826916E+02  0.63049620987E+02  0.79620744567E+02  0.00000000000E+00 0.  1.
</event>
<event>
12    1  0.8461994E-002  0.1825518E+03  0.7818608E-02  0.1165764E+00
         21   -1    0    0  503  502  0.00000000000E+00  0.00000000000E+00  0.14431973000E+03  0.14431973000E+03  0.00000000000E+00 0. -1.
         21   -1    0    0  501  503 -0.00000000000E+00 -0.00000000000E+00 -0.35555587599E+03  0.35555587599E+03  0.00000000000E+00 0. -1.
          6    2    1    2  501    0 -0.61070649223E+02 -0.29338027916E+01 -0.25455657619E+03  0.31225412674E+03  0.17019212023E+03 0.  0.
         24    2    3    3    0    0 -0.94767259819E+02  0.37117985530E+02 -0.18101282687E+03  0.22186397032E+03  0.78098652046E+02 0.  0.
         -6    2    1    2    0  502  0.61070649223E+02  0.29338027916E+01  0.43320430195E+02  0.18762147926E+03  0.17200851261E+03 0.  0.
        -24    2    5    5    0    0  0.25702842485E+02 -0.42293237316E+02 -0.21427841906E+02  0.10095663258E+03  0.85344801939E+02 0.  0.
          5    1    3    3  501    0  0.33696610597E+02 -0.40051788321E+02 -0.73543749321E+02  0.90390156420E+02  0.47000000000E+01 0. -1.
        -11    1    4    4    0    0  0.12797295560E+02  0.98993064535E+00 -0.85561421510E+01  0.15425897214E+02  0.00000000000E+00 0.  1.
         12    1    4    4    0    0 -0.10756455538E+03  0.36128054884E+02 -0.17245668471E+03  0.20643807310E+03  0.00000000000E+00 0. -1.
         -5    1    5    5    0  502  0.35367806737E+02  0.45227040108E+02  0.64748272101E+02  0.86664846682E+02  0.47000000000E+01 0.  1.
         13    1    6    6    0    0  0.35876293998E+02  0.13807663687E+02 -0.21284126758E+02  0.43940574636E+02  0.00000000000E+00 0. -1.
        -14    1    6    6    0    0 -0.10173451513E+02 -0.56100901003E+02 -0.14371514802E+00  0.57016057941E+02  0.00000000000E+00 0.  1.
</event>
<event>
12    1  0.8461994E-002  0.2420270E+03  0.7818608E-02  0.1118701E+00
         21   -1    0    0  501  502  0.00000000000E+00  0.00000000000E+00  0.26202030948E+03  0.26202030948E+03  0.00000000000E+00 0.  1.
         21   -1    0    0  502  503 -0.00000000000E+00 -0.00000000000E+00 -0.22426796674E+03  0.22426796674E+03  0.00000000000E+00 0.  1.
         -6    2    1    2    0  503 -0.11666391671E+03 -0.12109417050E+03 -0.47748999425E+01  0.24055339187E+03  0.17195600334E+03 0.  0.
        -24    2    3    3    0    0 -0.11147204266E+03 -0.23843337547E+02 -0.17756310063E+02  0.14219035474E+03  0.83116119940E+02 0.  0.
          6    2    1    2  501    0  0.11666391671E+03  0.12109417050E+03  0.42527242678E+02  0.24573488434E+03  0.17407699281E+03 0.  0.
         24    2    5    5    0    0  0.20628749729E+02  0.11480411093E+03  0.48428160831E+02  0.14919873060E+03  0.79432016524E+02 0.  0.
          5    1    5    5  501    0  0.96035166976E+02  0.62900595704E+01 -0.59009181528E+01  0.96536153749E+02  0.47000000000E+01 0. -1.
        -13    1    6    6    0    0  0.17719620950E+02  0.45242962127E+02 -0.19099265420E+02  0.52208165340E+02  0.00000000000E+00 0.  1.
         14    1    6    6    0    0  0.29091287793E+01  0.69561148799E+02  0.67527426251E+02  0.96990565255E+02  0.00000000000E+00 0. -1.
         -5    1    3    3    0  503 -0.51918740450E+01 -0.97250832949E+02  0.12981410120E+02  0.98363037133E+02  0.47000000000E+01 0.  1.
         13    1    4    4    0    0 -0.35392649976E+02  0.29383093177E+02 -0.17845397258E+02  0.49340288206E+02  0.00000000000E+00 0. -1.
        -14    1    4    4    0    0 -0.76079392685E+02 -0.53226430724E+02  0.89087195747E-01  0.92850066534E+02  0.00000000000E+00 0.  1.
</event>
<event>
12    1  0.8461994E-002  0.2096440E+03  0.7818608E-02  0.1141918E+00
         21   -1    0    0  503  502  0.00000000000E+00  0.00000000000E+00  0.11699159808E+04  0.11699159808E+04  0.00000000000E+00 0. -1.
         21   -1    0    0  501  503 -0.00000000000E+00 -0.00000000000E+00 -0.17201641295E+03  0.17201641295E+03  0.00000000000E+00 0.  1.
          6    2    1    2  501    0 -0.11014455048E+03 -0.53332057497E+02 -0.94470112248E+02  0.22962752390E+03  0.16978830133E+03 0.  0.
         24    2    3    3    0    0 -0.49383433726E+02 -0.86867123531E+02 -0.93491813612E+02  0.16006057031E+03  0.83030393709E+02 0.  0.
         -6    2    1    2    0  502  0.11014455048E+03  0.53332057497E+02  0.10923696801E+04  0.11123048698E+04  0.17021890354E+03 0.  0.
        -24    2    5    5    0    0  0.13155249049E+03  0.59167489817E+01  0.88276930416E+03  0.89629348363E+03  0.81971328961E+02 0.  0.
          5    1    3    3  501    0 -0.60761116758E+02  0.33535066034E+02 -0.97829863652E+00  0.69566953590E+02  0.47000000000E+01 0. -1.
        -11    1    4    4    0    0 -0.60471855045E+02 -0.23594572481E+02 -0.38291371192E+02  0.75364303294E+02  0.00000000000E+00 0.  1.
         12    1    4    4    0    0  0.11088421319E+02 -0.63272551050E+02 -0.55200442419E+02  0.84696267020E+02  0.00000000000E+00 0. -1.
         -5    1    5    5    0  502 -0.21407940006E+02  0.47415308516E+02  0.20960037592E+03  0.21601138619E+03  0.47000000000E+01 0.  1.
         11    1    6    6    0    0  0.61406974601E+02 -0.26962512502E+01  0.18477058870E+03  0.19472610700E+03  0.00000000000E+00 0. -1.
        -12    1    6    6    0    0  0.70145515888E+02  0.86130002318E+01  0.69799871546E+03  0.70156737663E+03  0.00000000000E+00 0.  1.
</event>
<event>
12    1  0.8461994E-002  0.2012010E+03  0.7818608E-02  0.1148925E+00
         21   -1    0    0  501  502  0.00000000000E+00  0.00000000000E+00  0.24565516135E+03  0.24565516135E+03  0.00000000000E+00 0.  1.
         21   -1    0    0  502  503 -0.00000000000E+00 -0.00000000000E+00 -0.54601277197E+03  0.54601277197E+03  0.00000000000E+00 0.  1.
         -6    2    1    2    0  503 -0.33776907423E+02  0.98884169527E+02 -0.48115499839E+03  0.52116926782E+03  0.17084588021E+03 0.  0.
        -24    2    3    3    0    0 -0.63301471816E+01  0.65037414999E+02 -0.12064442421E+03  0.15800416551E+03  0.78360086219E+02 0.  0.
          6    2    1    2  501    0  0.33776907423E+02 -0.98884169527E+02  0.18079738776E+03  0.27049866550E+03  0.17193857669E+03 0.  0.
         24    2    5    5    0    0  0.59987751361E+02 -0.11360823265E+03  0.18527733205E+03  0.23974210074E+03  0.81505976836E+02 0.  0.
          5    1    5    5  501    0 -0.26210843938E+02  0.14724063122E+02 -0.44799442814E+01  0.30756564755E+02  0.47000000000E+01 0. -1.
        -11    1    6    6    0    0  0.32306925842E+01  0.93335314967E+01  0.39756298548E+02  0.40964807567E+02  0.00000000000E+00 0.  1.
         12    1    6    6    0    0  0.56757058777E+02 -0.12294176415E+03  0.14552103350E+03  0.19877729318E+03  0.00000000000E+00 0. -1.
         -5    1    3    3    0  503 -0.27446760241E+02  0.33846754528E+02 -0.36051057418E+03  0.36316510231E+03  0.47000000000E+01 0.  1.
         13    1    4    4    0    0  0.84512190901E+01 -0.14668169208E+02 -0.67912970066E+01  0.18240065983E+02  0.00000000000E+00 0. -1.
        -14    1    4    4    0    0 -0.14781366272E+02  0.79705584207E+02 -0.11385312720E+03  0.13976409953E+03  0.00000000000E+00 0.  1.
</event>
<event>
12    1  0.8461994E-002  0.2030836E+03  0.7818608E-02  0.1147989E+00
         21   -1    0    0  503  502  0.00000000000E+00  0.00000000000E+00  0.10628775083E+03  0.10628775083E+03  0.00000000000E+00 0. -1.
         21   -1    0    0  501  503 -0.00000000000E+00 -0.00000000000E+00 -0.41960262364E+03  0.41960262364E+03  0.00000000000E+00 0. -1.
          6    2    1    2  501    0  0.33915539293E+00 -0.10345431027E+03 -0.23830189754E+03  0.31309863574E+03  0.17475712285E+03 0.  0.
         24    2    3    3    0    0 -0.60081057645E+02 -0.37254232373E+02 -0.86928342602E+02  0.13711825162E+03  0.79039653742E+02 0.  0.
         -6    2    1    2    0  502 -0.33915539293E+00  0.10345431027E+03 -0.75012975266E+02  0.21279173873E+03  0.17014837135E+03 0.  0.
        -24    2    5    5    0    0 -0.48327265370E+02  0.30016003925E+02 -0.11881252756E+01  0.98038777921E+02  0.79835488755E+02 0.  0.
          5    1    3    3  501    0  0.60420213038E+02 -0.66200077901E+02 -0.15137355494E+03  0.17598038411E+03  0.47000000000E+01 0. -1.
        -11    1    4    4    0    0 -0.18603132677E+02  0.25004237441E+02 -0.27796874383E+02  0.41760683195E+02  0.00000000000E+00 0.  1.
         12    1    4    4    0    0 -0.41477924967E+02 -0.62258469814E+02 -0.59131468219E+02  0.95357568430E+02  0.00000000000E+00 0. -1.
         -5    1    5    5    0  502  0.47988109977E+02  0.73438306349E+02 -0.73824849991E+02  0.11475296081E+03  0.47000000000E+01 0.  1.
         13    1    6    6    0    0 -0.75021440165E+01  0.47454886264E+02  0.15695260332E+02  0.50542947995E+02  0.00000000000E+00 0. -1.
        -14    1    6    6    0    0 -0.40825121354E+02 -0.17438882339E+02 -0.16883385608E+02  0.47495829926E+02  0.00000000000E+00 0.  1.
</event>
<event>
12    1  0.8461994E-002  0.2448256E+03  0.7818608E-02  0.1116886E+00
         21   -1    0    0  501  502  0.00000000000E+00  0.00000000000E+00  0.78071110117E+03  0.78071110117E+03  0.00000000000E+00 0.  1.
         21   -1    0    0  502  503 -0.00000000000E+00 -0.00000000000E+00 -0.86418229982E+02  0.86418229982E+02  0.00000000000E+00 0.  1.
         -6    2    1    2    0  503 -0.66168790579E+02 -0.15886677466E+03  0.19954516548E+03  0.31584463489E+03  0.17413385479E+03 0.  0.
        -24    2    3    3    0    0 -0.63687230273E+02 -0.76284512343E+02  0.19476275651E+03  0.23295344340E+03  0.80370301378E+02 0.  0.
          6    2    1    2  501    0  0.66168790579E+02  0.15886677466E+03  0.49474770571E+03  0.55128469627E+03  0.17182131154E+03 0.  0.
         24    2    5    5    0    0 -0.18397535983E+02  0.65248585160E+02  0.31668419950E+03  0.33300842354E+03  0.77523420584E+02 0.  0.
          5    1    5    5  501    0  0.84566326562E+02  0.93618189499E+02  0.17806350621E+03  0.21827627273E+03  0.47000000000E+01 0. -1.
        -13    1    6    6    0    0 -0.16678710069E+02  0.79856360697E+02  0.29938843867E+03  0.31030413294E+03  0.00000000000E+00 0.  1.
         14    1    6    6    0    0 -0.17188259147E+01 -0.14607775537E+02  0.17295760830E+02  0.22704290593E+02  0.00000000000E+00 0. -1.
         -5    1    3    3    0  503 -0.24815603057E+01 -0.82582262316E+02  0.47824089680E+01  0.82891191488E+02  0.47000000000E+01 0.  1.
         13    1    4    4    0    0 -0.58511573634E+02 -0.86734245740E+01  0.77465793634E+02  0.97466823721E+02  0.00000000000E+00 0. -1.
        -14    1    4    4    0    0 -0.51756566388E+01 -0.67611087769E+02  0.11729696288E+03  0.13548661968E+03  0.00000000000E+00 0.  1.
</event>
<event>
12    1  0.8461994E-002  0.1891414E+03  0.7818608E-02  0.1159768E+00
         21   -1    0    0  501  502  0.00000000000E+00  0.00000000000E+00  0.10573098955E+03  0.10573098955E+03  0.00000000000E+00 0. -1.
         21   -1    0    0  502  503 -0.00000000000E+00 -0.00000000000E+00 -0.41470958278E+03  0.41470958278E+03  0.00000000000E+00 0. -1.
         -6    2    1    2    0  503  0.33675630506E+02  0.63242528618E+02 -0.26836209990E+03  0.32698731371E+03  0.17253643427E+03 0.  0.
        -24    2    3    3    0    0  0.26019355259E+02 -0.10277981339E+02 -0.53131732426E+02  0.99369025742E+02  0.79174355304E+02 0.  0.
          6    2    1    2  501    0 -0.33675630506E+02 -0.63242528618E+02 -0.40616493330E+02  0.19345325861E+03  0.17504513195E+03 0.  0.
         24    2    5    5    0    0  0.13568644721E+02 -0.94522883593E+02 -0.53983451048E+02  0.13504737100E+03  0.78771160865E+02 0.  0.
          5    1    5    5  501    0 -0.47244275226E+02  0.31280354975E+02  0.13366957718E+02  0.58405887611E+02  0.47000000000E+01 0. -1.
        -13    1    6    6    0    0 -0.11576093807E+01 -0.68655552240E+02  0.51364529283E+01  0.68857156937E+02  0.00000000000E+00 0.  1.
         14    1    6    6    0    0  0.14726254101E+02 -0.25867331354E+02 -0.59119903976E+02  0.66190214061E+02  0.00000000000E+00 0. -1.
         -5    1    3    3    0  503  0.76562752466E+01  0.73520509958E+02 -0.21523036748E+03  0.22761828797E+03  0.47000000000E+01 0.  1.
         13    1    4    4    0    0  0.14528413522E+02  0.10985511449E+02  0.17168303462E+02  0.25030119956E+02  0.00000000000E+00 0. -1.
        -14    1    4    4    0    0  0.11490941737E+02 -0.21263492788E+02 -0.70300035888E+02  0.74338905786E+02  0.00000000000E+00 0.  1.
</event>
<event>
12    1  0.8461994E-002  0.1822145E+03  0.7818608E-02  0.1166029E+00
         21   -1    0    0  503  502  0.00000000000E+00  0.00000000000E+00  0.62466974869E+03  0.62466974869E+03  0.00000000000E+00 0.  1.
         21   -1    0    0  501  503 -0.00000000000E+00 -0.00000000000E+00 -0.78411800313E+02  0.78411800313E+02  0.00000000000E+00 0.  1.
          6    2    1    2  501    0 -0.49862412519E+02  0.35132120364E+02  0.72660625746E+02  0.19616747854E+03  0.17170202981E+03 0.  0.
         24    2    3    3    0    0 -0.84311308234E+02 -0.16897522661E+02  0.33062415140E+02  0.12211399482E+03  0.80154734525E+02 0.  0.
         -6    2    1    2    0  502  0.49862412519E+02 -0.35132120364E+02  0.47359732263E+03  0.50691407046E+03  0.17013795803E+03 0.  0.
        -24    2    5    5    0    0  0.39067366115E+02 -0.60081263626E+02  0.46615148002E+03  0.47833919778E+03  0.79844652125E+02 0.  0.
          5    1    3    3  501    0  0.34448895714E+02  0.52029643025E+02  0.39598210605E+02  0.74053483729E+02  0.47000000000E+01 0. -1.
        -11    1    4    4    0    0 -0.25179912646E+01  0.16948675374E+02 -0.13758215335E+02  0.21974675564E+02  0.00000000000E+00 0.  1.
         12    1    4    4    0    0 -0.81793316969E+02 -0.33846198035E+02  0.46820630475E+02  0.10013931925E+03  0.00000000000E+00 0. -1.
         -5    1    5    5    0  502  0.10795046404E+02  0.24949143263E+02  0.74458426115E+01  0.28574872679E+02  0.47000000000E+01 0.  1.
         13    1    6    6    0    0  0.28711069177E+01 -0.57724058707E+02  0.16138609934E+03  0.17142282015E+03  0.00000000000E+00 0. -1.
        -14    1    6    6    0    0  0.36196259198E+02 -0.23572049193E+01  0.30476538068E+03  0.30691637763E+03  0.00000000000E+00 0.  1.
</event>
<event>
12    1  0.8461994E-002  0.1770111E+03  0.7818608E-02  0.1170836E+00
         21   -1    0    0  503  502  0.00000000000E+00  0.00000000000E+00  0.16763182014E+04  0.16763182014E+04  0.00000000000E+00 0. -1.
         21   -1    0    0  501  503 -0.00000000000E+00 -0.00000000000E+00 -0.74465053204E+02  0.74465053204E+02  0.00000000000E+00 0. -1.
          6    2    1    2  501    0  0.40406863796E+02 -0.15591937432E+02  0.42762149199E+02  0.18167596407E+03  0.17117748498E+03 0.  0.
         24    2    3    3    0    0  0.23362270680E+01 -0.56812943041E+02  0.72726665590E+02  0.11789111535E+03  0.73321066113E+02 0.  0.
         -6    2    1    2    0  502 -0.40406863796E+02  0.15591937432E+02  0.15590909990E+04  0.15691072905E+04  0.17163077490E+03 0.  0.
        -24    2    5    5    0    0 -0.47704090577E+02 -0.89129722645E+01  0.44756763023E+03  0.45727995257E+03  0.80206296908E+02 0.  0.
          5    1    3    3  501    0  0.38070636729E+02  0.41221005609E+02 -0.29964516391E+02  0.63784848725E+02  0.47000000000E+01 0. -1.
        -13    1    4    4    0    0 -0.80799098103E+01  0.81783806589E+01 -0.77954301202E+01  0.13890269382E+02  0.00000000000E+00 0.  1.
         14    1    4    4    0    0  0.10416136878E+02 -0.64991323700E+02  0.80522095710E+02  0.10400084596E+03  0.00000000000E+00 0. -1.
         -5    1    5    5    0  502  0.72972267804E+01  0.24504909696E+02  0.11115233687E+04  0.11118273379E+04  0.47000000000E+01 0.  1.
         11    1    6    6    0    0  0.39462527045E+01  0.51657065812E+01  0.30378209643E+03  0.30385164069E+03  0.00000000000E+00 0. -1.
        -12    1    6    6    0    0 -0.51650343281E+02 -0.14078678846E+02  0.14378553380E+03  0.15342831188E+03  0.00000000000E+00 0.  1.
</event>
<event>
12    1  0.8461994E-002  0.2102471E+03  0.7818608E-02  0.1141484E+00
         21   -1    0    0  503  502  0.00000000000E+00  0.00000000000E+00  0.62459032711E+03  0.62459032711E+03  0.00000000000E+00 0.  1.
         21   -1    0    0  501  503 -0.00000000000E+00 -0.00000000000E+00 -0.70965522646E+02  0.70965522646E+02  0.00000000000E+00 0.  1.
          6    2    1    2  501    0  0.70782682098E+02  0.97894571498E+02  0.25076332677E+03  0.32687043914E+03  0.17137240945E+03 0.  0.
         24    2    3    3    0    0  0.99155944320E+02  0.10534376958E+03  0.24730854831E+03  0.29696127574E+03  0.78072211048E+02 0.  0.
         -6    2    1    2    0  502 -0.70782682098E+02 -0.97894571498E+02  0.30286147769E+03  0.36868541061E+03  0.17207650076E+03 0.  0.
        -24    2    5    5    0    0 -0.49601675180E+02 -0.82878258457E+02  0.90384527423E+02  0.15457639840E+03  0.79971046266E+02 0.  0.
          5    1    3    3  501    0 -0.28373262223E+02 -0.74491980807E+01  0.34547784537E+01  0.29909163401E+02  0.47000000000E+01 0. -1.
        -11    1    4    4    0    0  0.56381930213E+02  0.66977400614E+01  0.90242282661E+02  0.10661825058E+03  0.00000000000E+00 0.  1.
         12    1    4    4    0    0  0.42774014108E+02  0.98646029517E+02  0.15706626565E+03  0.19034302516E+03  0.00000000000E+00 0. -1.
         -5    1    5    5    0  502 -0.21181006918E+02 -0.15016313041E+02  0.21247695027E+03  0.21410901221E+03  0.47000000000E+01 0.  1.
         13    1    6    6    0    0  0.99946729883E+01 -0.57510539751E+02  0.57497318003E+02  0.81934713328E+02  0.00000000000E+00 0. -1.
        -14    1    6    6    0    0 -0.59596348168E+02 -0.25367718705E+02  0.32887209420E+02  0.72641685077E+02  0.00000000000E+00 0.  1.
</event>
<event>
12    1  0.8461994E-002  0.2039434E+03  0.7818608E-02  0.1146649E+00
         21   -1    0    0  501  502  0.00000000000E+00  0.00000000000E+00  0.42806061042E+02  0.42806061042E+02  0.00000000000E+00 0.  1.
         21   -1    0    0  502  503 -0.00000000000E+00 -0.00000000000E+00 -0.11508188384E+04  0.11508188384E+04  0.00000000000E+00 0.  1.
         -6    2    1    2    0  503 -0.25064272954E+02  0.10456043638E+03 -0.79351564110E+03  0.81930456864E+03  0.17329685771E+03 0.  0.
        -24    2    3    3    0    0 -0.74780395264E+02  0.58701731450E+02 -0.63533607364E+03  0.64720698238E+03  0.78657172474E+02 0.  0.
          6    2    1    2  501    0  0.25064272954E+02 -0.10456043638E+03 -0.31449713623E+03  0.37432033077E+03  0.17218059907E+03 0.  0.
         24    2    5    5    0    0  0.36784322356E+02 -0.13677657625E+03 -0.28901682393E+03  0.33134853140E+03  0.78741390410E+02 0.  0.
          5    1    5    5  501    0 -0.11720049402E+02  0.32216139873E+02 -0.25480312300E+02  0.42971799371E+02  0.47000000000E+01 0. -1.
        -11    1    6    6    0    0  0.42219267403E+02 -0.48562147913E+02 -0.17907994982E+03  0.19029024457E+03  0.00000000000E+00 0.  1.
         12    1    6    6    0    0 -0.54349450468E+01 -0.88214428341E+02 -0.10993687411E+03  0.14105828683E+03  0.00000000000E+00 0. -1.
         -5    1    3    3    0  503  0.49716122309E+02  0.45858704931E+02 -0.15817956746E+03  0.17209758626E+03  0.47000000000E+01 0.  1.
         11    1    4    4    0    0 -0.55484791335E+02 -0.19221017259E+00 -0.20278771728E+03  0.21024142620E+03  0.00000000000E+00 0. -1.
        -12    1    4    4    0    0 -0.19295603929E+02  0.58893941623E+02 -0.43254835636E+03  0.43696555617E+03  0.00000000000E+00 0.  1.
</event>
<event>
12    1  0.8461994E-002  0.1964181E+03  0.7818608E-02  0.1155999E+00
         21   -1    0    0  503  502  0.00000000000E+00  0.00000000000E+00  0.48249280532E+02  0.48249280532E+02  0.00000000000E+00 0.  1.
         21   -1    0    0  501  503 -0.00000000000E+00 -0.00000000000E+00 -0.82472962927E+03  0.82472962927E+03  0.00000000000E+00 0.  1.
          6    2    1    2  501    0 -0.25228382582E+02 -0.48381213300E+02 -0.51269306519E+03  0.54409627221E+03  0.17380840386E+03 0.  0.
         24    2    3    3    0    0 -0.11112505247E+02 -0.66743298085E+02 -0.50954886490E+03  0.52025512824E+03  0.80294440179E+02 0.  0.
         -6    2    1    2    0  502  0.25228382582E+02  0.48381213300E+02 -0.26378728355E+03  0.32888263759E+03  0.18868716241E+03 0.  0.
        -24    2    5    5    0    0  0.55771789023E+02 -0.11776473857E+02 -0.61973514639E+02  0.11603824767E+03  0.79843475735E+02 0.  0.
          5    1    3    3  501    0 -0.14115877336E+02  0.18362084785E+02 -0.31442002895E+01  0.23841143975E+02  0.47000000000E+01 0. -1.
        -11    1    4    4    0    0  0.14094064687E+02 -0.69857694253E+02 -0.26584497976E+03  0.27523134518E+03  0.00000000000E+00 0.  1.
         12    1    4    4    0    0 -0.25206569934E+02  0.31143961685E+01 -0.24370388514E+03  0.24502378306E+03  0.00000000000E+00 0. -1.
         -5    1    5    5    0  502 -0.30543406441E+02  0.60157687156E+02 -0.20181376891E+03  0.21284438993E+03  0.47000000000E+01 0.  1.
         13    1    6    6    0    0  0.76219757730E+02 -0.43602094577E+01 -0.47649580277E+02  0.89994140896E+02  0.00000000000E+00 0. -1.
        -14    1    6    6    0    0 -0.20447968707E+02 -0.74162643989E+01 -0.14323934362E+02  0.26044106771E+02  0.00000000000E+00 0.  1.
</event>
<event>
12    1  0.8461994E-002  0.2314927E+03  0.7818608E-02  0.1125601E+00
         21   -1    0    0  501  502  0.00000000000E+00  0.00000000000E+00  0.37512894204E+02  0.37512894204E+02  0.00000000000E+00 0. -1.
         21   -1    0    0  502  503 -0.00000000000E+00 -0.00000000000E+00 -0.15128012696E+04  0.15128012696E+04  0.00000000000E+00 0. -1.
         -6    2    1    2    0  503 -0.23968067736E+02  0.15169424224E+03 -0.55437419697E+03  0.60075016405E+03  0.17316003563E+03 0.  0.
        -24    2    3    3    0    0 -0.62416573500E+02  0.39185156355E+02 -0.31782890893E+03  0.33596280540E+03  0.80152892273E+02 0.  0.
          6    2    1    2  501    0  0.23968067736E+02 -0.15169424224E+03 -0.92091417847E+03  0.94956399980E+03  0.17321447460E+03 0.  0.
         24    2    5    5    0    0 -0.23603770062E+02 -0.53741020970E+02 -0.65283477585E+03  0.66017400443E+03  0.78684409371E+02 0.  0.
          5    1    5    5  501    0  0.47571837798E+02 -0.97953221267E+02 -0.26807940262E+03  0.28938999536E+03  0.47000000000E+01 0. -1.
        -11    1    6    6    0    0  0.78901007106E+01 -0.35565421710E+02 -0.10512172628E+03  0.11125524817E+03  0.00000000000E+00 0.  1.
         12    1    6    6    0    0 -0.31493870772E+02 -0.18175599261E+02 -0.54771304957E+03  0.54891875626E+03  0.00000000000E+00 0. -1.
         -5    1    3    3    0  503  0.38448505763E+02  0.11250908588E+03 -0.23654528805E+03  0.26478735865E+03  0.47000000000E+01 0.  1.
         13    1    4    4    0    0 -0.38715177280E+02 -0.19855512465E+02 -0.10052275221E+03  0.10953506305E+03  0.00000000000E+00 0. -1.
        -14    1    4    4    0    0 -0.23701396220E+02  0.59040668820E+02 -0.21730615672E+03  0.22642774235E+03  0.00000000000E+00 0.  1.
</event>
<event>
12    1  0.8461994E-002  0.2243013E+03  0.7818608E-02  0.1130797E+00
         21   -1    0    0  503  502  0.00000000000E+00  0.00000000000E+00  0.45891091206E+03  0.45891091206E+03  0.00000000000E+00 0.  1.
         21   -1    0    0  501  503 -0.00000000000E+00 -0.00000000000E+00 -0.11268671590E+03  0.11268671590E+03  0.00000000000E+00 0.  1.
          6    2    1    2  501    0 -0.61954842869E+02  0.12948878329E+03  0.22197652933E+03  0.31557033133E+03  0.17235227555E+03 0.  0.
         24    2    3    3    0    0 -0.12245660777E+02  0.33103483613E+02  0.23939383186E+02  0.89734262393E+02  0.78951548083E+02 0.  0.
         -6    2    1    2    0  502  0.61954842869E+02 -0.12948878329E+03  0.12424766682E+03  0.25602729663E+03  0.17177527865E+03 0.  0.
        -24    2    5    5    0    0 -0.12423073315E+02 -0.15555776637E+02  0.76269342456E+02  0.11167767235E+03  0.79111155757E+02 0.  0.
          5    1    3    3  501    0 -0.49709182092E+02  0.96385299680E+02  0.19803714615E+03  0.22583606894E+03  0.47000000000E+01 0. -1.
        -13    1    4    4    0    0 -0.40206893270E+02  0.28599132542E+02  0.33729983816E+02  0.59768022025E+02  0.00000000000E+00 0.  1.
         14    1    4    4    0    0  0.27961232493E+02  0.45043510710E+01 -0.97906006297E+01  0.29966240368E+02  0.00000000000E+00 0. -1.
         -5    1    5    5    0  502  0.74377916184E+02 -0.11393300666E+03  0.47978324361E+02  0.14434962428E+03  0.47000000000E+01 0.  1.
         13    1    6    6    0    0  0.21390032526E+02  0.21560537961E+02  0.20529902851E+02  0.36658794302E+02  0.00000000000E+00 0. -1.
        -14    1    6    6    0    0 -0.33813105841E+02 -0.37116314597E+02  0.55739439605E+02  0.75018878047E+02  0.00000000000E+00 0.  1.
</event>
<event>
12    1  0.8461994E-002  0.3089648E+03  0.7818608E-02  0.1080888E+00
         21   -1    0    0  501  502  0.00000000000E+00  0.00000000000E+00  0.11781280043E+04  0.11781280043E+04  0.00000000000E+00 0.  1.
         21   -1    0    0  502  503 -0.00000000000E+00 -0.00000000000E+00 -0.91021241811E+02  0.91021241811E+02  0.00000000000E+00 0.  1.
         -6    2    1    2    0  503  0.18794893672E+03  0.17538999525E+03  0.33195847150E+03  0.45323980826E+03  0.17071450946E+03 0.  0.
        -24    2    3    3    0    0  0.97796546810E+02  0.40850471361E+02  0.21764217654E+03  0.25495051912E+03  0.79992028410E+02 0.  0.
          6    2    1    2  501    0 -0.18794893672E+03 -0.17538999525E+03  0.75514829099E+03  0.81590943785E+03  0.17138499391E+03 0.  0.
         24    2    5    5    0    0 -0.56154376243E+02 -0.11750240574E+03  0.49920689089E+03  0.52222785948E+03  0.80958557128E+02 0.  0.
          5    1    5    5  501    0 -0.13179456048E+03 -0.57887589510E+02  0.25594140010E+03  0.29368157837E+03  0.47000000000E+01 0. -1.
        -13    1    6    6    0    0 -0.51671448790E+02 -0.53003546030E+02  0.37462614155E+03  0.38186916666E+03  0.00000000000E+00 0.  1.
         14    1    6    6    0    0 -0.44829274530E+01 -0.64498859715E+02  0.12458074935E+03  0.14035869282E+03  0.00000000000E+00 0. -1.
         -5    1    3    3    0  503  0.90152389915E+02  0.13453952389E+03  0.11431629495E+03  0.19828928914E+03  0.47000000000E+01 0.  1.
         13    1    4    4    0    0  0.65790685938E+02 -0.31518580770E+00  0.60489074087E+02  0.89372488956E+02  0.00000000000E+00 0. -1.
        -14    1    4    4    0    0  0.32005860871E+02  0.41165657169E+02  0.15715310246E+03  0.16557803016E+03  0.00000000000E+00 0.  1.
</event>
<event>
12    1  0.8461994E-002  0.1784601E+03  0.7818608E-02  0.1169353E+00
         21   -1    0    0  503  502  0.00000000000E+00  0.00000000000E+00  0.14446695708E+03  0.14446695708E+03  0.00000000000E+00 0.  1.
         21   -1    0    0  501  503 -0.00000000000E+00 -0.00000000000E+00 -0.36657309547E+03  0.36657309547E+03  0.00000000000E+00 0.  1.
          6    2    1    2  501    0  0.97857000961E+01  0.49519173384E+02 -0.27248173467E+03  0.32560621054E+03  0.17095379538E+03 0.  0.
         24    2    3    3    0    0 -0.57911476601E+02  0.41300618990E+02 -0.13515814829E+03  0.17221028574E+03  0.79556126191E+02 0.  0.
         -6    2    1    2    0  502 -0.97857000961E+01 -0.49519173384E+02  0.50375596271E+02  0.18543384201E+03  0.17117272156E+03 0.  0.
        -24    2    5    5    0    0 -0.32162612588E+02  0.33219588651E+02  0.21948604031E+02  0.95009216807E+02  0.80043958802E+02 0.  0.
          5    1    3    3  501    0  0.67697176697E+02  0.82185543947E+01 -0.13732358637E+03  0.15339592479E+03  0.47000000000E+01 0. -1.
        -11    1    4    4    0    0 -0.10076300642E+02 -0.13524655701E+02 -0.77669941766E+02  0.79479984904E+02  0.00000000000E+00 0.  1.
         12    1    4    4    0    0 -0.47835175959E+02  0.54825274690E+02 -0.57488206528E+02  0.92730300839E+02  0.00000000000E+00 0. -1.
         -5    1    5    5    0  502  0.22376912492E+02 -0.82738762035E+02  0.28426992240E+02  0.90424625205E+02  0.47000000000E+01 0.  1.
         11    1    6    6    0    0 -0.21081048559E+02 -0.19198004200E+02  0.29355666576E+02  0.40923454567E+02  0.00000000000E+00 0. -1.
        -12    1    6    6    0    0 -0.11081564029E+02  0.52417592850E+02 -0.74070625448E+01  0.54085762240E+02  0.00000000000E+00 0.  1.
</event>
<event>
12    1  0.8461994E-002  0.2475939E+03  0.7818608E-02  0.1114976E+00
         21   -1    0    0  501  502  0.00000000000E+00  0.00000000000E+00  0.83811897048E+03  0.83811897048E+03  0.00000000000E+00 0. -1.
         21   -1    0    0  502  503 -0.00000000000E+00 -0.00000000000E+00 -0.84338265545E+02  0.84338265545E+02  0.00000000000E+00 0.  1.
         -6    2    1    2    0  503 -0.16941395104E+03  0.56085177767E+02  0.20632338171E+03  0.32161426221E+03  0.17035187655E+03 0.  0.
        -24    2    3    3    0    0 -0.14944769225E+02  0.36540635133E+02  0.55015230189E+02  0.10445311469E+03  0.79531210679E+02 0.  0.
          6    2    1    2  501    0  0.16941395104E+03 -0.56085177767E+02  0.54745732322E+03  0.60084297381E+03  0.17162786621E+03 0.  0.
         24    2    5    5    0    0  0.59225342812E+02 -0.32587783900E+02  0.11961514673E+03  0.15838995383E+03  0.78803485064E+02 0.  0.
          5    1    5    5  501    0  0.11018860823E+03 -0.23497393868E+02  0.42784217649E+03  0.44245301998E+03  0.47000000000E+01 0. -1.
        -13    1    6    6    0    0  0.51264572358E+02  0.44743095090E+00  0.23407394298E+02  0.56357454532E+02  0.00000000000E+00 0.  1.
         14    1    6    6    0    0  0.79607704540E+01 -0.33035214850E+02  0.96207752427E+02  0.10203249930E+03  0.00000000000E+00 0. -1.
         -5    1    3    3    0  503 -0.15446918181E+03  0.19544542635E+02  0.15130815153E+03  0.21716114753E+03  0.47000000000E+01 0.  1.
         13    1    4    4    0    0 -0.16825199837E+02  0.40378014412E+01  0.67425922845E+02  0.69610676347E+02  0.00000000000E+00 0. -1.
        -14    1    4    4    0    0  0.18804306114E+01  0.32502833691E+02 -0.12410692656E+02  0.34842438340E+02  0.00000000000E+00 0.  1.
</event>
<event>
12    1  0.8461994E-002  0.2112963E+03  0.7818608E-02  0.1140908E+00
         21   -1    0    0  503  502  0.00000000000E+00  0.00000000000E+00  0.36121969184E+03  0.36121969184E+03  0.00000000000E+00 0. -1.
         21   -1    0    0  501  503 -0.00000000000E+00 -0.00000000000E+00 -0.23006518268E+03  0.23006518268E+03  0.00000000000E+00 0. -1.
          6    2    1    2  501    0 -0.30179060215E+02 -0.11615266049E+03 -0.13670757277E+03  0.25011598593E+03  0.17165905089E+03 0.  0.
         24    2    3    3    0    0  0.37155818297E+02 -0.10220012156E+03 -0.11587184634E+03  0.17810989797E+03  0.80445206833E+02 0.  0.
         -6    2    1    2    0  502  0.30179060215E+02  0.11615266049E+03  0.26786208193E+03  0.34116888859E+03  0.17390773241E+03 0.  0.
        -24    2    5    5    0    0  0.47571915645E+02  0.13826967048E+03  0.16642001104E+03  0.23579214876E+03  0.80751027277E+02 0.  0.
          5    1    3    3  501    0 -0.67334878512E+02 -0.13952538924E+02 -0.20835726433E+02  0.72006087955E+02  0.47000000000E+01 0. -1.
        -11    1    4    4    0    0  0.59539998293E+02 -0.58124325537E+02 -0.55215917776E+02  0.99861134541E+02  0.00000000000E+00 0.  1.
         12    1    4    4    0    0 -0.22384179996E+02 -0.44075796024E+02 -0.60655928561E+02  0.78248763433E+02  0.00000000000E+00 0. -1.
         -5    1    5    5    0  502 -0.17392855430E+02 -0.22117009998E+02  0.10144207089E+03  0.10537673984E+03  0.47000000000E+01 0.  1.
         13    1    6    6    0    0 -0.15944964426E+02  0.54062684540E+02  0.87401291367E+02  0.10400000713E+03  0.00000000000E+00 0. -1.
        -14    1    6    6    0    0  0.63516880071E+02  0.84206985944E+02  0.79018719672E+02  0.13179214163E+03  0.00000000000E+00 0.  1.
</event>
<event>
12    1  0.8461994E-002  0.2690157E+03  0.7818608E-02  0.1101980E+00
         21   -1    0    0  501  502  0.00000000000E+00  0.00000000000E+00  0.57991298476E+03  0.57991298476E+03  0.00000000000E+00 0.  1.
         21   -1    0    0  502  503 -0.00000000000E+00 -0.00000000000E+00 -0.10718625358E+04  0.10718625358E+04  0.00000000000E+00 0. -1.
         -6    2    1    2    0  503  0.11165511351E+03 -0.17489351056E+03 -0.10225266531E+04  0.10573221967E+04  0.17121584917E+03 0.  0.
        -24    2    3    3    0    0  0.63170447127E+02 -0.19093538063E+03 -0.77647529945E+03  0.80598285819E+03  0.79042090527E+02 0.  0.
          6    2    1    2  501    0 -0.11165511351E+03  0.17489351056E+03  0.53057710202E+03  0.59445332386E+03  0.16972945725E+03 0.  0.
         24    2    5    5    0    0 -0.64848010651E+02  0.15942390477E+03  0.26967476065E+03  0.32889290642E+03  0.76320517984E+02 0.  0.
          5    1    5    5  501    0 -0.46807102855E+02  0.15469605795E+02  0.26090234137E+03  0.26556041744E+03  0.47000000000E+01 0. -1.
        -11    1    6    6    0    0 -0.30352445266E+02  0.14181863832E+03  0.23868241354E+03  0.27929033575E+03  0.00000000000E+00 0.  1.
         12    1    6    6    0    0 -0.34495565385E+02  0.17605266448E+02  0.30992347107E+02  0.49602570671E+02  0.00000000000E+00 0. -1.
         -5    1    3    3    0  503  0.48484666379E+02  0.16041870062E+02 -0.24605135362E+03  0.25133933852E+03  0.47000000000E+01 0.  1.
         13    1    4    4    0    0  0.77297140667E+02 -0.16156254742E+03 -0.70554474597E+03  0.72792217527E+03  0.00000000000E+00 0. -1.
        -14    1    4    4    0    0 -0.14126693540E+02 -0.29372833206E+02 -0.70930553484E+02  0.78060682924E+02  0.00000000000E+00 0.  1.
</event>
<event>
12    1  0.8461994E-002  0.1906700E+03  0.7818608E-02  0.1158379E+00
         21   -1    0    0  501  502  0.00000000000E+00  0.00000000000E+00  0.30064316147E+02  0.30064316147E+02  0.00000000000E+00 0.  1.
         21   -1    0    0  502  503 -0.00000000000E+00 -0.00000000000E+00 -0.17086226123E+04  0.17086226123E+04  0.00000000000E+00 0.  1.
         -6    2    1    2    0  503 -0.88086843680E+02 -0.53972627034E+01 -0.13196235506E+04  0.13333271831E+04  0.16901668392E+03 0.  0.
        -24    2    3    3    0    0 -0.84900323777E+02  0.46338574350E+02 -0.67493943748E+03  0.68654557665E+03  0.80288580144E+02 0.  0.
          6    2    1    2  501    0  0.88086843680E+02  0.53972627034E+01 -0.35893474554E+03  0.40535974533E+03  0.16641499061E+03 0.  0.
         24    2    5    5    0    0  0.69021212068E+02  0.59415389671E+02 -0.29819205915E+03  0.32173426895E+03  0.79374551522E+02 0.  0.
          5    1    5    5  501    0  0.19065631613E+02 -0.54018126968E+02 -0.60742686395E+02  0.83625476384E+02  0.47000000000E+01 0. -1.
        -11    1    6    6    0    0  0.75051192615E+02  0.19422705684E+02 -0.22677863024E+03  0.23966324320E+03  0.00000000000E+00 0.  1.
         12    1    6    6    0    0 -0.60299805473E+01  0.39992683988E+02 -0.71413428912E+02  0.82071025745E+02  0.00000000000E+00 0. -1.
         -5    1    3    3    0  503 -0.31865199032E+01 -0.51735837053E+02 -0.64468411308E+03  0.64678160642E+03  0.47000000000E+01 0.  1.
         11    1    4    4    0    0 -0.70945569979E+01 -0.87442095998E+01 -0.28137156510E+03  0.28159678903E+03  0.00000000000E+00 0. -1.
        -12    1    4    4    0    0 -0.77805766779E+02  0.55082783950E+02 -0.39356787238E+03  0.40494878763E+03  0.00000000000E+00 0.  1.
</event>
<event>
12    1  0.8461994E-002  0.2521248E+03  0.7818608E-02  0.1112136E+00
         21   -1    0    0  503  502  0.00000000000E+00  0.00000000000E+00  0.50078897207E+03  0.50078897207E+03  0.00000000000E+00 0. -1.
         21   -1    0    0  501  503 -0.00000000000E+00 -0.00000000000E+00 -0.13102420098E+03  0.13102420098E+03  0.00000000000E+00 0.  1.
          6    2    1    2  501    0 -0.79242577207E+02  0.16476642445E+03  0.24461829409E+03  0.35129052899E+03  0.17360750354E+03 0.  0.
         24    2    3    3    0    0 -0.34512164451E+02  0.10884136083E+03  0.57481790691E+02  0.15086452402E+03  0.80115023705E+02 0.  0.
         -6    2    1    2    0  502  0.79242577207E+02 -0.16476642445E+03  0.12514647699E+03  0.28052264406E+03  0.17205799155E+03 0.  0.
        -24    2    5    5    0    0  0.83311687134E+02 -0.15298847560E+03  0.44392696475E+02  0.19867803029E+03  0.84592773572E+02 0.  0.
          5    1    3    3  501    0 -0.44730412756E+02  0.55925063625E+02  0.18713650340E+03  0.20042600498E+03  0.47000000000E+01 0. -1.
        -11    1    4    4    0    0 -0.33354639010E+02  0.62755018783E+01  0.28384992414E+02  0.44245018495E+02  0.00000000000E+00 0.  1.
         12    1    4    4    0    0 -0.11575254415E+01  0.10256585895E+03  0.29096798277E+02  0.10661950552E+03  0.00000000000E+00 0. -1.
         -5    1    5    5    0  502 -0.40691099265E+01 -0.11777948854E+02  0.80753780517E+02  0.81844613766E+02  0.47000000000E+01 0.  1.
         13    1    6    6    0    0  0.26542271817E+02 -0.91505733015E+02  0.61313614462E+02  0.11330115042E+03  0.00000000000E+00 0. -1.
        -14    1    6    6    0    0  0.56769415317E+02 -0.61482742585E+02 -0.16920917987E+02  0.85376879872E+02  0.00000000000E+00 0.  1.
</event>
<event>
12    1  0.8461994E-002  0.1932431E+03  0.7818608E-02  0.1156218E+00
         21   -1    0    0  501  502  0.00000000000E+00  0.00000000000E+00  0.41151195376E+03  0.41151195376E+03  0.00000000000E+00 0.  1.
         21   -1    0    0  502  503 -0.00000000000E+00 -0.00000000000E+00 -0.89932829203E+02  0.89932829203E+02  0.00000000000E+00 0. -1.
         -6    2    1    2    0  503  0.12668633704E+02 -0.83261601244E+02  0.14232353409E+03  0.23999769240E+03  0.17392502834E+03 0.  0.
        -24    2    3    3    0    0 -0.58250782141E+02 -0.33032869713E+02  0.60466508334E+02  0.12051902619E+03  0.79901895737E+02 0.  0.
          6    2    1    2  501    0 -0.12668633704E+02  0.83261601244E+02  0.17925559047E+03  0.26144709056E+03  0.17067227638E+03 0.  0.
         24    2    5    5    0    0  0.37388172283E+02  0.92696915876E+02  0.16385215559E+03  0.20802364258E+03  0.80222897869E+02 0.  0.
          5    1    5    5  501    0 -0.50056805986E+02 -0.94353146322E+01  0.15403434886E+02  0.53423447980E+02  0.47000000000E+01 0. -1.
        -11    1    6    6    0    0  0.40935439153E+02  0.32042946230E+02  0.12634407981E+03  0.13662096137E+03  0.00000000000E+00 0.  1.
         12    1    6    6    0    0 -0.35472668705E+01  0.60653969646E+02  0.37508075778E+02  0.71402681214E+02  0.00000000000E+00 0. -1.
         -5    1    3    3    0  503  0.70919415845E+02 -0.50228731531E+02  0.81857025752E+02  0.11947866621E+03  0.47000000000E+01 0.  1.
         13    1    4    4    0    0  0.46303824361E+01 -0.11652114833E+02 -0.15288078111E+02  0.19772140853E+02  0.00000000000E+00 0. -1.
        -14    1    4    4    0    0 -0.62881164577E+02 -0.21380754880E+02  0.75754586445E+02  0.10074688534E+03  0.00000000000E+00 0.  1.
</event>
<event>
12    1  0.8461994E-002  0.2231660E+03  0.7818608E-02  0.1131829E+00
         21   -1    0    0  503  502  0.00000000000E+00  0.00000000000E+00  0.56314557242E+03  0.56314557242E+03  0.00000000000E+00 0. -1.
         21   -1    0    0  501  503 -0.00000000000E+00 -0.00000000000E+00 -0.28244665935E+03  0.28244665935E+03  0.00000000000E+00 0. -1.
          6    2    1    2  501    0 -0.13961424716E+03  0.47741957086E+01 -0.21076240430E+03  0.30583554042E+03  0.17204550491E+03 0.  0.
         24    2    3    3    0    0 -0.49151209372E+01  0.24683759546E+02 -0.63537995577E+02  0.10524301348E+03  0.80034796217E+02 0.  0.
         -6    2    1    2    0  502  0.13961424716E+03 -0.47741957086E+01  0.49146131736E+03  0.53975669136E+03  0.17403484837E+03 0.  0.
        -24    2    5    5    0    0  0.12629454902E+03  0.33192744994E+02  0.23818588210E+03  0.28326217084E+03  0.80329767636E+02 0.  0.
          5    1    3    3  501    0 -0.13469912623E+03 -0.19909563837E+02 -0.14722440872E+03  0.20059252693E+03  0.47000000000E+01 0. -1.
        -11    1    4    4    0    0 -0.13689996114E+02  0.47606778040E+02 -0.16545073407E+02  0.52226054446E+02  0.00000000000E+00 0.  1.
         12    1    4    4    0    0  0.87748751766E+01 -0.22923018494E+02 -0.46992922170E+02  0.53016959035E+02  0.00000000000E+00 0. -1.
         -5    1    5    5    0  502  0.13319698145E+02 -0.37966940703E+02  0.25327543527E+03  0.25649452052E+03  0.47000000000E+01 0.  1.
         11    1    6    6    0    0  0.27934523699E+02  0.20049050345E+02  0.13811527136E+03  0.14233105851E+03  0.00000000000E+00 0. -1.
        -12    1    6    6    0    0  0.98360025320E+02  0.13143694650E+02  0.10007061074E+03  0.14093111233E+03  0.00000000000E+00 0.  1.
</event>
<event>
12    1  0.8461994E-002  0.1883263E+03  0.7818608E-02  0.1160424E+00
         21   -1    0    0  501  502  0.00000000000E+00  0.00000000000E+00  0.36582825575E+03  0.36582825575E+03  0.00000000000E+00 0.  1.
         21   -1    0    0  502  503 -0.00000000000E+00 -0.00000000000E+00 -0.10996716105E+03  0.10996716105E+03  0.00000000000E+00 0.  1.
         -6    2    1    2    0  503 -0.98619019787E+01  0.75275007251E+02  0.21227637550E+03  0.28249143117E+03  0.17022504299E+03 0.  0.
        -24    2    3    3    0    0 -0.61279286755E+02  0.15181929342E+02  0.15922093096E+03  0.18713999875E+03  0.75395174321E+02 0.  0.
          6    2    1    2  501    0  0.98619019787E+01 -0.75275007251E+02  0.43584719195E+02  0.19330398563E+03  0.17234621924E+03 0.  0.
         24    2    5    5    0    0  0.27975280173E+02 -0.11268740130E+03  0.12421132471E+02  0.14114038879E+03  0.79279619721E+02 0.  0.
          5    1    5    5  501    0 -0.18113378195E+02  0.37412394047E+02  0.31163586725E+02  0.52163596842E+02  0.47000000000E+01 0. -1.
        -11    1    6    6    0    0 -0.24535342813E+02 -0.62908233733E+02  0.13095337419E+02  0.68781660205E+02  0.00000000000E+00 0.  1.
         12    1    6    6    0    0  0.52510622986E+02 -0.49779167564E+02 -0.67420494793E+00  0.72358728583E+02  0.00000000000E+00 0. -1.
         -5    1    3    3    0  503  0.51417384777E+02  0.60093077909E+02  0.53055444534E+02  0.95351432420E+02  0.47000000000E+01 0.  1.
         13    1    4    4    0    0 -0.32661491862E+02 -0.23364172094E+02  0.11522167928E+03  0.12201923194E+03  0.00000000000E+00 0. -1.
        -14    1    4    4    0    0 -0.28617794893E+02  0.38546101435E+02  0.43999251684E+02  0.65120766804E+02  0.00000000000E+00 0.  1.
</event>
<event>
12    1  0.8461994E-002  0.4704600E+03  0.7818608E-02  0.1021797E+00
         21   -1    0    0  501  502  0.00000000000E+00  0.00000000000E+00  0.93657900170E+03  0.93657900170E+03  0.00000000000E+00 0. -1.
         21   -1    0    0  502  503 -0.00000000000E+00 -0.00000000000E+00 -0.26260474872E+03  0.26260474872E+03  0.00000000000E+00 0.  1.
         -6    2    1    2    0  503 -0.42169322096E+03  0.11832915129E+03  0.52686547680E+03  0.70634254952E+03  0.17177195918E+03 0.  0.
        -24    2    3    3    0    0 -0.21157839017E+03  0.34695636075E+02  0.17764233202E+03  0.29026358845E+03  0.82017987707E+02 0.  0.
          6    2    1    2  501    0  0.42169322096E+03 -0.11832915129E+03  0.14710877618E+03  0.49284120090E+03  0.17153570073E+03 0.  0.
         24    2    5    5    0    0  0.42223556239E+03 -0.13276797992E+03  0.15469205649E+03  0.47585973905E+03  0.81256705996E+02 0.  0.
          5    1    5    5  501    0 -0.54234142630E+00  0.14438828626E+02 -0.75832803128E+01  0.16981461852E+02  0.47000000000E+01 0. -1.
        -11    1    6    6    0    0  0.19077353493E+03 -0.81323323853E+02  0.35227187087E+02  0.21035441365E+03  0.00000000000E+00 0.  1.
         12    1    6    6    0    0  0.23146202745E+03 -0.51444656062E+02  0.11946486941E+03  0.26550532539E+03  0.00000000000E+00 0. -1.
         -5    1    3    3    0  503 -0.21011483079E+03  0.83633515214E+02  0.34922314478E+03  0.41607896106E+03  0.47000000000E+01 0.  1.
         11    1    4    4    0    0 -0.53988198708E+02  0.48061227138E+01  0.96089105883E+02  0.11032198641E+03  0.00000000000E+00 0. -1.
        -12    1    4    4    0    0 -0.15759019146E+03  0.29889513362E+02  0.81553226133E+02  0.17994160205E+03  0.00000000000E+00 0.  1.
</event>
<event>
12    1  0.8461994E-002  0.2204794E+03  0.7818608E-02  0.1133959E+00
         21   -1    0    0  503  502  0.00000000000E+00  0.00000000000E+00  0.86172935703E+03  0.86172935703E+03  0.00000000000E+00 0. -1.
         21   -1    0    0  501  503 -0.00000000000E+00 -0.00000000000E+00 -0.11025759976E+03  0.11025759976E+03  0.00000000000E+00 0. -1.
          6    2    1    2  501    0 -0.11623356196E+03  0.75448666724E+02  0.33247707460E+02  0.22068346674E+03  0.16850234481E+03 0.  0.
         24    2    3    3    0    0 -0.10622610593E+03  0.56950519577E+02  0.82711552905E+02  0.16672892448E+03  0.80187193584E+02 0.  0.
         -6    2    1    2    0  502  0.11623356196E+03 -0.75448666724E+02  0.71822404981E+03  0.75130349005E+03  0.17148879324E+03 0.  0.
        -24    2    5    5    0    0  0.15125142819E+03 -0.61534987539E+02  0.60439991184E+03  0.63131238285E+03  0.81194347614E+02 0.  0.
          5    1    3    3  501    0 -0.10007456031E+02  0.18498147147E+02 -0.49463845445E+02  0.53954542258E+02  0.47000000000E+01 0. -1.
        -11    1    4    4    0    0 -0.13650673266E+02 -0.51362447512E+01  0.47718839004E+02  0.49897990808E+02  0.00000000000E+00 0.  1.
         12    1    4    4    0    0 -0.92575432664E+02  0.62086764329E+02  0.34992713901E+02  0.11683093368E+03  0.00000000000E+00 0. -1.
         -5    1    5    5    0  502 -0.35017866234E+02 -0.13913679185E+02  0.11382413796E+03  0.11999110720E+03  0.47000000000E+01 0.  1.
         13    1    6    6    0    0  0.83212243673E+02 -0.39028728598E+02  0.47097368450E+03  0.47985803176E+03  0.00000000000E+00 0. -1.
        -14    1    6    6    0    0  0.68039184520E+02 -0.22506258942E+02  0.13342622734E+03  0.15145435109E+03  0.00000000000E+00 0.  1.
</event>
<event>
12    1  0.8461994E-002  0.2198523E+03  0.7818608E-02  0.1134125E+00
         21   -1    0    0  503  502  0.00000000000E+00  0.00000000000E+00  0.39397941862E+03  0.39397941862E+03  0.00000000000E+00 0.  1.
         21   -1    0    0  501  503 -0.00000000000E+00 -0.00000000000E+00 -0.13473494731E+03  0.13473494731E+03  0.00000000000E+00 0.  1.
          6    2    1    2  501    0  0.30835257308E+02  0.13242220506E+03  0.49091777144E+02  0.22457758096E+03  0.17186807091E+03 0.  0.
         24    2    3    3    0    0  0.85472845739E+02  0.84017183838E+02  0.55286393267E+02  0.15116930201E+03  0.73695848261E+02 0.  0.
         -6    2    1    2    0  502 -0.30835257308E+02 -0.13242220506E+03  0.21015269416E+03  0.30413678497E+03  0.17276740324E+03 0.  0.
        -24    2    5    5    0    0  0.36727534936E+02 -0.12227362987E+03  0.13691533090E+03  0.20386951288E+03  0.80729288762E+02 0.  0.
          5    1    3    3  501    0 -0.54637588431E+02  0.48405021224E+02 -0.61946161234E+01  0.73408278949E+02  0.47000000000E+01 0. -1.
        -11    1    4    4    0    0  0.71929663395E+02  0.20210640511E+02  0.21702208925E+02  0.77803164063E+02  0.00000000000E+00 0.  1.
         12    1    4    4    0    0  0.13543182344E+02  0.63806543327E+02  0.33584184342E+02  0.73366137947E+02  0.00000000000E+00 0. -1.
         -5    1    5    5    0  502 -0.67562792244E+02 -0.10148575193E+02  0.73237363261E+02  0.10026727209E+03  0.47000000000E+01 0.  1.
         13    1    6    6    0    0  0.24689175674E+02 -0.77120350041E+02  0.13460153612E+03  0.15708175359E+03  0.00000000000E+00 0. -1.
        -14    1    6    6    0    0  0.12038359262E+02 -0.45153279828E+02  0.23137947766E+01  0.46787759289E+02  0.00000000000E+00 0.  1.
</event>
<event>
12    1  0.8461994E-002  0.1891002E+03  0.7818608E-02  0.1159427E+00
         21   -1    0    0  501  502  0.00000000000E+00  0.00000000000E+00  0.34033724701E+03  0.34033724701E+03  0.00000000000E+00 0.  1.
         21   -1    0    0  502  503 -0.00000000000E+00 -0.00000000000E+00 -0.16034456971E+03  0.16034456971E+03  0.00000000000E+00 0.  1.
         -6    2    1    2    0  503 -0.26796967615E+02 -0.72620259230E+02 -0.57583401673E+02  0.19703521215E+03  0.17180002082E+03 0.  0.
        -24    2    3    3    0    0  0.42719176269E+01 -0.99685029510E+02 -0.71558532038E+00  0.12665186214E+03  0.78005305805E+02 0.  0.
          6    2    1    2  501    0  0.26796967615E+02  0.72620259230E+02  0.23757607897E+03  0.30364660457E+03  0.17253141061E+03 0.  0.
         24    2    5    5    0    0  0.66987729905E+02  0.24176833449E+02  0.80076412849E+02  0.13396956516E+03  0.80397370988E+02 0.  0.
          5    1    5    5  501    0 -0.40190762289E+02  0.48443425780E+02  0.15749966612E+03  0.16967703941E+03  0.47000000000E+01 0. -1.
        -11    1    6    6    0    0  0.29032880422E+01 -0.25856446946E+02  0.21692132900E+02  0.33875264720E+02  0.00000000000E+00 0.  1.
         12    1    6    6    0    0  0.64084441863E+02  0.50033280395E+02  0.58384279949E+02  0.10009430044E+03  0.00000000000E+00 0. -1.
         -5    1    3    3    0  503 -0.31068885242E+02  0.27064770280E+02 -0.56867816353E+02  0.70383350001E+02  0.47000000000E+01 0.  1.
         13    1    4    4    0    0 -0.21184629187E+02 -0.98918478419E+02 -0.14790597839E+01  0.10117233567E+03  0.00000000000E+00 0. -1.
        -14    1    4    4    0    0  0.25456546814E+02 -0.76655109131E+00  0.76347446353E+00  0.25479526478E+02  0.00000000000E+00 0.  1.
</event>
<event>
12    1  0.8461994E-002  0.1759363E+03  0.7818608E-02  0.1171898E+00
         21   -1    0    0  501  502  0.00000000000E+00  0.00000000000E+00  0.36075305084E+03  0.36075305084E+03  0.00000000000E+00 0.  1.
         21   -1    0    0  502  503 -0.00000000000E+00 -0.00000000000E+00 -0.19753301705E+03  0.19753301705E+03  0.00000000000E+00 0.  1.
         -6    2    1    2    0  503  0.20899389561E+01  0.31799326729E+02  0.29169653136E+03  0.34043336848E+03  0.17260488679E+03 0.  0.
        -24    2    3    3    0    0  0.64863006806E+02  0.17944249900E+02  0.12895638079E+03  0.16539375066E+03  0.78715556613E+02 0.  0.
          6    2    1    2  501    0 -0.20899389561E+01 -0.31799326729E+02 -0.12847649757E+03  0.21785269941E+03  0.17302607662E+03 0.  0.
         24    2    5    5    0    0  0.26251071925E+02  0.29845039518E+02 -0.11671507437E+03  0.14883341324E+03  0.83361448831E+02 0.  0.
          5    1    5    5  501    0 -0.28341010881E+02 -0.61644366248E+02 -0.11761423192E+02  0.69019286169E+02  0.47000000000E+01 0. -1.
        -13    1    6    6    0    0  0.70301724632E+00 -0.20926780820E+02 -0.76224974373E+02  0.79048536399E+02  0.00000000000E+00 0.  1.
         14    1    6    6    0    0  0.25548054678E+02  0.50771820339E+02 -0.40490100001E+02  0.69784876846E+02  0.00000000000E+00 0. -1.
         -5    1    3    3    0  503 -0.62773067850E+02  0.13855076829E+02  0.16274015056E+03  0.17503961782E+03  0.47000000000E+01 0.  1.
         11    1    4    4    0    0  0.21925959591E+02  0.22673236877E+02  0.23582234368E+01  0.31628856954E+02  0.00000000000E+00 0. -1.
        -12    1    4    4    0    0  0.42937047215E+02 -0.47289869769E+01  0.12659815735E+03  0.13376489370E+03  0.00000000000E+00 0.  1.
</event>
<event>
12    1  0.8461994E-002  0.2026223E+03  0.7818608E-02  0.1147555E+00
         21   -1    0    0  503  502  0.00000000000E+00  0.00000000000E+00  0.15985953072E+04  0.15985953072E+04  0.00000000000E+00 0. -1.
         21   -1    0    0  501  503 -0.00000000000E+00 -0.00000000000E+00 -0.25802984001E+02  0.25802984001E+02  0.00000000000E+00 0. -1.
          6    2    1    2  501    0  0.73742863276E+01 -0.10595885968E+03  0.72966996520E+03  0.75728068703E+03  0.17255179163E+03 0.  0.
         24    2    3    3    0    0  0.56306768451E+02 -0.11691267019E+03  0.57971207895E+03  0.59909146041E+03  0.77494895516E+02 0.  0.
         -6    2    1    2    0  502 -0.73742863276E+01  0.10595885968E+03  0.84312235805E+03  0.86711760422E+03  0.17249918509E+03 0.  0.
        -24    2    5    5    0    0 -0.39464429216E+02  0.92654125959E+02  0.80485189858E+03  0.81521855531E+03  0.81562773579E+02 0.  0.
          5    1    3    3  501    0 -0.48932482124E+02  0.10953810508E+02  0.14995788625E+03  0.15818922662E+03  0.47000000000E+01 0. -1.
        -13    1    4    4    0    0  0.56423478126E+02 -0.11738237429E+03  0.42796414371E+03  0.44734275336E+03  0.00000000000E+00 0.  1.
         14    1    4    4    0    0 -0.11670967443E+00  0.46970410169E+00  0.15174793524E+03  0.15174870705E+03  0.00000000000E+00 0. -1.
         -5    1    5    5    0  502  0.32090142889E+02  0.13304733724E+02  0.38270459469E+02  0.51899048913E+02  0.47000000000E+01 0.  1.
         11    1    6    6    0    0  0.13963657090E+02  0.41148486999E+01  0.27410197071E+03  0.27448826213E+03  0.00000000000E+00 0. -1.
        -12    1    6    6    0    0 -0.53428086306E+02  0.88539277259E+02  0.53074992787E+03  0.54073029317E+03  0.00000000000E+00 0.  1.
</event>
<event>
12    1  0.8461994E-002  0.2000134E+03  0.7818608E-02  0.1150116E+00
         21   -1    0    0  503  502  0.00000000000E+00  0.00000000000E+00  0.12689251420E+03  0.12689251420E+03  0.00000000000E+00 0.  1.
         21   -1    0    0  501  503 -0.00000000000E+00 -0.00000000000E+00 -0.31334972898E+03  0.31334972898E+03  0.00000000000E+00 0.  1.
          6    2    1    2  501    0 -0.95721698164E+02 -0.28720070457E+02 -0.81473368951E+02  0.21597056284E+03  0.17325671190E+03 0.  0.
         24    2    3    3    0    0 -0.12376057550E+02 -0.69069578026E+02 -0.48945790928E+02  0.11771216929E+03  0.80849804824E+02 0.  0.
         -6    2    1    2    0  502  0.95721698164E+02  0.28720070457E+02 -0.10498384582E+03  0.22427168034E+03  0.17113939574E+03 0.  0.
        -24    2    5    5    0    0  0.67726433587E+02  0.83784786021E+02 -0.55868415935E+02  0.14521301104E+03  0.79741949449E+02 0.  0.
          5    1    3    3  501    0 -0.83345640614E+02  0.40349507568E+02 -0.32527578023E+02  0.98258393547E+02  0.47000000000E+01 0. -1.
        -13    1    4    4    0    0  0.51639772515E+01  0.70352804213E+01  0.14611217830E+02  0.17019092753E+02  0.00000000000E+00 0.  1.
         14    1    4    4    0    0 -0.17540034801E+02 -0.76104858447E+02 -0.63557008758E+02  0.10069307654E+03  0.00000000000E+00 0. -1.
         -5    1    5    5    0  502  0.27995264577E+02 -0.55064715563E+02 -0.49115429886E+02  0.79058669301E+02  0.47000000000E+01 0.  1.
         13    1    6    6    0    0  0.46543260894E+02  0.33336236862E+02  0.11531347796E+02  0.58399929836E+02  0.00000000000E+00 0. -1.
        -14    1    6    6    0    0  0.21183172692E+02  0.50448549158E+02 -0.67399763731E+02  0.86813081206E+02  0.00000000000E+00 0.  1.
</event>
<event>
12    1  0.8461994E-002  0.2022471E+03  0.7818608E-02  0.1148303E+00
         21   -1    0    0  503  502  0.00000000000E+00  0.00000000000E+00  0.23013507419E+02  0.23013507419E+02  0.00000000000E+00 0.  1.
         21   -1    0    0  501  503 -0.00000000000E+00 -0.00000000000E+00 -0.22304313123E+04  0.22304313123E+04  0.00000000000E+00 0. -1.
          6    2    1    2  501    0  0.10012768551E+03  0.23893027383E+02 -0.16172600446E+04  0.16295938331E+04  0.17160879593E+03 0.  0.
         24    2    3    3    0    0  0.11984425597E+02  0.43744750582E+02 -0.49297906523E+03  0.50167843922E+03  0.81213717786E+02 0.  0.
         -6    2    1    2    0  502 -0.10012768551E+03 -0.23893027383E+02 -0.59015776022E+03  0.62385098657E+03  0.17409032519E+03 0.  0.
        -24    2    5    5    0    0 -0.37054408665E+02  0.49168815877E+02 -0.36520709685E+03  0.37902214402E+03  0.80566496807E+02 0.  0.
          5    1    3    3  501    0  0.88143259915E+02 -0.19851723200E+02 -0.11242809794E+04  0.11279153939E+04  0.47000000000E+01 0. -1.
        -13    1    4    4    0    0 -0.12507344284E+02 -0.12224044545E+02 -0.26744957723E+03  0.26802077771E+03  0.00000000000E+00 0.  1.
         14    1    4    4    0    0  0.24491769881E+02  0.55968795128E+02 -0.22552948801E+03  0.23365766151E+03  0.00000000000E+00 0. -1.
         -5    1    5    5    0  502 -0.63073276847E+02 -0.73061843260E+02 -0.22495066337E+03  0.24482884255E+03  0.47000000000E+01 0.  1.
         11    1    6    6    0    0 -0.60479692728E+02  0.49146152776E+02 -0.28533952339E+03  0.29579009647E+03  0.00000000000E+00 0. -1.
        -12    1    6    6    0    0  0.23425284063E+02  0.22663101122E-01 -0.79867573467E+02  0.83232047545E+02  0.00000000000E+00 0.  1.
</event>
<event>
12    1  0.8461994E-002  0.2124387E+03  0.7818608E-02  0.1139741E+00
         21   -1    0    0  503  502  0.00000000000E+00  0.00000000000E+00  0.35424515432E+03  0.35424515432E+03  0.00000000000E+00 0.  1.
         21   -1    0    0  501  503 -0.00000000000E+00 -0.00000000000E+00 -0.42826085450E+03  0.42826085450E+03  0.00000000000E+00 0.  1.
          6    2    1    2  501    0 -0.34136330315E+01  0.12466216245E+03 -0.36508370856E+03  0.42215784113E+03  0.17140251146E+03 0.  0.
         24    2    3    3    0    0  0.11480404461E+02  0.56554142791E+02 -0.32947633165E+03  0.34373265394E+03  0.79166366073E+02 0.  0.
         -6    2    1    2    0  502  0.34136330315E+01 -0.12466216245E+03  0.29106800837E+03  0.36034816769E+03  0.17198229218E+03 0.  0.
        -24    2    5    5    0    0 -0.20508423318E+02 -0.93622950129E+02  0.85890259039E+02  0.15140871162E+03  0.79759696209E+02 0.  0.
          5    1    3    3  501    0 -0.14894037492E+02  0.68108019661E+02 -0.35607376910E+02  0.78425187188E+02  0.47000000000E+01 0. -1.
        -11    1    4    4    0    0  0.27549071445E+02  0.49818285933E+02 -0.11274600526E+03  0.12630310627E+03  0.00000000000E+00 0.  1.
         12    1    4    4    0    0 -0.16068666984E+02  0.67358568579E+01 -0.21673032638E+03  0.21742954767E+03  0.00000000000E+00 0. -1.
         -5    1    5    5    0  502  0.23922056349E+02 -0.31039212323E+02  0.20517774933E+03  0.20893945607E+03  0.47000000000E+01 0.  1.
         11    1    6    6    0    0 -0.45879296256E+02 -0.41683021605E+02  0.23332226902E+02  0.66232748148E+02  0.00000000000E+00 0. -1.
        -12    1    6    6    0    0  0.25370872938E+02 -0.51939928525E+02  0.62558032137E+02  0.85175963474E+02  0.00000000000E+00 0.  1.
</event>
<event>
12    1  0.8461994E-002  0.1829593E+03  0.7818608E-02  0.1165320E+00
         21   -1    0    0  503  502  0.00000000000E+00  0.00000000000E+00  0.33679161544E+03  0.33679161544E+03  0.00000000000E+00 0.  1.
         21   -1    0    0  501  503 -0.00000000000E+00 -0.00000000000E+00 -0.10090279946E+03  0.10090279946E+03  0.00000000000E+00 0.  1.
          6    2    1    2  501    0 -0.21876726702E+02  0.51385813982E+02  0.85285604436E+02  0.20186065071E+03  0.17422684905E+03 0.  0.
         24    2    3    3    0    0  0.27703749130E+02  0.26616133834E+02  0.10255104617E+03  0.14362023419E+03  0.92920064044E+02 0.  0.
         -6    2    1    2    0  502  0.21876726702E+02 -0.51385813982E+02  0.15060321154E+03  0.23583376420E+03  0.17267641402E+03 0.  0.
        -24    2    5    5    0    0  0.49599096873E+02  0.25671239027E+02  0.68428427894E+02  0.11972560646E+03  0.80825046697E+02 0.  0.
          5    1    3    3  501    0 -0.49580475831E+02  0.24769680148E+02 -0.17265441733E+02  0.58240416521E+02  0.47000000000E+01 0. -1.
        -11    1    4    4    0    0  0.13617508942E+02  0.92674142095E+01 -0.16010612616E+02  0.22970877916E+02  0.00000000000E+00 0.  1.
         12    1    4    4    0    0  0.14086240187E+02  0.17348719624E+02  0.11856165878E+03  0.12064935627E+03  0.00000000000E+00 0. -1.
         -5    1    5    5    0  502 -0.27722370171E+02 -0.77057053009E+02  0.82174783648E+02  0.11610815774E+03  0.47000000000E+01 0.  1.
         11    1    6    6    0    0  0.42912334204E+02  0.49246065443E+01 -0.46706643022E+01  0.43445774035E+02  0.00000000000E+00 0. -1.
        -12    1    6    6    0    0  0.66867626684E+01  0.20746632483E+02  0.73099092196E+02  0.76279832422E+02  0.00000000000E+00 0.  1.
</event>
<event>
12    1  0.8461994E-002  0.2441235E+03  0.7818608E-02  0.1117340E+00
         21   -1    0    0  503  502  0.00000000000E+00  0.00000000000E+00  0.63486746755E+03  0.63486746755E+03  0.00000000000E+00 0.  1.
         21   -1    0    0  501  503 -0.00000000000E+00 -0.00000000000E+00 -0.50928905921E+03  0.50928905921E+03  0.00000000000E+00 0. -1.
          6    2    1    2  501    0 -0.31664854802E+02  0.16940424720E+03 -0.45430640453E+03  0.51498035315E+03  0.17061650837E+03 0.  0.
         24    2    3    3    0    0 -0.47589328696E+02  0.18641485395E+03 -0.38013204886E+03  0.43709020839E+03  0.97633158913E+02 0.  0.
         -6    2    1    2    0  502  0.31664854802E+02 -0.16940424720E+03  0.57988481288E+03  0.62917617362E+03  0.17290401741E+03 0.  0.
        -24    2    5    5    0    0 -0.29442666253E+02 -0.14432048082E+03  0.48881021432E+03  0.51657068100E+03  0.78832550763E+02 0.  0.
          5    1    3    3  501    0  0.15924473893E+02 -0.17010606753E+02 -0.74174355670E+02  0.77890144755E+02  0.47000000000E+01 0. -1.
        -11    1    4    4    0    0  0.30169570825E+01  0.70595687733E+02 -0.59253739916E+02  0.92216369754E+02  0.00000000000E+00 0.  1.
         12    1    4    4    0    0 -0.50606285778E+02  0.11581916622E+03 -0.32087830895E+03  0.34487383864E+03  0.00000000000E+00 0. -1.
         -5    1    5    5    0  502  0.61107521055E+02 -0.25083766381E+02  0.91074598559E+02  0.11260549262E+03  0.47000000000E+01 0.  1.
         13    1    6    6    0    0 -0.19911424960E+01 -0.13188998733E+03  0.33896686617E+03  0.36372719140E+03  0.00000000000E+00 0. -1.
        -14    1    6    6    0    0 -0.27451523757E+02 -0.12430493487E+02  0.14984334815E+03  0.15284348959E+03  0.00000000000E+00 0.  1.
</event>
<event>
12    1  0.8461994E-002  0.2112692E+03  0.7818608E-02  0.1142499E+00
         21   -1    0    0  503  502  0.00000000000E+00  0.00000000000E+00  0.11834660567E+04  0.11834660567E+04  0.00000000000E+00 0. -1.
         21   -1    0    0  501  503 -0.00000000000E+00 -0.00000000000E+00 -0.44940022653E+02  0.44940022653E+02  0.00000000000E+00 0. -1.
          6    2    1    2  501    0 -0.10082009322E+03 -0.70525843086E+02  0.30629473165E+03  0.37209024085E+03  0.17174428363E+03 0.  0.
         24    2    3    3    0    0 -0.11458331464E+02 -0.81104485386E+02  0.20335483655E+03  0.23528328145E+03  0.85415467412E+02 0.  0.
         -6    2    1    2    0  502  0.10082009322E+03  0.70525843086E+02  0.83223130238E+03  0.85631583848E+03  0.15977887481E+03 0.  0.
        -24    2    5    5    0    0  0.74126620684E+02  0.48873130924E+02  0.79974193512E+03  0.80878658007E+03  0.81640862922E+02 0.  0.
          5    1    3    3  501    0 -0.89361761756E+02  0.10578642299E+02  0.10293989510E+03  0.13680695940E+03  0.47000000000E+01 0. -1.
        -11    1    4    4    0    0  0.35883050629E+01  0.11589162297E+02  0.96703167560E+00  0.12170446427E+02  0.00000000000E+00 0.  1.
         12    1    4    4    0    0 -0.15046636526E+02 -0.92693647682E+02  0.20238780487E+03  0.22311283502E+03  0.00000000000E+00 0. -1.
         -5    1    5    5    0  502  0.26693472536E+02  0.21652712162E+02  0.32489367265E+02  0.47529258413E+02  0.47000000000E+01 0.  1.
         13    1    6    6    0    0  0.13890148998E+01  0.22445620155E+02  0.47284806544E+02  0.52360177200E+02  0.00000000000E+00 0. -1.
        -14    1    6    6    0    0  0.72737605784E+02  0.26427510770E+02  0.75245712857E+03  0.75642640287E+03  0.00000000000E+00 0.  1.
</event>
<event>
12    1  0.8461994E-002  0.1938629E+03  0.7818608E-02  0.1155183E+00
         21   -1    0    0  501  502  0.00000000000E+00  0.00000000000E+00  0.23455531011E+04  0.23455531011E+04  0.00000000000E+00 0. -1.
         21   -1    0    0  502  503 -0.00000000000E+00 -0.00000000000E+00 -0.19089385834E+02  0.19089385834E+02  0.00000000000E+00 0.  1.
         -6    2    1    2    0  503 -0.19553749333E+02  0.84573427456E+02  0.68657462467E+03  0.71341961694E+03  0.17334307270E+03 0.  0.
        -24    2    3    3    0    0 -0.64801247037E+02  0.83492019485E+01  0.32503271321E+03  0.34114000114E+03  0.80382367021E+02 0.  0.
          6    2    1    2  501    0  0.19553749333E+02 -0.84573427456E+02  0.16398890906E+04  0.16512228700E+04  0.17252745630E+03 0.  0.
         24    2    5    5    0    0  0.58265756513E+02 -0.79411831263E+02  0.75958070286E+03  0.77003605149E+03  0.79319222861E+02 0.  0.
          5    1    5    5  501    0 -0.38712007180E+02 -0.51615961933E+01  0.88030838770E+03  0.88118681846E+03  0.47000000000E+01 0. -1.
        -13    1    6    6    0    0  0.44147169142E+02 -0.94540267401E+02  0.58487097344E+03  0.59410511719E+03  0.00000000000E+00 0.  1.
         14    1    6    6    0    0  0.14118587371E+02  0.15128436138E+02  0.17470972942E+03  0.17593093430E+03  0.00000000000E+00 0. -1.
         -5    1    3    3    0  503  0.45247497704E+02  0.76224225508E+02  0.36154191146E+03  0.37227961580E+03  0.47000000000E+01 0.  1.
         11    1    4    4    0    0 -0.56087199784E+02  0.40450060625E+02  0.24219038712E+03  0.25186934112E+03  0.00000000000E+00 0. -1.
        -12    1    4    4    0    0 -0.87140472529E+01 -0.32100858676E+02  0.82842326092E+02  0.89270660016E+02  0.00000000000E+00 0.  1.
</event>
<event>
12    1  0.8461994E-002  0.2302922E+03  0.7818608E-02  0.1126445E+00
         21   -1    0    0  501  502  0.00000000000E+00  0.00000000000E+00  0.16642136912E+03  0.16642136912E+03  0.00000000000E+00 0.  1.
         21   -1    0    0  502  503 -0.00000000000E+00 -0.00000000000E+00 -0.36133178491E+03  0.36133178491E+03  0.00000000000E+00 0. -1.
         -6    2    1    2    0  503  0.15276567967E+03 -0.19750270958E+02 -0.67090793040E+01  0.23038991203E+03  0.17119308904E+03 0.  0.
        -24    2    3    3    0    0  0.73515677139E+02 -0.40862604122E+02 -0.62468283452E+02  0.13110510776E+03  0.78815960580E+02 0.  0.
          6    2    1    2  501    0 -0.15276567967E+03  0.19750270958E+02 -0.18820133648E+03  0.29736324200E+03  0.17110735972E+03 0.  0.
         24    2    5    5    0    0 -0.10543863642E+03 -0.14477674882E+02 -0.37102682690E+02  0.13530061683E+03  0.74851444419E+02 0.  0.
          5    1    5    5  501    0 -0.47327043253E+02  0.34227945841E+02 -0.15109865379E+03  0.16206262517E+03  0.47000000000E+01 0. -1.
        -13    1    6    6    0    0 -0.38376386074E+02  0.19034118643E+02 -0.42233856863E+02  0.60155991772E+02  0.00000000000E+00 0.  1.
         14    1    6    6    0    0 -0.67062250342E+02 -0.33511793525E+02  0.51311741730E+01  0.75144625054E+02  0.00000000000E+00 0. -1.
         -5    1    3    3    0  503  0.79250002530E+02  0.21112333163E+02  0.55759204148E+02  0.99284804275E+02  0.47000000000E+01 0.  1.
         13    1    4    4    0    0  0.75356165235E+02 -0.32552044089E+02 -0.15707337174E+02  0.83575759968E+02  0.00000000000E+00 0. -1.
        -14    1    4    4    0    0 -0.18404880959E+01 -0.83105600331E+01 -0.46760946278E+02  0.47529347790E+02  0.00000000000E+00 0.  1.
</event>
<event>
12    1  0.8461994E-002  0.1748091E+03  0.7818608E-02  0.1172945E+00
         21   -1    0    0  503  502  0.00000000000E+00  0.00000000000E+00  0.41868545971E+02  0.41868545971E+02  0.00000000000E+00 0.  1.
         21   -1    0    0  501  503 -0.00000000000E+00 -0.00000000000E+00 -0.73774786037E+03  0.73774786037E+03  0.00000000000E+00 0.  1.
          6    2    1    2  501    0  0.32699020668E+02  0.12104529470E+02 -0.38905131146E+03  0.42648522219E+03  0.17121032741E+03 0.  0.
         24    2    3    3    0    0 -0.61445366804E+01  0.68737866964E+02 -0.25543633999E+03  0.27618150479E+03  0.79157122955E+02 0.  0.
         -6    2    1    2    0  502 -0.32699020668E+02 -0.12104529470E+02 -0.30682800294E+03  0.35313118415E+03  0.17129642216E+03 0.  0.
        -24    2    5    5    0    0  0.46024137747E+02 -0.13626142597E+02 -0.12820490884E+03  0.15786738637E+03  0.78623915013E+02 0.  0.
          5    1    3    3  501    0  0.38843557349E+02 -0.56633337494E+02 -0.13361497146E+03  0.15030371739E+03  0.47000000000E+01 0. -1.
        -13    1    4    4    0    0  0.41619164066E+01 -0.12865423268E+02 -0.86565729188E+01  0.16055432686E+02  0.00000000000E+00 0.  1.
         14    1    4    4    0    0 -0.10306453087E+02  0.81603290232E+02 -0.24677976708E+03  0.26012607211E+03  0.00000000000E+00 0. -1.
         -5    1    5    5    0  502 -0.78723158415E+02  0.15216131278E+01 -0.17862309410E+03  0.19526379778E+03  0.47000000000E+01 0.  1.
         11    1    6    6    0    0  0.42130126330E+02 -0.44331152554E+02 -0.86178587994E+02  0.10567377943E+03  0.00000000000E+00 0. -1.
        -12    1    6    6    0    0  0.38940114170E+01  0.30705009957E+02 -0.42026320848E+02  0.52193606940E+02  0.00000000000E+00 0.  1.
</event>
<event>
12    1  0.8461994E-002  0.1794565E+03  0.7818608E-02  0.1169765E+00
         21   -1    0    0  501  502  0.00000000000E+00  0.00000000000E+00  0.14739582836E+03  0.14739582836E+03  0.00000000000E+00 0. -1.
         21   -1    0    0  502  503 -0.00000000000E+00 -0.00000000000E+00 -0.23649427456E+03  0.23649427456E+03  0.00000000000E+00 0. -1.
         -6    2    1    2    0  503  0.88436124112E+01 -0.17800346938E+02 -0.10762084256E+03  0.20925318860E+03  0.17835243020E+03 0.  0.
        -24    2    3    3    0    0  0.37850699709E+02  0.29242620776E+02 -0.12075190987E+03  0.15225347936E+03  0.79449933306E+02 0.  0.
          6    2    1    2  501    0 -0.88436124112E+01  0.17800346938E+02  0.18522396353E+02  0.17463691431E+03  0.17251061081E+03 0.  0.
         24    2    5    5    0    0 -0.70202163446E+02  0.29455818913E+02  0.36254801056E+01  0.11025733738E+03  0.79671496282E+02 0.  0.
          5    1    5    5  501    0  0.61358551035E+02 -0.11655471975E+02  0.14896916248E+02  0.64379576931E+02  0.47000000000E+01 0. -1.
        -11    1    6    6    0    0 -0.52018373379E+02  0.41191361296E+02 -0.27931942999E+02  0.71991894364E+02  0.00000000000E+00 0.  1.
         12    1    6    6    0    0 -0.18183790067E+02 -0.11735542383E+02  0.31557423105E+02  0.38265443016E+02  0.00000000000E+00 0. -1.
         -5    1    3    3    0  503 -0.29007087298E+02 -0.47042967714E+02  0.13131067314E+02  0.56999709242E+02  0.47000000000E+01 0.  1.
         13    1    4    4    0    0 -0.76308877889E+01  0.38678108777E+02 -0.27481973421E+02  0.48057105720E+02  0.00000000000E+00 0. -1.
        -14    1    4    4    0    0  0.45481587498E+02 -0.94354880010E+01 -0.93269936447E+02  0.10419637364E+03  0.00000000000E+00 0.  1.
</event>
<event>
12    1  0.8461994E-002  0.2567191E+03  0.7818608E-02  0.1109645E+00
         21   -1    0    0  501  502  0.00000000000E+00  0.00000000000E+00  0.44480763351E+03  0.44480763351E+03  0.00000000000E+00 0.  1.
         21   -1    0    0  502  503 -0.00000000000E+00 -0.00000000000E+00 -0.16762861235E+03  0.16762861235E+03  0.00000000000E+00 0.  1.
         -6    2    1    2    0  503  0.14079752038E+03  0.12327569864E+03  0.24876694589E+03  0.35747680326E+03  0.17573796369E+03 0.  0.
        -24    2    3    3    0    0  0.42472481794E+02  0.78533350110E+02  0.21349102318E+03  0.24373951084E+03  0.76544976162E+02 0.  0.
          6    2    1    2  501    0 -0.14079752038E+03 -0.12327569864E+03  0.28412075276E+02  0.25495944260E+03  0.17081051411E+03 0.  0.
         24    2    5    5    0    0 -0.53703715313E+01 -0.56321136404E+02  0.16897896143E+02  0.10337417824E+03  0.84851461607E+02 0.  0.
          5    1    5    5  501    0 -0.13542714885E+03 -0.66954562236E+02  0.11514179133E+02  0.15158526436E+03  0.47000000000E+01 0. -1.
        -13    1    6    6    0    0 -0.31928365023E+02 -0.59978257321E+02 -0.58725069322E+01  0.68200426552E+02  0.00000000000E+00 0.  1.
         14    1    6    6    0    0  0.26557993492E+02  0.36571209169E+01  0.22770403075E+02  0.35173751690E+02  0.00000000000E+00 0. -1.
         -5    1    3    3    0  503  0.98325038585E+02  0.44742348530E+02  0.35275922706E+02  0.11373729242E+03  0.47000000000E+01 0.  1.
         13    1    4    4    0    0  0.15168645884E+02  0.21231501089E+02  0.15578443135E+03  0.15795459318E+03  0.00000000000E+00 0. -1.
        -14    1    4    4    0    0  0.27303835910E+02  0.57301849021E+02  0.57706591835E+02  0.85784917659E+02  0.00000000000E+00 0.  1.
</event>
<event>
12    1  0.8461994E-002  0.2117718E+03  0.7818608E-02  0.1140225E+00
         21   -1    0    0  501  502  0.00000000000E+00  0.00000000000E+00  0.84891246209E+03  0.84891246209E+03  0.00000000000E+00 0. -1.
         21   -1    0    0  502  503 -0.00000000000E+00 -0.00000000000E+00 -0.56461409638E+02  0.56461409638E+02  0.00000000000E+00 0.  1.
         -6    2    1    2    0  503 -0.42793320532E+02 -0.11613935456E+03  0.28006886493E+03  0.35095272497E+03  0.17149235581E+03 0.  0.
        -24    2    3    3    0    0  0.33895765860E+02 -0.88583224342E+02  0.20608116474E+03  0.24078546094E+03  0.80698706077E+02 0.  0.
          6    2    1    2  501    0  0.42793320532E+02  0.11613935456E+03  0.51238218752E+03  0.55442114676E+03  0.17183621249E+03 0.  0.
         24    2    5    5    0    0  0.24041912431E+02 -0.50877212283E+01  0.15440744088E+03  0.17598273902E+03  0.80773561122E+02 0.  0.
          5    1    5    5  501    0  0.18751408101E+02  0.12122707579E+03  0.35797474665E+03  0.37843840773E+03  0.47000000000E+01 0. -1.
        -11    1    6    6    0    0  0.84961740590E+01 -0.28227823188E+02  0.13639917256E+02  0.32481414968E+02  0.00000000000E+00 0.  1.
         12    1    6    6    0    0  0.15545738372E+02  0.23140101959E+02  0.14076752362E+03  0.14350132406E+03  0.00000000000E+00 0. -1.
         -5    1    3    3    0  503 -0.76689086392E+02 -0.27556130218E+02  0.73987700192E+02  0.11016726403E+03  0.47000000000E+01 0.  1.
         11    1    4    4    0    0 -0.16080386347E+02 -0.64213614576E+02  0.86615971233E+02  0.10901510719E+03  0.00000000000E+00 0. -1.
        -12    1    4    4    0    0  0.49976152207E+02 -0.24369609766E+02  0.11946519350E+03  0.13177035375E+03  0.00000000000E+00 0.  1.
</event>
<event>
12    1  0.8461994E-002  0.2027415E+03  0.7818608E-02  0.1147575E+00
         21   -1    0    0  501  502  0.00000000000E+00  0.00000000000E+00  0.58761655559E+03  0.58761655559E+03  0.00000000000E+00 0. -1.
         21   -1    0    0  502  503 -0.00000000000E+00 -0.00000000000E+00 -0.90972749946E+02  0.90972749946E+02  0.00000000000E+00 0. -1.
         -6    2    1    2    0  503 -0.61365697363E+02  0.86611418571E+02  0.84684884220E+02  0.21971720611E+03  0.17273342006E+03 0.  0.
        -24    2    3    3    0    0 -0.25282272163E+02  0.46985094101E+02  0.12292621833E+03  0.15371153363E+03  0.75296667023E+02 0.  0.
          6    2    1    2  501    0  0.61365697363E+02 -0.86611418571E+02  0.41195892142E+03  0.45887209943E+03  0.17200629073E+03 0.  0.
         24    2    5    5    0    0  0.44799002574E+02 -0.51214823887E+02  0.40542745009E+03  0.41897066575E+03  0.80839919952E+02 0.  0.
          5    1    5    5  501    0  0.16566694789E+02 -0.35396594684E+02  0.65314713347E+01  0.39901433674E+02  0.47000000000E+01 0. -1.
        -11    1    6    6    0    0  0.35217102983E+02  0.15343116790E+02  0.14958819914E+03  0.15444184956E+03  0.00000000000E+00 0.  1.
         12    1    6    6    0    0  0.95818995908E+01 -0.66557940677E+02  0.25583925095E+03  0.26452881619E+03  0.00000000000E+00 0. -1.
         -5    1    3    3    0  503 -0.36083425200E+02  0.39626324470E+02 -0.38241334108E+02  0.66005672480E+02  0.47000000000E+01 0.  1.
         13    1    4    4    0    0  0.22952325955E+02  0.12026293915E+02  0.13734821050E+02  0.29327228327E+02  0.00000000000E+00 0. -1.
        -14    1    4    4    0    0 -0.48234598118E+02  0.34958800186E+02  0.10919139728E+03  0.12438430530E+03  0.00000000000E+00 0.  1.
</event>
<event>
12    1  0.8461994E-002  0.2674909E+03  0.7818608E-02  0.1102767E+00
         21   -1    0    0  501  502  0.00000000000E+00  0.00000000000E+00  0.65793152786E+03  0.65793152786E+03  0.00000000000E+00 0. -1.
         21   -1    0    0  502  503 -0.00000000000E+00 -0.00000000000E+00 -0.77803015725E+03  0.77803015725E+03  0.00000000000E+00 0. -1.
         -6    2    1    2    0  503 -0.11575066503E+03  0.16890589749E+03 -0.72601794585E+03  0.77362522263E+03  0.17165811584E+03 0.  0.
        -24    2    3    3    0    0 -0.63354744262E+02  0.11802608963E+02 -0.25542675887E+03  0.27472149340E+03  0.77948345648E+02 0.  0.
          6    2    1    2  501    0  0.11575066503E+03 -0.16890589749E+03  0.60591931645E+03  0.66233646248E+03  0.17211610273E+03 0.  0.
         24    2    5    5    0    0  0.44413495577E+02 -0.30883623545E+02  0.92294520530E+02  0.12570655199E+03  0.66011377050E+02 0.  0.
          5    1    5    5  501    0  0.71337169450E+02 -0.13802227395E+03  0.51362479592E+03  0.53662991049E+03  0.47000000000E+01 0. -1.
        -13    1    6    6    0    0  0.65842933097E+00 -0.38039277639E+01  0.69195020285E+02  0.69302627857E+02  0.00000000000E+00 0.  1.
         14    1    6    6    0    0  0.43755066246E+02 -0.27079695781E+02  0.23099500245E+02  0.56403924131E+02  0.00000000000E+00 0. -1.
         -5    1    3    3    0  503 -0.52395920765E+02  0.15710328853E+03 -0.47059118698E+03  0.49890372923E+03  0.47000000000E+01 0.  1.
         11    1    4    4    0    0 -0.59063403282E+02  0.39423658663E+02 -0.15528420364E+03  0.17075097179E+03  0.00000000000E+00 0. -1.
        -12    1    4    4    0    0 -0.42913409800E+01 -0.27621049700E+02 -0.10014255523E+03  0.10397052160E+03  0.00000000000E+00 0.  1.
</event>
<event>
12    1  0.8461994E-002  0.1784576E+03  0.7818608E-02  0.1169737E+00
         21   -1    0    0  501  502  0.00000000000E+00  0.00000000000E+00  0.13153089442E+03  0.13153089442E+03  0.00000000000E+00 0. -1.
         21   -1    0    0  502  503 -0.00000000000E+00 -0.00000000000E+00 -0.26614103162E+03  0.26614103162E+03  0.00000000000E+00 0.  1.
         -6    2    1    2    0  503  0.20082578153E+02 -0.25335912840E+02 -0.12962585729E+03  0.21914476431E+03  0.17371340312E+03 0.  0.
        -24    2    3    3    0    0  0.38930284393E+02  0.46307456504E+02 -0.63117249462E+02  0.11947785247E+03  0.81432318402E+02 0.  0.
          6    2    1    2  501    0 -0.20082578153E+02  0.25335912840E+02 -0.49842799068E+01  0.17852716173E+03  0.17550466092E+03 0.  0.
         24    2    5    5    0    0 -0.64353885313E+02  0.14229397030E+02  0.42616954106E+02  0.11241157498E+03  0.80475208098E+02 0.  0.
          5    1    5    5  501    0  0.44271307160E+02  0.11106515811E+02 -0.47601234013E+02  0.66115586745E+02  0.47000000000E+01 0. -1.
        -13    1    6    6    0    0 -0.26910285144E+02 -0.23335097537E+02 -0.10715358590E+02  0.37195552601E+02  0.00000000000E+00 0.  1.
         14    1    6    6    0    0 -0.37443600168E+02  0.37564494566E+02  0.53332312696E+02  0.75216022383E+02  0.00000000000E+00 0. -1.
         -5    1    3    3    0  503 -0.18847706241E+02 -0.71643369345E+02 -0.66508607827E+02  0.99666911845E+02  0.47000000000E+01 0.  1.
         13    1    4    4    0    0  0.59146707229E+02  0.13143188644E+02 -0.26616241075E+02  0.66177795919E+02  0.00000000000E+00 0. -1.
        -14    1    4    4    0    0 -0.20216422836E+02  0.33164267861E+02 -0.36501008387E+02  0.53300056551E+02  0.00000000000E+00 0.  1.
</event>
<event>
12    1  0.8461994E-002  0.1957928E+03  0.7818608E-02  0.1153477E+00
         21   -1    0    0  501  502  0.00000000000E+00  0.00000000000E+00  0.15429295574E+04  0.15429295574E+04  0.00000000000E+00 0.  1.
         21   -1    0    0  502  503 -0.00000000000E+00 -0.00000000000E+00 -0.36234070331E+02  0.36234070331E+02  0.00000000000E+00 0.  1.
         -6    2    1    2    0  503 -0.75205406778E+02 -0.55499208486E+02  0.30995555895E+03  0.36661595206E+03  0.17204299587E+03 0.  0.
        -24    2    3    3    0    0 -0.69899458894E+02 -0.31611949651E+02  0.32080470230E+03  0.33943971006E+03  0.80114980109E+02 0.  0.
          6    2    1    2  501    0  0.75205406778E+02  0.55499208486E+02  0.11967399281E+04  0.12125476756E+04  0.17131665088E+03 0.  0.
         24    2    5    5    0    0  0.80328511258E+02  0.57789068707E+01  0.10734833099E+04  0.10794588387E+04  0.79868030680E+02 0.  0.
          5    1    5    5  501    0 -0.51231044808E+01  0.49720301615E+02  0.12325661823E+03  0.13308883699E+03  0.47000000000E+01 0. -1.
        -13    1    6    6    0    0  0.51422563863E+02 -0.23086040896E+02  0.32426402219E+03  0.32912672551E+03  0.00000000000E+00 0.  1.
         14    1    6    6    0    0  0.28905947396E+02  0.28864947767E+02  0.74921928768E+03  0.75033211315E+03  0.00000000000E+00 0. -1.
         -5    1    3    3    0  503 -0.53059478836E+01 -0.23887258835E+02 -0.10849143348E+02  0.27176241995E+02  0.47000000000E+01 0.  1.
         13    1    4    4    0    0  0.12743817007E+02  0.11816377627E+02  0.57823205716E+02  0.60378429686E+02  0.00000000000E+00 0. -1.
        -14    1    4    4    0    0 -0.82643275901E+02 -0.43428327277E+02  0.26298149658E+03  0.27906128038E+03  0.00000000000E+00 0.  1.
</event>
<event>
12    1  0.8461994E-002  0.2333417E+03  0.7818608E-02  0.1124809E+00
         21   -1    0    0  501  502  0.00000000000E+00  0.00000000000E+00  0.71839735959E+03  0.71839735959E+03  0.00000000000E+00 0.  1.
         21   -1    0    0  502  503 -0.00000000000E+00 -0.00000000000E+00 -0.10558557191E+03  0.10558557191E+03  0.00000000000E+00 0.  1.
         -6    2    1    2    0  503  0.10153933955E+03 -0.11892711185E+03  0.85512114946E+02  0.24851693882E+03  0.17318906337E+03 0.  0.
        -24    2    3    3    0    0  0.10934474330E+03 -0.47481750513E+02  0.99463391889E+01  0.14412517454E+03  0.80388722804E+02 0.  0.
          6    2    1    2  501    0 -0.10153933955E+03  0.11892711185E+03  0.52729967273E+03  0.57546599268E+03  0.16929934570E+03 0.  0.
         24    2    5    5    0    0 -0.12141826725E+03  0.10957503451E+03  0.52152424887E+03  0.55226947058E+03  0.79151387624E+02 0.  0.
          5    1    5    5  501    0  0.19878927692E+02  0.93520773366E+01  0.57754238619E+01  0.23196522099E+02  0.47000000000E+01 0. -1.
        -13    1    6    6    0    0 -0.65572677274E+02  0.48036704305E+02  0.14077699381E+03  0.16255910603E+03  0.00000000000E+00 0.  1.
         14    1    6    6    0    0 -0.55845589973E+02  0.61538330206E+02  0.38074725506E+03  0.38971036455E+03  0.00000000000E+00 0. -1.
         -5    1    3    3    0  503 -0.78054037488E+01 -0.71445361334E+02  0.75565775757E+02  0.10439176428E+03  0.47000000000E+01 0.  1.
         13    1    4    4    0    0 -0.57252507301E+01 -0.12371177100E+02  0.19105061133E+02  0.23469722616E+02  0.00000000000E+00 0. -1.
        -14    1    4    4    0    0  0.11506999403E+03 -0.35110573413E+02 -0.91587219439E+01  0.12065545193E+03  0.00000000000E+00 0.  1.
</event>
<event>
12    1  0.8461994E-002  0.2180639E+03  0.7818608E-02  0.1135730E+00
         21   -1    0    0  503  502  0.00000000000E+00  0.00000000000E+00  0.15640145989E+03  0.15640145989E+03  0.00000000000E+00 0.  1.
         21   -1    0    0  501  503 -0.00000000000E+00 -0.00000000000E+00 -0.30757290709E+03  0.30757290709E+03  0.00000000000E+00 0. -1.
          6    2    1    2  501    0  0.88238193332E+02 -0.99652876250E+02 -0.10878644230E+03  0.24182944997E+03  0.17008914820E+03 0.  0.
         24    2    3    3    0    0  0.44836978549E+02 -0.78234185928E+01  0.93384894212E+01  0.85970846638E+02  0.72334076085E+02 0.  0.
         -6    2    1    2    0  502 -0.88238193332E+02  0.99652876250E+02 -0.42385004899E+02  0.22214491702E+03  0.17272869191E+03 0.  0.
        -24    2    5    5    0    0 -0.73372245691E+02  0.11470600295E+03 -0.81282369476E+02  0.17761753226E+03  0.80001316402E+02 0.  0.
          5    1    3    3  501    0  0.43401214783E+02 -0.91829457657E+02 -0.11812493172E+03  0.15585860333E+03  0.47000000000E+01 0. -1.
        -11    1    4    4    0    0  0.60836361348E+02 -0.17053835919E+02 -0.38125757014E+01  0.63296381532E+02  0.00000000000E+00 0.  1.
         12    1    4    4    0    0 -0.15999382799E+02  0.92304173263E+01  0.13151065123E+02  0.22674465106E+02  0.00000000000E+00 0. -1.
         -5    1    5    5    0  502 -0.14865947641E+02 -0.15053126702E+02  0.38897364577E+02  0.44527384762E+02  0.47000000000E+01 0.  1.
         11    1    6    6    0    0 -0.78672895873E+02  0.51075022159E+02 -0.53507939116E+02  0.10798695283E+03  0.00000000000E+00 0. -1.
        -12    1    6    6    0    0  0.53006501814E+01  0.63630980793E+02 -0.27774430360E+02  0.69630579424E+02  0.00000000000E+00 0.  1.
</event>
<event>
12    1  0.8461994E-002  0.1935634E+03  0.7818608E-02  0.1155364E+00
         21   -1    0    0  503  502  0.00000000000E+00  0.00000000000E+00  0.13127582182E+03  0.13127582182E+03  0.00000000000E+00 0. -1.
         21   -1    0    0  501  503 -0.00000000000E+00 -0.00000000000E+00 -0.56971495779E+03  0.56971495779E+03  0.00000000000E+00 0. -1.
          6    2    1    2  501    0 -0.81257033500E+02 -0.37919854498E+02 -0.46694569295E+03  0.50533949794E+03  0.17114060638E+03 0.  0.
         24    2    3    3    0    0  0.47862734105E+01  0.66627172150E+01 -0.31514352269E+03  0.32518110857E+03  0.79749691302E+02 0.  0.
         -6    2    1    2    0  502  0.81257033500E+02  0.37919854498E+02  0.28506556980E+02  0.19565128166E+03  0.17154060559E+03 0.  0.
        -24    2    5    5    0    0  0.23789163232E+02 -0.26877775528E+02 -0.27866082037E+02  0.92204418977E+02  0.80229653161E+02 0.  0.
          5    1    3    3  501    0 -0.86043306910E+02 -0.44582571713E+02 -0.15180217026E+03  0.18015838937E+03  0.47000000000E+01 0. -1.
        -13    1    4    4    0    0 -0.34392492525E+01  0.43494347439E+01  0.34122768473E+01  0.65107335451E+01  0.00000000000E+00 0.  1.
         14    1    4    4    0    0  0.82255226630E+01  0.23132824710E+01 -0.31855579954E+03  0.31867037502E+03  0.00000000000E+00 0. -1.
         -5    1    5    5    0  502  0.57467870268E+02  0.64797630026E+02  0.56372639017E+02  0.10344686269E+03  0.47000000000E+01 0.  1.
         13    1    6    6    0    0  0.33572626265E+02 -0.24443060957E+01 -0.48307879248E+02  0.58879088512E+02  0.00000000000E+00 0. -1.
        -14    1    6    6    0    0 -0.97834630326E+01 -0.24433469432E+02  0.20441797211E+02  0.33325330465E+02  0.00000000000E+00 0.  1.
</event>
<event>
12    1  0.8461994E-002  0.1854564E+03  0.7818608E-02  0.1162917E+00
         21   -1    0    0  501  502  0.00000000000E+00  0.00000000000E+00  0.38427618297E+03  0.38427618297E+03  0.00000000000E+00 0.  1.
         21   -1    0    0  502  503 -0.00000000000E+00 -0.00000000000E+00 -0.13558619667E+03  0.13558619667E+03  0.00000000000E+00 0. -1.
         -6    2    1    2    0  503 -0.62349381459E+02  0.22118162499E+02 -0.28456645843E+02  0.18638922384E+03  0.17191423324E+03 0.  0.
        -24    2    3    3    0    0 -0.58542486016E+02  0.59079676120E+01 -0.82735965329E+02  0.12941907907E+03  0.80261642890E+02 0.  0.
          6    2    1    2  501    0  0.62349381459E+02 -0.22118162499E+02  0.27714663214E+03  0.33347315579E+03  0.17325539370E+03 0.  0.
         24    2    5    5    0    0  0.10982164016E+03 -0.28010192581E+02  0.19288092782E+03  0.23646217554E+03  0.76589454929E+02 0.  0.
          5    1    5    5  501    0 -0.47472258705E+02  0.58920300817E+01  0.84265704322E+02  0.97010980255E+02  0.47000000000E+01 0. -1.
        -11    1    6    6    0    0  0.55547294081E+02  0.24419605737E+02  0.74632178223E+02  0.96186179103E+02  0.00000000000E+00 0.  1.
         12    1    6    6    0    0  0.54274346083E+02 -0.52429798318E+02  0.11824874960E+03  0.14027599643E+03  0.00000000000E+00 0. -1.
         -5    1    3    3    0  503 -0.38068954430E+01  0.16210194887E+02  0.54279319486E+02  0.56970144770E+02  0.47000000000E+01 0.  1.
         13    1    4    4    0    0 -0.87679716104E+01  0.16033974443E+02 -0.76016694567E+02  0.78182501338E+02  0.00000000000E+00 0. -1.
        -14    1    4    4    0    0 -0.49774514405E+02 -0.10126006831E+02 -0.67192707629E+01  0.51236577737E+02  0.00000000000E+00 0.  1.
</event>
<event>
12    1  0.8461994E-002  0.3110014E+03  0.7818608E-02  0.1080012E+00
         21   -1    0    0  503  502  0.00000000000E+00  0.00000000000E+00  0.79014733552E+03  0.79014733552E+03  0.00000000000E+00 0. -1.
         21   -1    0    0  501  503 -0.00000000000E+00 -0.00000000000E+00 -0.28980585433E+03  0.28980585433E+03  0.00000000000E+00 0.  1.
          6    2    1    2  501    0 -0.13281585242E+03  0.22205180529E+03 -0.16100819238E+03  0.34912813904E+03  0.17035188456E+03 0.  0.
         24    2    3    3    0    0 -0.92959524077E+02  0.14957875893E+03 -0.30844065810E+02  0.19483731234E+03  0.77427021428E+02 0.  0.
         -6    2    1    2    0  502  0.13281585242E+03 -0.22205180529E+03  0.66134967356E+03  0.73082505081E+03  0.17255378666E+03 0.  0.
        -24    2    5    5    0    0  0.12762555629E+03 -0.22388013936E+03  0.49105467493E+03  0.56037635314E+03  0.80475859535E+02 0.  0.
          5    1    3    3  501    0 -0.39856328341E+02  0.72473046362E+02 -0.13016412657E+03  0.15429082670E+03  0.47000000000E+01 0. -1.
        -13    1    4    4    0    0 -0.62219399972E+02  0.80418213020E+02 -0.54731827324E+02  0.11547257527E+03  0.00000000000E+00 0.  1.
         14    1    4    4    0    0 -0.30740124105E+02  0.69160545905E+02  0.23887761514E+02  0.79364737069E+02  0.00000000000E+00 0. -1.
         -5    1    5    5    0  502  0.51902961314E+01  0.18283340754E+01  0.17029499863E+03  0.17044869767E+03  0.47000000000E+01 0.  1.
         13    1    6    6    0    0  0.26465803155E+02 -0.45248088543E+02  0.18165182590E+03  0.18906404763E+03  0.00000000000E+00 0. -1.
        -14    1    6    6    0    0  0.10115975313E+03 -0.17863205082E+03  0.30940284902E+03  0.37131230550E+03  0.00000000000E+00 0.  1.
</event>
<event>
12    1  0.8461994E-002  0.2443061E+03  0.7818608E-02  0.1116995E+00
         21   -1    0    0  503  502  0.00000000000E+00  0.00000000000E+00  0.18492998376E+03  0.18492998376E+03  0.00000000000E+00 0.  1.
         21   -1    0    0  501  503 -0.00000000000E+00 -0.00000000000E+00 -0.32680915082E+03  0.32680915082E+03  0.00000000000E+00 0.  1.
          6    2    1    2  501    0  0.17259175256E+03 -0.16467832974E+02 -0.10056194240E+03  0.26419343135E+03  0.17212310227E+03 0.  0.
         24    2    3    3    0    0  0.71264193811E+02 -0.66514504192E+02 -0.78465915372E+02  0.14894470957E+03  0.80776618187E+02 0.  0.
         -6    2    1    2    0  502 -0.17259175256E+03  0.16467832974E+02 -0.41317224658E+02  0.24754570323E+03  0.17179248983E+03 0.  0.
        -24    2    5    5    0    0 -0.13148447587E+02  0.34621428580E+01 -0.31512393762E+02  0.87203755555E+02  0.80166052137E+02 0.  0.
          5    1    3    3  501    0  0.10132755875E+03  0.50046671218E+02 -0.22096027032E+02  0.11524872178E+03  0.47000000000E+01 0. -1.
        -11    1    4    4    0    0  0.18009213002E+02 -0.45148333007E+02 -0.77588252413E+02  0.91556761841E+02  0.00000000000E+00 0.  1.
         12    1    4    4    0    0  0.53254980810E+02 -0.21366171185E+02 -0.87766295907E+00  0.57387947728E+02  0.00000000000E+00 0. -1.
         -5    1    5    5    0  502 -0.15944330497E+03  0.13005690116E+02 -0.98048308966E+01  0.16034194768E+03  0.47000000000E+01 0.  1.
         13    1    6    6    0    0 -0.30340574673E+01  0.15296686876E+02 -0.56030806367E+02  0.58160514065E+02  0.00000000000E+00 0. -1.
        -14    1    6    6    0    0 -0.10114390119E+02 -0.11834544018E+02  0.24518412605E+02  0.29043241491E+02  0.00000000000E+00 0.  1.
</event>
<event>
12    1  0.8461994E-002  0.1953958E+03  0.7818608E-02  0.1157997E+00
         21   -1    0    0  501  502  0.00000000000E+00  0.00000000000E+00  0.76606192484E+02  0.76606192484E+02  0.00000000000E+00 0. -1.
         21   -1    0    0  502  503 -0.00000000000E+00 -0.00000000000E+00 -0.51603541958E+03  0.51603541958E+03  0.00000000000E+00 0. -1.
         -6    2    1    2    0  503  0.83339476948E+02  0.15614232376E+02 -0.10539332664E+03  0.20565387883E+03  0.15490801110E+03 0.  0.
        -24    2    3    3    0    0  0.54852077347E+02 -0.14553838756E+02 -0.44397612565E+01  0.96404820174E+02  0.77804969384E+02 0.  0.
          6    2    1    2  501    0 -0.83339476948E+02 -0.15614232376E+02 -0.33403590045E+03  0.38698773324E+03  0.17604047891E+03 0.  0.
         24    2    5    5    0    0 -0.97224335101E+01 -0.64806554283E+02 -0.21661123846E+03  0.23984836100E+03  0.79450566111E+02 0.  0.
          5    1    5    5  501    0 -0.73617043438E+02  0.49192321908E+02 -0.11742466199E+03  0.14713937224E+03  0.47000000000E+01 0. -1.
        -13    1    6    6    0    0 -0.10817474108E+02 -0.75297003751E+02 -0.11620326044E+03  0.13888791976E+03  0.00000000000E+00 0.  1.
         14    1    6    6    0    0  0.10950405977E+01  0.10490449467E+02 -0.10040797802E+03  0.10096044124E+03  0.00000000000E+00 0. -1.
         -5    1    3    3    0  503  0.28487399601E+02  0.30168071131E+02 -0.10095356539E+03  0.10924905865E+03  0.47000000000E+01 0.  1.
         13    1    4    4    0    0 -0.85000530419E+01 -0.18276375536E+02  0.20004714386E+02  0.28398334495E+02  0.00000000000E+00 0. -1.
        -14    1    4    4    0    0  0.63352130389E+02  0.37225367806E+01 -0.24444475642E+02  0.68006485678E+02  0.00000000000E+00 0.  1.
</event>
<event>
12    1  0.8461994E-002  0.2073275E+03  0.7818608E-02  0.1143859E+00
         21   -1    0    0  503  502  0.00000000000E+00  0.00000000000E+00  0.11921101559E+03  0.11921101559E+03  0.00000000000E+00 0.  1.
         21   -1    0    0  501  503 -0.00000000000E+00 -0.00000000000E+00 -0.47447176695E+03  0.47447176695E+03  0.00000000000E+00 0.  1.
          6    2    1    2  501    0 -0.13888985905E+02  0.11431963474E+03 -0.32419243654E+03  0.38481871912E+03  0.17240309701E+03 0.  0.
         24    2    3    3    0    0 -0.24478182261E+02  0.11873857635E+03 -0.14433866527E+03  0.20453802918E+03  0.79398514906E+02 0.  0.
         -6    2    1    2    0  502  0.13888985905E+02 -0.11431963474E+03 -0.31068314815E+02  0.20886406342E+03  0.17145574935E+03 0.  0.
        -24    2    5    5    0    0  0.43897873997E+02 -0.28232801119E+01 -0.67557492219E+01  0.90774430913E+02  0.79116135573E+02 0.  0.
          5    1    3    3  501    0  0.10589196356E+02 -0.44189416121E+01 -0.17985377127E+03  0.18028068994E+03  0.47000000000E+01 0. -1.
        -11    1    4    4    0    0 -0.84236928520E+01  0.89998002625E+02 -0.47200486517E+02  0.10197296213E+03  0.00000000000E+00 0.  1.
         12    1    4    4    0    0 -0.16054489409E+02  0.28740573723E+02 -0.97138178750E+02  0.10256506705E+03  0.00000000000E+00 0. -1.
         -5    1    5    5    0  502 -0.30008888092E+02 -0.11149635462E+03 -0.24312565593E+02  0.11808963250E+03  0.47000000000E+01 0.  1.
         11    1    6    6    0    0  0.67173457549E+02 -0.13191055065E+01 -0.56647149182E+01  0.67424790942E+02  0.00000000000E+00 0. -1.
        -12    1    6    6    0    0 -0.23275583552E+02 -0.15041746054E+01 -0.10910343037E+01  0.23349639971E+02  0.00000000000E+00 0.  1.
</event>
<event>
12    1  0.8461994E-002  0.2335958E+03  0.7818608E-02  0.1124289E+00
         21   -1    0    0  503  502  0.00000000000E+00  0.00000000000E+00  0.56522898366E+02  0.56522898366E+02  0.00000000000E+00 0.  1.
         21   -1    0    0  501  503 -0.00000000000E+00 -0.00000000000E+00 -0.10988788500E+04  0.10988788500E+04  0.00000000000E+00 0.  1.
          6    2    1    2  501    0  0.15247052475E+03  0.40307223780E+02 -0.72616628798E+03  0.76281353318E+03  0.17232259107E+03 0.  0.
         24    2    3    3    0    0  0.38611973301E+01  0.13794325007E+01 -0.21382109672E+03  0.22791186919E+03  0.78787987890E+02 0.  0.
         -6    2    1    2    0  502 -0.15247052475E+03 -0.40307223780E+02 -0.31618966366E+03  0.39258821519E+03  0.17110718891E+03 0.  0.
        -24    2    5    5    0    0 -0.12960203251E+02 -0.12344983220E+02 -0.17461060252E+03  0.19181038461E+03  0.77343362044E+02 0.  0.
          5    1    3    3  501    0  0.14860932742E+03  0.38927791279E+02 -0.51234519126E+03  0.53490166399E+03  0.47000000000E+01 0. -1.
        -13    1    4    4    0    0  0.26436964168E+01  0.34870941542E+02 -0.16519123332E+03  0.16885234751E+03  0.00000000000E+00 0.  1.
         14    1    4    4    0    0  0.12175009133E+01 -0.33491509041E+02 -0.48629863399E+02  0.59059521675E+02  0.00000000000E+00 0. -1.
         -5    1    5    5    0  502 -0.13951032150E+03 -0.27962240560E+02 -0.14157906114E+03  0.20077783059E+03  0.47000000000E+01 0.  1.
         11    1    6    6    0    0  0.80661854345E+01  0.62434260176E+01 -0.15970952402E+03  0.16003492049E+03  0.00000000000E+00 0. -1.
        -12    1    6    6    0    0 -0.21026388685E+02 -0.18588409237E+02 -0.14901078502E+02  0.31775464114E+02  0.00000000000E+00 0.  1.
</event>
<event>
12    1  0.8461994E-002  0.1843407E+03  0.7818608E-02  0.1165011E+00
         21   -1    0    0  503  502  0.00000000000E+00  0.00000000000E+00  0.33842885397E+03  0.33842885397E+03  0.00000000000E+00 0.  1.
         21   -1    0    0  501  503 -0.00000000000E+00 -0.00000000000E+00 -0.11980035951E+03  0.11980035951E+03  0.00000000000E+00 0.  1.
          6    2    1    2  501    0  0.59805008177E+02 -0.78278133165E+01  0.11549877136E+02  0.18470219242E+03  0.17419410599E+03 0.  0.
         24    2    3    3    0    0  0.98298380553E+02  0.28775572351E+02  0.86403993768E+01  0.13129711195E+03  0.81692532844E+02 0.  0.
         -6    2    1    2    0  502 -0.59805008177E+02  0.78278133165E+01  0.20707861732E+03  0.27352702105E+03  0.16821879750E+03 0.  0.
        -24    2    5    5    0    0  0.26886047341E+02 -0.56295521533E+01  0.14101978734E+03  0.16360751045E+03  0.78270592541E+02 0.  0.
          5    1    3    3  501    0 -0.38493372376E+02 -0.36603385667E+02  0.29094777588E+01  0.53405080470E+02  0.47000000000E+01 0. -1.
        -13    1    4    4    0    0  0.30495493743E+02  0.22177205734E+02  0.41150905259E+02  0.55813982087E+02  0.00000000000E+00 0.  1.
         14    1    4    4    0    0  0.67802886810E+02  0.65983666168E+01 -0.32510505882E+02  0.75483129867E+02  0.00000000000E+00 0. -1.
         -5    1    5    5    0  502 -0.86691055518E+02  0.13457365470E+02  0.66058829980E+02  0.10991951060E+03  0.47000000000E+01 0.  1.
         11    1    6    6    0    0  0.39715712083E+01  0.87697803577E+01 -0.77730764551E+01  0.12373485482E+02  0.00000000000E+00 0. -1.
        -12    1    6    6    0    0  0.22914476133E+02 -0.14399332511E+02  0.14879286379E+03  0.15123402497E+03  0.00000000000E+00 0.  1.
</event>
<event>
12    1  0.8461994E-002  0.2152913E+03  0.7818608E-02  0.1137727E+00
         21   -1    0    0  501  502  0.00000000000E+00  0.00000000000E+00  0.78840061929E+03  0.78840061929E+03  0.00000000000E+00 0. -1.
         21   -1    0    0  502  503 -0.00000000000E+00 -0.00000000000E+00 -0.71177880036E+02  0.71177880036E+02  0.00000000000E+00 0. -1.
         -6    2    1    2    0  503  0.32043482131E+02 -0.12466626094E+03  0.17743633012E+03  0.27898748148E+03  0.17257433822E+03 0.  0.
        -24    2    3    3    0    0  0.52676028512E+02 -0.78140528697E+02  0.36107030739E+02  0.12869973549E+03  0.79869881937E+02 0.  0.
          6    2    1    2  501    0 -0.32043482131E+02  0.12466626094E+03  0.53978640913E+03  0.58059101785E+03  0.17072814988E+03 0.  0.
         24    2    5    5    0    0  0.24293070242E+02  0.67675511266E+01  0.17162707803E+03  0.18990278411E+03  0.77273931493E+02 0.  0.
          5    1    5    5  501    0 -0.56336552373E+02  0.11789870981E+03  0.36815933110E+03  0.39068823374E+03  0.47000000000E+01 0. -1.
        -13    1    6    6    0    0 -0.13714176419E+02  0.10086325096E+02  0.33440809265E+01  0.17349220905E+02  0.00000000000E+00 0.  1.
         14    1    6    6    0    0  0.38007246660E+02 -0.33187739690E+01  0.16828299711E+03  0.17255356320E+03  0.00000000000E+00 0. -1.
         -5    1    3    3    0  503 -0.20632546381E+02 -0.46525732240E+02  0.14132929938E+03  0.15028774599E+03  0.47000000000E+01 0.  1.
         13    1    4    4    0    0  0.67575645108E+02 -0.41221356214E+02  0.40016214885E+02  0.88695915766E+02  0.00000000000E+00 0. -1.
        -14    1    4    4    0    0 -0.14899616596E+02 -0.36919172483E+02 -0.39091841456E+01  0.40003819720E+02  0.00000000000E+00 0.  1.
</event>
<event>
12    1  0.8461994E-002  0.1791708E+03  0.7818608E-02  0.1169584E+00
         21   -1    0    0  503  502  0.00000000000E+00  0.00000000000E+00  0.37790894319E+03  0.37790894319E+03  0.00000000000E+00 0. -1.
         21   -1    0    0  501  503 -0.00000000000E+00 -0.00000000000E+00 -0.94408653086E+02  0.94408653086E+02  0.00000000000E+00 0. -1.
          6    2    1    2  501    0 -0.10448782445E+02 -0.48819205663E+02  0.61339760022E+02  0.18937992337E+03  0.17207468530E+03 0.  0.
         24    2    3    3    0    0  0.23107941445E+01 -0.32336934631E+02 -0.11349340251E+02  0.11361537129E+03  0.10829879020E+03 0.  0.
         -6    2    1    2    0  502  0.10448782445E+02  0.48819205663E+02  0.22216053008E+03  0.28293767290E+03  0.16794622272E+03 0.  0.
        -24    2    5    5    0    0 -0.30327332090E+02  0.58302559123E+02  0.68075695915E+02  0.12319772289E+03  0.78895139773E+02 0.  0.
          5    1    3    3  501    0 -0.12759576590E+02 -0.16482271033E+02  0.72689100273E+02  0.75764552079E+02  0.47000000000E+01 0. -1.
        -13    1    4    4    0    0 -0.49851262687E+02 -0.28280028289E+02 -0.19758503216E+02  0.60624308992E+02  0.00000000000E+00 0.  1.
         14    1    4    4    0    0  0.52162056831E+02 -0.40569063418E+01  0.84091629646E+01  0.52991062300E+02  0.00000000000E+00 0. -1.
         -5    1    5    5    0  502  0.40776114535E+02 -0.94833534599E+01  0.15408483416E+03  0.15973995001E+03  0.47000000000E+01 0.  1.
         11    1    6    6    0    0  0.10112018859E+02  0.42137906177E+02  0.66804847686E+02  0.79628787111E+02  0.00000000000E+00 0. -1.
        -12    1    6    6    0    0 -0.40439350948E+02  0.16164652946E+02  0.12708482288E+01  0.43568935782E+02  0.00000000000E+00 0.  1.
</event>
<event>
12    1  0.8461994E-002  0.2160308E+03  0.7818608E-02  0.1136977E+00
         21   -1    0    0  503  502  0.00000000000E+00  0.00000000000E+00  0.20363549456E+03  0.20363549456E+03  0.00000000000E+00 0.  1.
         21   -1    0    0  501  503 -0.00000000000E+00 -0.00000000000E+00 -0.44069008716E+03  0.44069008716E+03  0.00000000000E+00 0.  1.
          6    2    1    2  501    0 -0.12967479840E+03  0.47442266022E+01 -0.34208180557E+03  0.40458532434E+03  0.17271728907E+03 0.  0.
         24    2    3    3    0    0 -0.14050307506E+03 -0.30664896712E+02 -0.32350652480E+03  0.36289373472E+03  0.79711612198E+02 0.  0.
         -6    2    1    2    0  502  0.12967479840E+03 -0.47442266022E+01  0.10502721297E+03  0.23974025738E+03  0.17206572733E+03 0.  0.
        -24    2    5    5    0    0  0.11303395397E+03  0.53295991535E+02  0.46907133424E+02  0.15580207614E+03  0.80354653255E+02 0.  0.
          5    1    3    3  501    0  0.10828276664E+02  0.35409123314E+02 -0.18575280773E+02  0.41691589622E+02  0.47000000000E+01 0. -1.
        -13    1    4    4    0    0 -0.98187821523E+02  0.94726918472E+01 -0.25199508832E+03  0.27061430990E+03  0.00000000000E+00 0.  1.
         14    1    4    4    0    0 -0.42315253537E+02 -0.40137588559E+02 -0.71511436476E+02  0.92279424814E+02  0.00000000000E+00 0. -1.
         -5    1    5    5    0  502  0.16640844427E+02 -0.58040218138E+02  0.58120079541E+02  0.83938181244E+02  0.47000000000E+01 0.  1.
         11    1    6    6    0    0  0.86559017277E+02 -0.25325991579E+01  0.23489701733E+02  0.89725378896E+02  0.00000000000E+00 0. -1.
        -12    1    6    6    0    0  0.26474936691E+02  0.55828590693E+02  0.23417431691E+02  0.66076697244E+02  0.00000000000E+00 0.  1.
</event>
<event>
12    1  0.8461994E-002  0.2317381E+03  0.7818608E-02  0.1126560E+00
         21   -1    0    0  503  502  0.00000000000E+00  0.00000000000E+00  0.45388008049E+03  0.45388008049E+03  0.00000000000E+00 0.  1.
         21   -1    0    0  501  503 -0.00000000000E+00 -0.00000000000E+00 -0.35521119451E+03  0.35521119451E+03  0.00000000000E+00 0.  1.
          6    2    1    2  501    0 -0.15219679406E+03  0.23756500368E+02 -0.28306459368E+03  0.36582522666E+03  0.17313086620E+03 0.  0.
         24    2    3    3    0    0 -0.61351217134E+02  0.67703745018E+02 -0.20759807823E+03  0.23972382257E+03  0.77606572455E+02 0.  0.
         -6    2    1    2    0  502  0.15219679406E+03 -0.23756500368E+02  0.38173347966E+03  0.44326604834E+03  0.16442659362E+03 0.  0.
        -24    2    5    5    0    0  0.97987528858E+02 -0.43892681932E+02  0.13921663009E+03  0.19390562132E+03  0.81792399069E+02 0.  0.
          5    1    3    3  501    0 -0.90845576922E+02 -0.43947244650E+02 -0.75466515450E+02  0.12610140409E+03  0.47000000000E+01 0. -1.
        -13    1    4    4    0    0 -0.46019528246E+02  0.92444333446E+01 -0.14628711708E+03  0.15363325536E+03  0.00000000000E+00 0.  1.
         14    1    4    4    0    0 -0.15331688887E+02  0.58459311674E+02 -0.61310961150E+02  0.86090567210E+02  0.00000000000E+00 0. -1.
         -5    1    5    5    0  502  0.54209265198E+02  0.20136181564E+02  0.24251684957E+03  0.24936042703E+03  0.47000000000E+01 0.  1.
         13    1    6    6    0    0  0.78555640087E+01 -0.42571648205E+02  0.59429496899E+02  0.73524963233E+02  0.00000000000E+00 0. -1.
        -14    1    6    6    0    0  0.90131964849E+02 -0.13210337272E+01  0.79787133193E+02  0.12038065808E+03  0.00000000000E+00 0.  1.
</event>
<event>
12    1  0.8461994E-002  0.1898925E+03  0.7818608E-02  0.1158792E+00
         21   -1    0    0  503  502  0.00000000000E+00  0.00000000000E+00  0.36222655934E+03  0.36222655934E+03  0.00000000000E+00 0. -1.
         21   -1    0    0  501  503 -0.00000000000E+00 -0.00000000000E+00 -0.99077071550E+02  0.99077071550E+02  0.00000000000E+00 0. -1.
          6    2    1    2  501    0  0.75772230791E+02  0.18026249724E+02  0.13728873626E+03  0.23348772228E+03  0.17205215114E+03 0.  0.
         24    2    3    3    0    0  0.38970003549E+02 -0.12201977301E+02  0.12277910000E+01  0.89255893388E+02  0.79357152211E+02 0.  0.
         -6    2    1    2    0  502 -0.75772230791E+02 -0.18026249724E+02  0.12586075153E+03  0.22781590861E+03  0.17318424525E+03 0.  0.
        -24    2    5    5    0    0 -0.11844631120E+03 -0.27939216297E+02  0.94569629031E+02  0.17377362524E+03  0.80272845041E+02 0.  0.
          5    1    3    3  501    0  0.36802227242E+02  0.30228227025E+02  0.13606094526E+03  0.14423182889E+03  0.47000000000E+01 0. -1.
        -13    1    4    4    0    0  0.62979352546E+02 -0.28356544666E+01  0.48570198996E+01  0.63229980434E+02  0.00000000000E+00 0.  1.
         14    1    4    4    0    0 -0.24009348997E+02 -0.93663228342E+01 -0.36292288996E+01  0.26025912954E+02  0.00000000000E+00 0. -1.
         -5    1    5    5    0  502  0.42674080407E+02  0.99129665732E+01  0.31291122496E+02  0.54042283371E+02  0.47000000000E+01 0.  1.
         11    1    6    6    0    0 -0.13433954823E+02 -0.33162087570E+02  0.59604978061E+01  0.36272892472E+02  0.00000000000E+00 0. -1.
        -12    1    6    6    0    0 -0.10501235638E+03  0.52228712729E+01  0.88609131225E+02  0.13750073277E+03  0.00000000000E+00 0.  1.
</event>
<event>
12    1  0.8461994E-002  0.1898595E+03  0.7818608E-02  0.1158642E+00
         21   -1    0    0  503  502  0.00000000000E+00  0.00000000000E+00  0.78447367660E+02  0.78447367660E+02  0.00000000000E+00 0. -1.
         21   -1    0    0  501  503 -0.00000000000E+00 -0.00000000000E+00 -0.18762010073E+04  0.18762010073E+04  0.00000000000E+00 0. -1.
          6    2    1    2  501    0 -0.30983286438E+02  0.73989364642E+02 -0.17481659867E+04  0.17584199976E+04  0.17182019915E+03 0.  0.
         24    2    3    3    0    0  0.31694742526E+02  0.88791645392E+02 -0.10128139725E+04  0.10202382330E+04  0.78774337047E+02 0.  0.
         -6    2    1    2    0  502  0.30983286438E+02 -0.73989364642E+02 -0.49587652979E+02  0.19622837738E+03  0.17208210437E+03 0.  0.
        -24    2    5    5    0    0  0.27634676513E+02 -0.11152535965E+03 -0.43768967250E+01  0.13718376213E+03  0.74824101559E+02 0.  0.
          5    1    3    3  501    0 -0.62678028964E+02 -0.14802280750E+02 -0.73535201411E+03  0.73818176453E+03  0.47000000000E+01 0. -1.
        -13    1    4    4    0    0  0.34585569621E+02  0.51842988609E+02 -0.29712952567E+03  0.30359481570E+03  0.00000000000E+00 0.  1.
         14    1    4    4    0    0 -0.28908270952E+01  0.36948656783E+02 -0.71568444687E+03  0.71664341733E+03  0.00000000000E+00 0. -1.
         -5    1    5    5    0  502  0.33486099251E+01  0.37535995011E+02 -0.45210756254E+02  0.59044615258E+02  0.47000000000E+01 0.  1.
         11    1    6    6    0    0  0.36252760190E+02 -0.13560931561E+02 -0.31395040426E+01  0.38833207077E+02  0.00000000000E+00 0. -1.
        -12    1    6    6    0    0 -0.86180836772E+01 -0.97964428093E+02 -0.12373926824E+01  0.98350555049E+02  0.00000000000E+00 0.  1.
</event>
<event>
12    1  0.8461994E-002  0.1732355E+03  0.7818608E-02  0.1174575E+00
         21   -1    0    0  501  502  0.00000000000E+00  0.00000000000E+00  0.34283115295E+03  0.34283115295E+03  0.00000000000E+00 0.  1.
         21   -1    0    0  502  503 -0.00000000000E+00 -0.00000000000E+00 -0.11188236249E+03  0.11188236249E+03  0.00000000000E+00 0.  1.
         -6    2    1    2    0  503  0.22698407425E+02  0.10299363468E+02  0.90997076044E+01  0.17323964677E+03  0.17119543203E+03 0.  0.
        -24    2    3    3    0    0 -0.42408991021E+02  0.17891081240E+02 -0.28225798171E+02  0.97662594085E+02  0.81379808882E+02 0.  0.
          6    2    1    2  501    0 -0.22698407425E+02 -0.10299363468E+02  0.22184908285E+03  0.28147386867E+03  0.17143286907E+03 0.  0.
         24    2    5    5    0    0 -0.73595415962E+02  0.15087372257E+02  0.17987417510E+03  0.21062914615E+03  0.79787243884E+02 0.  0.
          5    1    5    5  501    0  0.50897008537E+02 -0.25386735726E+02  0.41974907748E+02  0.70844722522E+02  0.47000000000E+01 0. -1.
        -13    1    6    6    0    0 -0.42110697246E+02  0.45916343338E+01  0.17114903426E+03  0.17631331730E+03  0.00000000000E+00 0.  1.
         14    1    6    6    0    0 -0.31484718716E+02  0.10495737923E+02  0.87251408446E+01  0.34315828854E+02  0.00000000000E+00 0. -1.
         -5    1    3    3    0  503  0.65107398446E+02 -0.75917177715E+01  0.37325505775E+02  0.75577052685E+02  0.47000000000E+01 0.  1.
         13    1    4    4    0    0 -0.46803861430E+02 -0.23131337238E+02 -0.16990225140E+02  0.54902895711E+02  0.00000000000E+00 0. -1.
        -14    1    4    4    0    0  0.43948704097E+01  0.41022418477E+02 -0.11235573031E+02  0.42759698373E+02  0.00000000000E+00 0.  1.
</event>
<event>
12    1  0.8461994E-002  0.2002999E+03  0.7818608E-02  0.1149814E+00
         21   -1    0    0  503  502  0.00000000000E+00  0.00000000000E+00  0.44463440473E+02  0.44463440473E+02  0.00000000000E+00 0. -1.
         21   -1    0    0  501  503 -0.00000000000E+00 -0.00000000000E+00 -0.10930219633E+04  0.10930219633E+04  0.00000000000E+00 0.  1.
          6    2    1    2  501    0  0.65973944988E+02  0.77256255738E+02 -0.76447717090E+03  0.78989044212E+03  0.17082293539E+03 0.  0.
         24    2    3    3    0    0  0.53949406506E+02 -0.15460466081E+02 -0.27937213065E+03  0.29583581953E+03  0.79501448136E+02 0.  0.
         -6    2    1    2    0  502 -0.65973944988E+02 -0.77256255738E+02 -0.28408135191E+03  0.34759496164E+03  0.17262373065E+03 0.  0.
        -24    2    5    5    0    0 -0.13305807345E+02  0.82126743451E+01 -0.51185492479E+02  0.93938812348E+02  0.77201381439E+02 0.  0.
          5    1    3    3  501    0  0.12024538482E+02  0.92716721819E+02 -0.48510504025E+03  0.49405462259E+03  0.47000000000E+01 0. -1.
        -11    1    4    4    0    0  0.37283478920E+02 -0.30319799086E+02 -0.26490911964E+03  0.26923259402E+03  0.00000000000E+00 0.  1.
         12    1    4    4    0    0  0.16665927587E+02  0.14859333005E+02 -0.14463011019E+02  0.26603225508E+02  0.00000000000E+00 0. -1.
         -5    1    5    5    0  502 -0.52668137643E+02 -0.85468930083E+02 -0.23289585943E+03  0.25365614929E+03  0.47000000000E+01 0.  1.
         11    1    6    6    0    0 -0.31618854966E+01 -0.28235531037E+02  0.22106117324E+01  0.28497886537E+02  0.00000000000E+00 0. -1.
        -12    1    6    6    0    0 -0.10143921848E+02  0.36448205382E+02 -0.53396104211E+02  0.65440925811E+02  0.00000000000E+00 0.  1.
</event>
<event>
12    1  0.8461994E-002  0.1816910E+03  0.7818608E-02  0.1166525E+00
         21   -1    0    0  501  502  0.00000000000E+00  0.00000000000E+00  0.74346931350E+02  0.74346931350E+02  0.00000000000E+00 0.  1.
         21   -1    0    0  502  503 -0.00000000000E+00 -0.00000000000E+00 -0.44459182032E+03  0.44459182032E+03  0.00000000000E+00 0.  1.
         -6    2    1    2    0  503  0.41006912054E+02 -0.45122672525E+02 -0.21081976081E+03  0.27831022400E+03  0.17115486210E+03 0.  0.
        -24    2    3    3    0    0 -0.15488499871E+02  0.30107091936E+02 -0.11343854721E+03  0.14282428453E+03  0.79900823813E+02 0.  0.
          6    2    1    2  501    0 -0.41006912054E+02  0.45122672525E+02 -0.15942512815E+03  0.24062852767E+03  0.16961159875E+03 0.  0.
         24    2    5    5    0    0 -0.82632035640E+01  0.63911218309E+02 -0.22742997506E+02  0.98750922897E+02  0.71285177131E+02 0.  0.
          5    1    5    5  501    0 -0.32743708490E+02 -0.18788545784E+02 -0.13668213064E+03  0.14187760477E+03  0.47000000000E+01 0. -1.
        -11    1    6    6    0    0  0.29272776685E+02  0.44778945154E+02 -0.78797500039E+01  0.54075316403E+02  0.00000000000E+00 0.  1.
         12    1    6    6    0    0 -0.37535980249E+02  0.19132273155E+02 -0.14863247503E+02  0.44675606494E+02  0.00000000000E+00 0. -1.
         -5    1    3    3    0  503  0.56495411925E+02 -0.75229764461E+02 -0.97381213609E+02  0.13548593947E+03  0.47000000000E+01 0.  1.
         13    1    4    4    0    0 -0.22945106163E+02 -0.52534288153E+01 -0.10235188715E+03  0.10502373643E+03  0.00000000000E+00 0. -1.
        -14    1    4    4    0    0  0.74566062918E+01  0.35360520751E+02 -0.11086660055E+02  0.37800548096E+02  0.00000000000E+00 0.  1.
</event>
<event>
12    1  0.8461994E-002  0.1741627E+03  0.7818608E-02  0.1174739E+00
         21   -1    0    0  503  502  0.00000000000E+00  0.00000000000E+00  0.55172645214E+03  0.55172645214E+03  0.00000000000E+00 0.  1.
         21   -1    0    0  501  503 -0.00000000000E+00 -0.00000000000E+00 -0.65134161475E+02  0.65134161475E+02  0.00000000000E+00 0.  1.
          6    2    1    2  501    0  0.27281291746E+01  0.11121821510E+01  0.11589382518E+03  0.20919852107E+03  0.17413776978E+03 0.  0.
         24    2    3    3    0    0  0.36475730819E+02 -0.77710838214E+01 -0.14118001061E+01  0.86721940631E+02  0.78280477290E+02 0.  0.
         -6    2    1    2    0  502 -0.27281291746E+01 -0.11121821510E+01  0.37069846548E+03  0.40766209255E+03  0.16959466310E+03 0.  0.
        -24    2    5    5    0    0 -0.12789026572E+02 -0.60091775698E+02  0.16378956849E+03  0.19222487254E+03  0.79679345931E+02 0.  0.
          5    1    3    3  501    0 -0.33747601645E+02  0.88832659725E+01  0.11730562529E+03  0.12247658044E+03  0.47000000000E+01 0. -1.
        -13    1    4    4    0    0 -0.16302300357E+01  0.31701913171E+02  0.15038119686E+01  0.31779402120E+02  0.00000000000E+00 0.  1.
         14    1    4    4    0    0  0.38105960855E+02 -0.39472996993E+02 -0.29156120747E+01  0.54942538511E+02  0.00000000000E+00 0. -1.
         -5    1    5    5    0  502  0.10060897397E+02  0.58979593547E+02  0.20690889699E+03  0.21543722001E+03  0.47000000000E+01 0.  1.
         11    1    6    6    0    0  0.18598346332E+02  0.26486380549E+01  0.62954316118E+01  0.19812779437E+02  0.00000000000E+00 0. -1.
        -12    1    6    6    0    0 -0.31387372904E+02 -0.62740413753E+02  0.15749413688E+03  0.17241209310E+03  0.00000000000E+00 0.  1.
</event>
<event>
12    1  0.8461994E-002  0.1784933E+03  0.7818608E-02  0.1171117E+00
         21   -1    0    0  501  502  0.00000000000E+00  0.00000000000E+00  0.11549611994E+03  0.11549611994E+03  0.00000000000E+00 0. -1.
         21   -1    0    0  502  503 -0.00000000000E+00 -0.00000000000E+00 -0.48239459490E+03  0.48239459490E+03  0.00000000000E+00 0. -1.
         -6    2    1    2    0  503  0.35053790828E+02 -0.29389446069E+02 -0.38218799761E+03  0.41874376198E+03  0.16488227585E+03 0.  0.
        -24    2    3    3    0    0  0.61116500428E+02 -0.67023919088E+02 -0.31856325476E+03  0.34022105002E+03  0.77719902470E+02 0.  0.
          6    2    1    2  501    0 -0.35053790828E+02  0.29389446069E+02  0.15289522651E+02  0.17914695285E+03  0.17253218083E+03 0.  0.
         24    2    5    5    0    0 -0.71207911401E+02 -0.20451838263E+02 -0.16014992637E+02  0.10991302522E+03  0.79596160640E+02 0.  0.
          5    1    5    5  501    0  0.36154120573E+02  0.49841284332E+02  0.31304515288E+02  0.69233927635E+02  0.47000000000E+01 0. -1.
        -11    1    6    6    0    0 -0.59185541011E+02 -0.45564785497E+02  0.52519053931E+01  0.74877636530E+02  0.00000000000E+00 0.  1.
         12    1    6    6    0    0 -0.12022370390E+02  0.25112947234E+02 -0.21266898031E+02  0.35035388686E+02  0.00000000000E+00 0. -1.
         -5    1    3    3    0  503 -0.26062709600E+02  0.37634473019E+02 -0.63624742853E+02  0.78522711964E+02  0.47000000000E+01 0.  1.
         11    1    4    4    0    0  0.48758850081E+02 -0.12554921029E+02 -0.23053147842E+03  0.23596570523E+03  0.00000000000E+00 0. -1.
        -12    1    4    4    0    0  0.12357650348E+02 -0.54468998058E+02 -0.88031776341E+02  0.10425534479E+03  0.00000000000E+00 0.  1.
</event>
<event>
12    1  0.8461994E-002  0.1793227E+03  0.7818608E-02  0.1168776E+00
         21   -1    0    0  501  502  0.00000000000E+00  0.00000000000E+00  0.57085799514E+03  0.57085799514E+03  0.00000000000E+00 0.  1.
         21   -1    0    0  502  503 -0.00000000000E+00 -0.00000000000E+00 -0.96819611902E+02  0.96819611902E+02  0.00000000000E+00 0.  1.
         -6    2    1    2    0  503  0.37790783962E+02  0.31526835148E+02  0.20550117152E+02  0.18049639214E+03  0.17243710614E+03 0.  0.
        -24    2    3    3    0    0 -0.37871765020E+02  0.79271118093E+01  0.40430927500E+02  0.98648332418E+02  0.81238684769E+02 0.  0.
          6    2    1    2  501    0 -0.37790783962E+02 -0.31526835148E+02  0.45348826609E+03  0.48718121490E+03  0.17109016333E+03 0.  0.
         24    2    5    5    0    0  0.41009757422E+02 -0.10291876100E+02  0.30287062164E+03  0.31580964892E+03  0.78850478642E+02 0.  0.
          5    1    5    5  501    0 -0.78800541384E+02 -0.21234959048E+02  0.15061764444E+03  0.17137156598E+03  0.47000000000E+01 0. -1.
        -11    1    6    6    0    0 -0.13284645831E+02 -0.25728563868E+02  0.62220248173E+02  0.68627983332E+02  0.00000000000E+00 0.  1.
         12    1    6    6    0    0  0.54294403253E+02  0.15436687767E+02  0.24065037347E+03  0.24718166559E+03  0.00000000000E+00 0. -1.
         -5    1    3    3    0  503  0.75662548982E+02  0.23599723339E+02 -0.19880810347E+02  0.81848059722E+02  0.47000000000E+01 0.  1.
         13    1    4    4    0    0 -0.47794219087E+02  0.22362528432E+02  0.54738704376E+02  0.76030887228E+02  0.00000000000E+00 0. -1.
        -14    1    4    4    0    0  0.99224540667E+01 -0.14435416623E+02 -0.14307776876E+02  0.22617445190E+02  0.00000000000E+00 0.  1.
</event>
<event>
12    1  0.8461994E-002  0.2258228E+03  0.7818608E-02  0.1130360E+00
         21   -1    0    0  501  502  0.00000000000E+00  0.00000000000E+00  0.12405686268E+04  0.12405686268E+04  0.00000000000E+00 0.  1.
         21   -1    0    0  502  503 -0.00000000000E+00 -0.00000000000E+00 -0.51738502532E+02  0.51738502532E+02  0.00000000000E+00 0.  1.
         -6    2    1    2    0  503 -0.33460739333E+02 -0.13448051536E+03  0.28721991646E+03  0.36284658726E+03  0.17308303031E+03 0.  0.
        -24    2    3    3    0    0 -0.38458908199E+01 -0.12162683161E+03  0.29557275013E+03  0.32916994448E+03  0.78623944750E+02 0.  0.
          6    2    1    2  501    0  0.33460739333E+02  0.13448051536E+03  0.90161020780E+03  0.92946054207E+03  0.17830115637E+03 0.  0.
         24    2    5    5    0    0 -0.17360643680E+02  0.11702056052E+03  0.81550330394E+03  0.82785270828E+03  0.79367904962E+02 0.  0.
          5    1    5    5  501    0  0.50821383013E+02  0.17459954842E+02  0.86106903864E+02  0.10160783379E+03  0.47000000000E+01 0. -1.
        -13    1    6    6    0    0  0.19466986541E+02  0.76977588007E+02  0.33508484083E+03  0.34436370769E+03  0.00000000000E+00 0.  1.
         14    1    6    6    0    0 -0.36827630221E+02  0.40042972515E+02  0.48041846310E+03  0.48348900058E+03  0.00000000000E+00 0. -1.
         -5    1    3    3    0  503 -0.29614848513E+02 -0.12853683755E+02 -0.83528336654E+01  0.33676642777E+02  0.47000000000E+01 0.  1.
         13    1    4    4    0    0 -0.38963860098E+02 -0.69210210106E+02  0.19357184716E+03  0.20923263510E+03  0.00000000000E+00 0. -1.
        -14    1    4    4    0    0  0.35117969278E+02 -0.52416621503E+02  0.10200090296E+03  0.11993730938E+03  0.00000000000E+00 0.  1.
</event>
<event>
12    1  0.8461994E-002  0.1792236E+03  0.7818608E-02  0.1168559E+00
         21   -1    0    0  501  502  0.00000000000E+00  0.00000000000E+00  0.26900201660E+03  0.26900201660E+03  0.00000000000E+00 0. -1.
         21   -1    0    0  502  503 -0.00000000000E+00 -0.00000000000E+00 -0.14391182341E+03  0.14391182341E+03  0.00000000000E+00 0. -1.
         -6    2    1    2    0  503  0.52813652882E+02  0.12462325219E+02 -0.22657244862E+02  0.18064156776E+03  0.17080232369E+03 0.  0.
        -24    2    3    3    0    0  0.78389151908E+02 -0.40985426792E+02 -0.38022296911E+02  0.11924984869E+03  0.70357423240E+02 0.  0.
          6    2    1    2  501    0 -0.52813652882E+02 -0.12462325219E+02  0.14774743805E+03  0.23227227225E+03  0.17081133313E+03 0.  0.
         24    2    5    5    0    0 -0.40525759060E+02 -0.10109242080E+02  0.17734415180E+03  0.19979790082E+03  0.81998287002E+02 0.  0.
          5    1    5    5  501    0 -0.12287893822E+02 -0.23530831391E+01 -0.29596713751E+02  0.32474371429E+02  0.47000000000E+01 0. -1.
        -13    1    6    6    0    0  0.21070650377E+02 -0.98732998187E+01  0.89728957799E+02  0.92697034603E+02  0.00000000000E+00 0.  1.
         14    1    6    6    0    0 -0.61596409437E+02 -0.23594226154E+00  0.87615194002E+02  0.10710086622E+03  0.00000000000E+00 0. -1.
         -5    1    3    3    0  503 -0.25575499026E+02  0.53447752011E+02  0.15365052049E+02  0.61391719066E+02  0.47000000000E+01 0.  1.
         11    1    4    4    0    0  0.14216675415E+02  0.19938914981E+02 -0.97265831775E+01  0.26349205126E+02  0.00000000000E+00 0. -1.
        -12    1    4    4    0    0  0.64172476493E+02 -0.60924341772E+02 -0.28295713734E+02  0.92900643568E+02  0.00000000000E+00 0.  1.
</event>
<event>
12    1  0.8461994E-002  0.2286113E+03  0.7818608E-02  0.1127714E+00
         21   -1    0    0  501  502  0.00000000000E+00  0.00000000000E+00  0.14220672489E+03  0.14220672489E+03  0.00000000000E+00 0.  1.
         21   -1    0    0  502  503 -0.00000000000E+00 -0.00000000000E+00 -0.38306594998E+03  0.38306594998E+03  0.00000000000E+00 0.  1.
         -6    2    1    2    0  503  0.96937786337E+02  0.11554111955E+03 -0.65972104603E+02  0.23743828849E+03  0.17110797038E+03 0.  0.
        -24    2    3    3    0    0 -0.10975288332E+02  0.58444902240E+02 -0.53658234348E+02  0.11464198921E+03  0.82020217174E+02 0.  0.
          6    2    1    2  501    0 -0.96937786337E+02 -0.11554111955E+03 -0.17488712049E+03  0.28783438638E+03  0.17180350504E+03 0.  0.
         24    2    5    5    0    0 -0.86587500005E+02 -0.11904209344E+03 -0.68649650085E+02  0.18093314522E+03  0.79722101161E+02 0.  0.
          5    1    5    5  501    0 -0.10350286333E+02  0.35009738918E+01 -0.10623747040E+03  0.10690124117E+03  0.47000000000E+01 0. -1.
        -11    1    6    6    0    0 -0.35208560435E+02 -0.96519817853E+02 -0.70833263923E+02  0.12479210409E+03  0.00000000000E+00 0.  1.
         12    1    6    6    0    0 -0.51378939570E+02 -0.22522275588E+02  0.21836138384E+01  0.56141041123E+02  0.00000000000E+00 0. -1.
         -5    1    3    3    0  503  0.10791307467E+03  0.57096217310E+02 -0.12313870255E+02  0.12279629928E+03  0.47000000000E+01 0.  1.
         11    1    4    4    0    0 -0.22185601159E+02 -0.45072411830E+01 -0.44658924850E+02  0.50069308869E+02  0.00000000000E+00 0. -1.
        -12    1    4    4    0    0  0.11210312827E+02  0.62952143423E+02 -0.89993094981E+01  0.64572680343E+02  0.00000000000E+00 0.  1.
</event>
<event>
12    1  0.8461994E-002  0.2288362E+03  0.7818608E-02  0.1127606E+00
         21   -1    0    0  503  502  0.00000000000E+00  0.00000000000E+00  0.30375426819E+03  0.30375426819E+03  0.00000000000E+00 0. -1.
         21   -1    0    0  501  503 -0.00000000000E+00 -0.00000000000E+00 -0.17178372495E+03  0.17178372495E+03  0.00000000000E+00 0.  1.
          6    2    1    2  501    0 -0.66318286704E+02  0.13642376616E+03  0.66269885926E+02  0.23745694443E+03  0.17024847592E+03 0.  0.
         24    2    3    3    0    0 -0.51719463061E+02  0.16547459685E+03  0.71981769521E+02  0.20411339888E+03  0.80150853987E+02 0.  0.
         -6    2    1    2    0  502  0.66318286704E+02 -0.13642376616E+03  0.65700657319E+02  0.23808104871E+03  0.17133724131E+03 0.  0.
        -24    2    5    5    0    0 -0.24819062458E+01 -0.82204695298E+02  0.91627973066E+02  0.14660706391E+03  0.79587523843E+02 0.  0.
          5    1    3    3  501    0 -0.14598823644E+02 -0.29050830696E+02 -0.57118835953E+01  0.33343545554E+02  0.47000000000E+01 0. -1.
        -11    1    4    4    0    0 -0.23640807258E+02  0.34805139970E+02 -0.14978259155E+02  0.44661323127E+02  0.00000000000E+00 0.  1.
         12    1    4    4    0    0 -0.28078655802E+02  0.13066945688E+03  0.86960028675E+02  0.15945207575E+03  0.00000000000E+00 0. -1.
         -5    1    5    5    0  502  0.68800192950E+02 -0.54219070859E+02 -0.25927315748E+02  0.91473984808E+02  0.47000000000E+01 0.  1.
         11    1    6    6    0    0 -0.22166736453E+02 -0.24689998687E+02  0.77344701762E+02  0.84161529994E+02  0.00000000000E+00 0. -1.
        -12    1    6    6    0    0  0.19684830207E+02 -0.57514696611E+02  0.14283271304E+02  0.62445533913E+02  0.00000000000E+00 0.  1.
</event>
<event>
12    1  0.8461994E-002  0.3312296E+03  0.7818608E-02  0.1071078E+00
         21   -1    0    0  503  502  0.00000000000E+00  0.00000000000E+00  0.63964823102E+03  0.63964823102E+03  0.00000000000E+00 0. -1.
         21   -1    0    0  501  503 -0.00000000000E+00 -0.00000000000E+00 -0.25275861146E+03  0.25275861146E+03  0.00000000000E+00 0.  1.
          6    2    1    2  501    0  0.22268895723E+03 -0.17488386334E+03 -0.63859709566E+02  0.33304292010E+03  0.16329356016E+03 0.  0.
         24    2    3    3    0    0  0.49139044806E+02 -0.90363420050E+02 -0.86819047253E+00  0.12993383877E+03  0.79384225741E+02 0.  0.
         -6    2    1    2    0  502 -0.22268895723E+03  0.17488386334E+03  0.45074932913E+03  0.55936392239E+03  0.17186710745E+03 0.  0.
        -24    2    5    5    0    0 -0.21550701734E+03  0.19071414526E+03  0.45189536852E+03  0.54132004551E+03  0.77477789456E+02 0.  0.
          5    1    3    3  501    0  0.17354991243E+03 -0.84520443293E+02 -0.62991519094E+02  0.20310908132E+03  0.47000000000E+01 0. -1.
        -13    1    4    4    0    0  0.43886832293E+02 -0.10198096927E+03  0.12181685049E+02  0.11168959483E+03  0.00000000000E+00 0.  1.
         14    1    4    4    0    0  0.52522125122E+01  0.11617549219E+02 -0.13049875521E+02  0.18244243948E+02  0.00000000000E+00 0. -1.
         -5    1    5    5    0  502 -0.71819398921E+01 -0.15830281920E+02 -0.11460393897E+01  0.18043876871E+02  0.47000000000E+01 0.  1.
         11    1    6    6    0    0 -0.40203194385E+02  0.48593628061E+02  0.16266301721E+03  0.17446172845E+03  0.00000000000E+00 0. -1.
        -12    1    6    6    0    0 -0.17530382296E+03  0.14212051720E+03  0.28923235131E+03  0.36685831706E+03  0.00000000000E+00 0.  1.
</event>
<event>
12    1  0.8461994E-002  0.1802830E+03  0.7818608E-02  0.1168225E+00
         21   -1    0    0  501  502  0.00000000000E+00  0.00000000000E+00  0.34096891705E+03  0.34096891705E+03  0.00000000000E+00 0.  1.
         21   -1    0    0  502  503 -0.00000000000E+00 -0.00000000000E+00 -0.11652563487E+03  0.11652563487E+03  0.00000000000E+00 0.  1.
         -6    2    1    2    0  503  0.32137751679E+01 -0.41783543807E+02  0.11967060048E+02  0.18067971454E+03  0.17534467724E+03 0.  0.
        -24    2    3    3    0    0  0.28614093878E+02  0.39827064515E+02  0.21929849876E+02  0.94500745166E+02  0.77746453842E+02 0.  0.
          6    2    1    2  501    0 -0.32137751679E+01  0.41783543807E+02  0.21247622214E+03  0.27681483738E+03  0.17240683378E+03 0.  0.
         24    2    5    5    0    0 -0.38398899103E+02  0.63589159854E+02  0.20859571135E+03  0.23497435218E+03  0.78630265703E+02 0.  0.
          5    1    5    5  501    0  0.35185123935E+02 -0.21805616047E+02  0.38805107833E+01  0.41840485196E+02  0.47000000000E+01 0. -1.
        -13    1    6    6    0    0 -0.40050044333E+01  0.64799205805E+02  0.86701437797E+02  0.10831489486E+03  0.00000000000E+00 0.  1.
         14    1    6    6    0    0 -0.34393894670E+02 -0.12100459513E+01  0.12189427355E+03  0.12665945731E+03  0.00000000000E+00 0. -1.
         -5    1    3    3    0  503 -0.25400318711E+02 -0.81610608322E+02 -0.99627898283E+01  0.86178969374E+02  0.47000000000E+01 0.  1.
         11    1    4    4    0    0  0.32446911067E+02 -0.45118823258E+01  0.35175241912E+02  0.48067210897E+02  0.00000000000E+00 0. -1.
        -12    1    4    4    0    0 -0.38328171880E+01  0.44338946841E+02 -0.13245392036E+02  0.46433534269E+02  0.00000000000E+00 0.  1.
</event>
<event>
12    1  0.8461994E-002  0.1751769E+03  0.7818608E-02  0.1172861E+00
         21   -1    0    0  503  502  0.00000000000E+00  0.00000000000E+00  0.16075805195E+03  0.16075805195E+03  0.00000000000E+00 0.  1.
         21   -1    0    0  501  503 -0.00000000000E+00 -0.00000000000E+00 -0.24907970312E+03  0.24907970312E+03  0.00000000000E+00 0.  1.
          6    2    1    2  501    0  0.23405850310E+02  0.23886119761E+02 -0.14421135877E+03  0.22596119456E+03  0.17071369278E+03 0.  0.
         24    2    3    3    0    0  0.25536724858E+02 -0.52215012209E+02 -0.83639594221E+02  0.12856021113E+03  0.78444976555E+02 0.  0.
         -6    2    1    2    0  502 -0.23405850310E+02 -0.23886119761E+02  0.55889707598E+02  0.18387656051E+03  0.17195508002E+03 0.  0.
        -24    2    5    5    0    0 -0.58359270405E+02  0.22119521544E+02  0.71229105459E+02  0.12391284036E+03  0.79910755630E+02 0.  0.
          5    1    3    3  501    0 -0.21308745478E+01  0.76101131971E+02 -0.60571764548E+02  0.97400983434E+02  0.47000000000E+01 0. -1.
        -11    1    4    4    0    0  0.33494685200E+02 -0.18031314038E+02 -0.85326611225E+02  0.93421907526E+02  0.00000000000E+00 0.  1.
         12    1    4    4    0    0 -0.79579603419E+01 -0.34183698172E+02  0.16870170041E+01  0.35138303600E+02  0.00000000000E+00 0. -1.
         -5    1    5    5    0  502  0.34953420095E+02 -0.46005641306E+02 -0.15339397861E+02  0.59963720157E+02  0.47000000000E+01 0.  1.
         13    1    6    6    0    0 -0.31124025431E+02 -0.13129357282E+02 -0.64288921181E+01  0.34386271033E+02  0.00000000000E+00 0. -1.
        -14    1    6    6    0    0 -0.27235244974E+02  0.35248878827E+02  0.77657997577E+02  0.89526569325E+02  0.00000000000E+00 0.  1.
</event>
<event>
12    1  0.8461994E-002  0.1910339E+03  0.7818608E-02  0.1157591E+00
         21   -1    0    0  503  502  0.00000000000E+00  0.00000000000E+00  0.36329619760E+03  0.36329619760E+03  0.00000000000E+00 0. -1.
         21   -1    0    0  501  503 -0.00000000000E+00 -0.00000000000E+00 -0.10071815321E+03  0.10071815321E+03  0.00000000000E+00 0. -1.
          6    2    1    2  501    0 -0.64605185260E+02  0.49449441555E+02  0.14590801815E+03  0.24017103114E+03  0.17255114373E+03 0.  0.
         24    2    3    3    0    0  0.15724968177E+02 -0.10540819930E+02  0.10481498862E+03  0.13171600774E+03  0.77488975644E+02 0.  0.
         -6    2    1    2    0  502  0.64605185260E+02 -0.49449441555E+02  0.11667002624E+03  0.22384331967E+03  0.17284345376E+03 0.  0.
        -24    2    5    5    0    0  0.40001472481E+02 -0.47600387364E+02  0.15139478361E+03  0.18098704290E+03  0.77265869031E+02 0.  0.
          5    1    3    3  501    0 -0.80330153437E+02  0.59990261484E+02  0.41093029528E+02  0.10845502340E+03  0.47000000000E+01 0. -1.
        -11    1    4    4    0    0  0.36657750758E+02  0.47979814275E+01  0.18027279904E+02  0.41131425178E+02  0.00000000000E+00 0.  1.
         12    1    4    4    0    0 -0.20932782581E+02 -0.15338801357E+02  0.86787708716E+02  0.90584582561E+02  0.00000000000E+00 0. -1.
         -5    1    5    5    0  502  0.24603712779E+02 -0.18490541907E+01 -0.34724757374E+02  0.42856276770E+02  0.47000000000E+01 0.  1.
         11    1    6    6    0    0  0.62456135204E+02 -0.34015641344E+02  0.12468446752E+03  0.14354110604E+03  0.00000000000E+00 0. -1.
        -12    1    6    6    0    0 -0.22454662723E+02 -0.13584746020E+02  0.26710316088E+02  0.37445936868E+02  0.00000000000E+00 0.  1.
</event>
<event>
12    1  0.8461994E-002  0.1819474E+03  0.7818608E-02  0.1167082E+00
         21   -1    0    0  501  502  0.00000000000E+00  0.00000000000E+00  0.71777260364E+03  0.71777260364E+03  0.00000000000E+00 0. -1.
         21   -1    0    0  502  503 -0.00000000000E+00 -0.00000000000E+00 -0.67472319160E+02  0.67472319160E+02  0.00000000000E+00 0. -1.
         -6    2    1    2    0  503  0.52063397369E+02 -0.24428095515E+02  0.10106076273E+03  0.20813013000E+03  0.17261965141E+03 0.  0.
        -24    2    3    3    0    0  0.59802154644E+02 -0.34214649909E+02 -0.45071191471E+00  0.10574685746E+03  0.80220039596E+02 0.  0.
          6    2    1    2  501    0 -0.52063397369E+02  0.24428095515E+02  0.54923952175E+03  0.57711479280E+03  0.16760102214E+03 0.  0.
         24    2    5    5    0    0 -0.84839146801E+02  0.55881315560E+02  0.35431822651E+03  0.37691500224E+03  0.78759831258E+02 0.  0.
          5    1    5    5  501    0  0.32775749433E+02 -0.31453220045E+02  0.19492129524E+03  0.20019979056E+03  0.47000000000E+01 0. -1.
        -11    1    6    6    0    0 -0.79468480125E+02  0.27806572117E+02  0.16286457457E+03  0.18333934230E+03  0.00000000000E+00 0.  1.
         12    1    6    6    0    0 -0.53706666768E+01  0.28074743444E+02  0.19145365194E+03  0.19357565994E+03  0.00000000000E+00 0. -1.
         -5    1    3    3    0  503 -0.77387572756E+01  0.97865543937E+01  0.10151147465E+03  0.10238327254E+03  0.47000000000E+01 0.  1.
         13    1    4    4    0    0  0.53634561405E+00  0.57249238900E+01 -0.28424029747E+02  0.28999791158E+02  0.00000000000E+00 0. -1.
        -14    1    4    4    0    0  0.59265809030E+02 -0.39939573799E+02  0.27973317832E+02  0.76747066301E+02  0.00000000000E+00 0.  1.
</event>
<event>
12    1  0.8461994E-002  0.1908113E+03  0.7818608E-02  0.1158380E+00
         21   -1    0    0  501  502  0.00000000000E+00  0.00000000000E+00  0.22805912423E+03  0.22805912423E+03  0.00000000000E+00 0.  1.
         21   -1    0    0  502  503 -0.00000000000E+00 -0.00000000000E+00 -0.16388645586E+03  0.16388645586E+03  0.00000000000E+00 0.  1.
         -6    2    1    2    0  503  0.80811118455E+02 -0.28075642156E+02 -0.71011178933E+01  0.19094341865E+03  0.17055874267E+03 0.  0.
        -24    2    3    3    0    0 -0.22328533393E+02 -0.20696040688E+02 -0.18326398198E+02  0.86826449719E+02  0.79221752040E+02 0.  0.
          6    2    1    2  501    0 -0.80811118455E+02  0.28075642156E+02  0.71273786269E+02  0.20100216144E+03  0.16734167965E+03 0.  0.
         24    2    5    5    0    0 -0.52729197319E+02  0.82736862157E+02  0.52591111718E+02  0.13660048759E+03  0.79171406255E+02 0.  0.
          5    1    5    5  501    0 -0.28081921135E+02 -0.54661220001E+02  0.18682674552E+02  0.64401673853E+02  0.47000000000E+01 0. -1.
        -11    1    6    6    0    0 -0.16291844809E+02 -0.11612455525E+01 -0.15541012307E+02  0.22545415544E+02  0.00000000000E+00 0.  1.
         12    1    6    6    0    0 -0.36437352511E+02  0.83898107709E+02  0.68132124025E+02  0.11405507205E+03  0.00000000000E+00 0. -1.
         -5    1    3    3    0  503  0.10313965185E+03 -0.73796014679E+01  0.11225280305E+02  0.10411696893E+03  0.47000000000E+01 0.  1.
         11    1    4    4    0    0 -0.60637400250E+01 -0.44980766946E+02  0.96108312141E+01  0.46394034258E+02  0.00000000000E+00 0. -1.
        -12    1    4    4    0    0 -0.16264793368E+02  0.24284726258E+02 -0.27937229412E+02  0.40432415460E+02  0.00000000000E+00 0.  1.
</event>
<event>
12    1  0.8461994E-002  0.2395678E+03  0.7818608E-02  0.1120145E+00
         21   -1    0    0  501  502  0.00000000000E+00  0.00000000000E+00  0.68818261171E+02  0.68818261171E+02  0.00000000000E+00 0.  1.
         21   -1    0    0  502  503 -0.00000000000E+00 -0.00000000000E+00 -0.89905789486E+03  0.89905789486E+03  0.00000000000E+00 0. -1.
         -6    2    1    2    0  503 -0.11058864421E+03  0.12334587165E+03 -0.54634667589E+03  0.59640888816E+03  0.17252483687E+03 0.  0.
        -24    2    3    3    0    0 -0.67499207528E+02  0.80621997286E+02 -0.16701296587E+03  0.21222379923E+03  0.78035637558E+02 0.  0.
          6    2    1    2  501    0  0.11058864421E+03 -0.12334587165E+03 -0.28389295779E+03  0.37146726787E+03  0.17305683266E+03 0.  0.
         24    2    5    5    0    0 -0.12153493789E+02 -0.36870140424E+02 -0.12808021760E+03  0.15503394202E+03  0.78255136389E+02 0.  0.
          5    1    5    5  501    0  0.12274213800E+03 -0.86475731222E+02 -0.15581274020E+03  0.21643332585E+03  0.47000000000E+01 0. -1.
        -13    1    6    6    0    0  0.17279548831E+02  0.16619482678E+02 -0.21487234918E+02  0.32194584586E+02  0.00000000000E+00 0.  1.
         14    1    6    6    0    0 -0.29433042619E+02 -0.53489623102E+02 -0.10659298268E+03  0.12283935743E+03  0.00000000000E+00 0. -1.
         -5    1    3    3    0  503 -0.43089436686E+02  0.42723874360E+02 -0.37933371003E+03  0.38418508893E+03  0.47000000000E+01 0.  1.
         11    1    4    4    0    0 -0.62086070472E+02  0.83778774301E+02 -0.17399053499E+03  0.20284543238E+03  0.00000000000E+00 0. -1.
        -12    1    4    4    0    0 -0.54131370553E+01 -0.31567770147E+01  0.69775691257E+01  0.93783668516E+01  0.00000000000E+00 0.  1.
</event>
<event>
12    1  0.8461994E-002  0.1780266E+03  0.7818608E-02  0.1169840E+00
         21   -1    0    0  501  502  0.00000000000E+00  0.00000000000E+00  0.71202412194E+03  0.71202412194E+03  0.00000000000E+00 0.  1.
         21   -1    0    0  502  503 -0.00000000000E+00 -0.00000000000E+00 -0.63177712946E+02  0.63177712946E+02  0.00000000000E+00 0.  1.
         -6    2    1    2    0  503  0.39453420278E+02 -0.20804897817E+02  0.11338851565E+03  0.21106972015E+03  0.17234864415E+03 0.  0.
        -24    2    3    3    0    0  0.35106453150E+02 -0.52082191833E+02  0.96725866573E+01  0.10255129236E+03  0.80487209371E+02 0.  0.
          6    2    1    2  501    0 -0.39453420278E+02  0.20804897817E+02  0.53545789334E+03  0.56413211473E+03  0.17187341617E+03 0.  0.
         24    2    5    5    0    0 -0.47368675304E+00  0.76329040282E+02  0.32789412903E+03  0.34571243550E+03  0.78588685166E+02 0.  0.
          5    1    5    5  501    0 -0.38979733525E+02 -0.55524142465E+02  0.20756376431E+03  0.21841967923E+03  0.47000000000E+01 0. -1.
        -11    1    6    6    0    0 -0.26530010531E+02  0.67761006767E+02  0.28963693111E+03  0.29863848942E+03  0.00000000000E+00 0.  1.
         12    1    6    6    0    0  0.26056323778E+02  0.85680335149E+01  0.38257197916E+02  0.47073946080E+02  0.00000000000E+00 0. -1.
         -5    1    3    3    0  503  0.43469671278E+01  0.31277294016E+02  0.10371592900E+03  0.10851842780E+03  0.47000000000E+01 0.  1.
         11    1    4    4    0    0 -0.69832239739E+01  0.17066402939E+02  0.11220722428E+02  0.21585461268E+02  0.00000000000E+00 0. -1.
        -12    1    4    4    0    0  0.42089677124E+02 -0.69148594772E+02 -0.15481357708E+01  0.80965831088E+02  0.00000000000E+00 0.  1.
</event>
<event>
12    1  0.8461994E-002  0.2038847E+03  0.7818608E-02  0.1147136E+00
         21   -1    0    0  501  502  0.00000000000E+00  0.00000000000E+00  0.78309565237E+02  0.78309565237E+02  0.00000000000E+00 0. -1.
         21   -1    0    0  502  503 -0.00000000000E+00 -0.00000000000E+00 -0.87787044974E+03  0.87787044974E+03  0.00000000000E+00 0.  1.
         -6    2    1    2    0  503 -0.32336931703E+01  0.10984734495E+03 -0.70558151674E+03  0.73444825343E+03  0.17173253694E+03 0.  0.
        -24    2    3    3    0    0 -0.48562025852E+02  0.50511782698E+02 -0.23652938743E+03  0.25946682569E+03  0.80418728974E+02 0.  0.
          6    2    1    2  501    0  0.32336931703E+01 -0.10984734495E+03 -0.93979367761E+02  0.22173176154E+03  0.16809508186E+03 0.  0.
         24    2    5    5    0    0  0.72168130746E+01 -0.40582418876E+02 -0.11746952578E+03  0.14833303708E+03  0.80651009228E+02 0.  0.
          5    1    5    5  501    0 -0.39831199043E+01 -0.69264926076E+02  0.23490158020E+02  0.73398724460E+02  0.47000000000E+01 0. -1.
        -11    1    6    6    0    0 -0.86988620831E+01  0.22973302542E+02 -0.39196208948E+02  0.46257816930E+02  0.00000000000E+00 0.  1.
         12    1    6    6    0    0  0.15915675158E+02 -0.63555721418E+02 -0.78273316833E+02  0.10207522015E+03  0.00000000000E+00 0. -1.
         -5    1    3    3    0  503  0.45328332681E+02  0.59335562253E+02 -0.46905212931E+03  0.47498142774E+03  0.47000000000E+01 0.  1.
         13    1    4    4    0    0 -0.12642280471E+02 -0.42274708304E+01 -0.15182300544E+03  0.15240709874E+03  0.00000000000E+00 0. -1.
        -14    1    4    4    0    0 -0.35919745381E+02  0.54739253529E+02 -0.84706381988E+02  0.10705972695E+03  0.00000000000E+00 0.  1.
</event>
<event>
12    1  0.8461994E-002  0.2201688E+03  0.7818608E-02  0.1133946E+00
         21   -1    0    0  503  502  0.00000000000E+00  0.00000000000E+00  0.63345179838E+03  0.63345179838E+03  0.00000000000E+00 0.  1.
         21   -1    0    0  501  503 -0.00000000000E+00 -0.00000000000E+00 -0.11833948390E+03  0.11833948390E+03  0.00000000000E+00 0.  1.
          6    2    1    2  501    0 -0.96641278964E+02 -0.96977302831E+02  0.32793204905E+02  0.22159697483E+03  0.17113062526E+03 0.  0.
         24    2    3    3    0    0 -0.39736085299E+02 -0.90878375548E+02 -0.35897889408E+02  0.13206511225E+03  0.79465085360E+02 0.  0.
         -6    2    1    2    0  502  0.96641278964E+02  0.96977302831E+02  0.48231910958E+03  0.53019430745E+03  0.17242431999E+03 0.  0.
        -24    2    5    5    0    0 -0.17926858264E+02  0.58434053529E+02  0.24380600090E+03  0.26275827183E+03  0.76580888496E+02 0.  0.
          5    1    3    3  501    0 -0.56905193665E+02 -0.60989272831E+01  0.68691094313E+02  0.89531862585E+02  0.47000000000E+01 0. -1.
        -11    1    4    4    0    0 -0.16034560319E+02 -0.57456011200E+02 -0.59935640608E+02  0.84561110227E+02  0.00000000000E+00 0.  1.
         12    1    4    4    0    0 -0.23701524980E+02 -0.33422364348E+02  0.24037751201E+02  0.47504002019E+02  0.00000000000E+00 0. -1.
         -5    1    5    5    0  502  0.11456813723E+03  0.38543249302E+02  0.23851310868E+03  0.26743603562E+03  0.47000000000E+01 0.  1.
         13    1    6    6    0    0 -0.21667933219E+02  0.52528762014E+02  0.24812026964E+03  0.25454358836E+03  0.00000000000E+00 0. -1.
        -14    1    6    6    0    0  0.37410749544E+01  0.59052915146E+01 -0.43142687451E+01  0.82146834688E+01  0.00000000000E+00 0.  1.
</event>
<event>
12    1  0.8461994E-002  0.2978293E+03  0.7818608E-02  0.1086376E+00
         21   -1    0    0  501  502  0.00000000000E+00  0.00000000000E+00  0.11290811651E+03  0.11290811651E+03  0.00000000000E+00 0.  1.
         21   -1    0    0  502  503 -0.00000000000E+00 -0.00000000000E+00 -0.79664915972E+03  0.79664915972E+03  0.00000000000E+00 0.  1.
         -6    2    1    2    0  503 -0.20514958434E+03  0.13239470903E+03 -0.39743438606E+03  0.49643044170E+03  0.16992463416E+03 0.  0.
        -24    2    3    3    0    0 -0.11222413141E+03  0.67683261500E+02 -0.33177245113E+03  0.36544841644E+03  0.79399661155E+02 0.  0.
          6    2    1    2  501    0  0.20514958434E+03 -0.13239470903E+03 -0.28630665715E+03  0.41312683453E+03  0.17055077995E+03 0.  0.
         24    2    5    5    0    0  0.17245084409E+03 -0.41869194000E+02 -0.14703955371E+03  0.24377072278E+03  0.79443136231E+02 0.  0.
          5    1    5    5  501    0  0.32698740250E+02 -0.90525515032E+02 -0.13926710344E+03  0.16935611175E+03  0.47000000000E+01 0. -1.
        -13    1    6    6    0    0  0.15943272643E+03 -0.61488327952E+02 -0.12990674114E+03  0.21465174149E+03  0.00000000000E+00 0.  1.
         14    1    6    6    0    0  0.13018117653E+02  0.19619133953E+02 -0.17132812573E+02  0.29118981283E+02  0.00000000000E+00 0. -1.
         -5    1    3    3    0  503 -0.92925452930E+02  0.64711447531E+02 -0.65661934926E+02  0.13098202526E+03  0.47000000000E+01 0.  1.
         13    1    4    4    0    0 -0.36778885646E+02 -0.79802216914E+01 -0.14951765509E+03  0.15418138523E+03  0.00000000000E+00 0. -1.
        -14    1    4    4    0    0 -0.75445245762E+02  0.75663483192E+02 -0.18225479604E+03  0.21126703121E+03  0.00000000000E+00 0.  1.
</event>
<event>
12    1  0.8461994E-002  0.2280243E+03  0.7818608E-02  0.1128200E+00
         21   -1    0    0  503  502  0.00000000000E+00  0.00000000000E+00  0.22286386487E+04  0.22286386487E+04  0.00000000000E+00 0. -1.
         21   -1    0    0  501  503 -0.00000000000E+00 -0.00000000000E+00 -0.37536678851E+02  0.37536678851E+02  0.00000000000E+00 0.  1.
          6    2    1    2  501    0 -0.13158578943E+03 -0.72975838176E+02  0.39485339564E+03  0.45551136051E+03  0.17012084695E+03 0.  0.
         24    2    3    3    0    0 -0.13000494536E+03 -0.53433908488E+02  0.40235011599E+03  0.43400143490E+03  0.81946087514E+02 0.  0.
         -6    2    1    2    0  502  0.13158578943E+03  0.72975838176E+02  0.17962485743E+04  0.18106639671E+04  0.17133233280E+03 0.  0.
        -24    2    5    5    0    0 -0.19582056941E+01  0.15460918609E+02  0.74852668286E+03  0.75289025957E+03  0.79427158013E+02 0.  0.
          5    1    3    3  501    0 -0.15808440669E+01 -0.19541929688E+02 -0.74967203491E+01  0.21509925613E+02  0.47000000000E+01 0. -1.
        -13    1    4    4    0    0 -0.50380377120E+02 -0.30064756700E+02  0.69448308530E+02  0.90912812914E+02  0.00000000000E+00 0.  1.
         14    1    4    4    0    0 -0.79624568244E+02 -0.23369151788E+02  0.33290180746E+03  0.34308862198E+03  0.00000000000E+00 0. -1.
         -5    1    5    5    0  502  0.13354399513E+03  0.57514919567E+02  0.10477218914E+04  0.10577737075E+04  0.47000000000E+01 0.  1.
         11    1    6    6    0    0 -0.29169482820E+02 -0.49903630563E+01  0.59040011545E+03  0.59114131879E+03  0.00000000000E+00 0. -1.
        -12    1    6    6    0    0  0.27211277126E+02  0.20451281665E+02  0.15812656741E+03  0.16174894078E+03  0.00000000000E+00 0.  1.
</event>
<event>
12    1  0.8461994E-002  0.2131630E+03  0.7818608E-02  0.1139155E+00
         21   -1    0    0  501  502  0.00000000000E+00  0.00000000000E+00  0.73100994672E+03  0.73100994672E+03  0.00000000000E+00 0.  1.
         21   -1    0    0  502  503 -0.00000000000E+00 -0.00000000000E+00 -0.10895869534E+03  0.10895869534E+03  0.00000000000E+00 0. -1.
         -6    2    1    2    0  503 -0.11342894571E+03  0.54673262367E+02  0.35323513862E+02  0.21571876502E+03  0.17155624036E+03 0.  0.
        -24    2    3    3    0    0 -0.87815864045E+02  0.68582687006E+02  0.84209546571E+02  0.15860977939E+03  0.75170495861E+02 0.  0.
          6    2    1    2  501    0  0.11342894571E+03 -0.54673262367E+02  0.58672773751E+03  0.62424987704E+03  0.17199761532E+03 0.  0.
         24    2    5    5    0    0  0.39061838908E+02 -0.93688432642E+02  0.37514439052E+03  0.39656093833E+03  0.78891789194E+02 0.  0.
          5    1    5    5  501    0  0.74367106800E+02  0.39015170275E+02  0.21158334699E+03  0.22768893871E+03  0.47000000000E+01 0. -1.
        -13    1    6    6    0    0 -0.69124335773E+01 -0.15101593941E+02  0.82617572182E+01  0.18549838540E+02  0.00000000000E+00 0.  1.
         14    1    6    6    0    0  0.45974272485E+02 -0.78586838701E+02  0.36688263330E+03  0.37801109979E+03  0.00000000000E+00 0. -1.
         -5    1    3    3    0  503 -0.25613081662E+02 -0.13909424639E+02 -0.48886032710E+02  0.57108985634E+02  0.47000000000E+01 0.  1.
         13    1    4    4    0    0 -0.27627247810E+02  0.59742260756E+02  0.17048904154E+02  0.67993144321E+02  0.00000000000E+00 0. -1.
        -14    1    4    4    0    0 -0.60188616235E+02  0.88404262503E+01  0.67160642417E+02  0.90616635065E+02  0.00000000000E+00 0.  1.
</event>
<event>
12    1  0.8461994E-002  0.1933597E+03  0.7818608E-02  0.1159111E+00
         21   -1    0    0  501  502  0.00000000000E+00  0.00000000000E+00  0.10990822965E+03  0.10990822965E+03  0.00000000000E+00 0. -1.
         21   -1    0    0  502  503 -0.00000000000E+00 -0.00000000000E+00 -0.71939414002E+03  0.71939414002E+03  0.00000000000E+00 0. -1.
         -6    2    1    2    0  503 -0.29565257310E+02  0.33441625491E+02 -0.61064949159E+03  0.63593915066E+03  0.17185271314E+03 0.  0.
        -24    2    3    3    0    0 -0.84370948632E+02  0.27974539154E+02 -0.47289354362E+03  0.48750618924E+03  0.78313147946E+02 0.  0.
          6    2    1    2  501    0  0.29565257310E+02 -0.33441625491E+02  0.11635812165E+01  0.19336321902E+03  0.18813700803E+03 0.  0.
         24    2    5    5    0    0 -0.29195300169E+02 -0.24049835047E+02 -0.63179148229E+02  0.10559599463E+03  0.75684537351E+02 0.  0.
          5    1    5    5  501    0  0.58760557479E+02 -0.93917904441E+01  0.64342729446E+02  0.87767224381E+02  0.47000000000E+01 0. -1.
        -13    1    6    6    0    0 -0.52346300137E+02 -0.10775305870E+02 -0.24968416915E+02  0.58988678557E+02  0.00000000000E+00 0.  1.
         14    1    6    6    0    0  0.23150999968E+02 -0.13274529177E+02 -0.38210731314E+02  0.46607316078E+02  0.00000000000E+00 0. -1.
         -5    1    3    3    0  503  0.54805691322E+02  0.54670863375E+01 -0.13775594797E+03  0.14843296142E+03  0.47000000000E+01 0.  1.
         13    1    4    4    0    0 -0.34378695995E+02 -0.11185099259E+02 -0.31875596329E+03  0.32079957188E+03  0.00000000000E+00 0. -1.
        -14    1    4    4    0    0 -0.49992252637E+02  0.39159638412E+02 -0.15413758033E+03  0.16670661737E+03  0.00000000000E+00 0.  1.
</event>
<event>
12    1  0.8461994E-002  0.2409958E+03  0.7818608E-02  0.1119172E+00
         21   -1    0    0  501  502  0.00000000000E+00  0.00000000000E+00  0.73542721423E+03  0.73542721423E+03  0.00000000000E+00 0. -1.
         21   -1    0    0  502  503 -0.00000000000E+00 -0.00000000000E+00 -0.90249670053E+02  0.90249670053E+02  0.00000000000E+00 0.  1.
         -6    2    1    2    0  503  0.14313930855E+03  0.89346756622E+02  0.17599893159E+03  0.29822305690E+03  0.17172554607E+03 0.  0.
        -24    2    3    3    0    0  0.54799687301E+02  0.27465852361E+01  0.13912611377E+03  0.16905195696E+03  0.78815856012E+02 0.  0.
          6    2    1    2  501    0 -0.14313930855E+03 -0.89346756622E+02  0.46917861258E+03  0.52745382738E+03  0.17206761736E+03 0.  0.
         24    2    5    5    0    0 -0.25632083254E+02  0.35812529558E+01  0.10107660664E+03  0.13000604498E+03  0.77558121789E+02 0.  0.
          5    1    5    5  501    0 -0.11750722530E+03 -0.92928009577E+02  0.36810200594E+03  0.39744778240E+03  0.47000000000E+01 0. -1.
        -13    1    6    6    0    0 -0.18293795158E+02 -0.34418359907E+02  0.30416647964E+02  0.49441469571E+02  0.00000000000E+00 0.  1.
         14    1    6    6    0    0 -0.73382880958E+01  0.37999612863E+02  0.70659958678E+02  0.80564575405E+02  0.00000000000E+00 0. -1.
         -5    1    3    3    0  503  0.88339621249E+02  0.86600171385E+02  0.36872817822E+02  0.12917109994E+03  0.47000000000E+01 0.  1.
         11    1    4    4    0    0  0.19779631953E+02  0.94848379861E+01  0.13054030266E+03  0.13237056550E+03  0.00000000000E+00 0. -1.
        -12    1    4    4    0    0  0.35020055348E+02 -0.67382527501E+01  0.85858111086E+01  0.36681391455E+02  0.00000000000E+00 0.  1.
</event>
<event>
12    1  0.8461994E-002  0.1955048E+03  0.7818608E-02  0.1153829E+00
         21   -1    0    0  501  502  0.00000000000E+00  0.00000000000E+00  0.18233371851E+04  0.18233371851E+04  0.00000000000E+00 0.  1.
         21   -1    0    0  502  503 -0.00000000000E+00 -0.00000000000E+00 -0.23308376164E+02  0.23308376164E+02  0.00000000000E+00 0.  1.
         -6    2    1    2    0  503 -0.21885973862E+02  0.89102127673E+02  0.60208557319E+03  0.63303172047E+03  0.17263816689E+03 0.  0.
        -24    2    3    3    0    0  0.27457026881E+02  0.98131266292E+02  0.29717536899E+03  0.32398709635E+03  0.79188414063E+02 0.  0.
          6    2    1    2  501    0  0.21885973862E+02 -0.89102127673E+02  0.11979432357E+04  0.12136138408E+04  0.17138370254E+03 0.  0.
         24    2    5    5    0    0  0.42333994518E+02 -0.32498784189E+02  0.10431996702E+04  0.10475123022E+04  0.78537464386E+02 0.  0.
          5    1    5    5  501    0 -0.20448020656E+02 -0.56603343484E+02  0.15474356553E+03  0.16610153857E+03  0.47000000000E+01 0. -1.
        -11    1    6    6    0    0  0.45296184523E+02 -0.49037085475E+02  0.55148252755E+03  0.55550819821E+03  0.00000000000E+00 0.  1.
         12    1    6    6    0    0 -0.29621900050E+01  0.16538301286E+02  0.49171714266E+03  0.49200410401E+03  0.00000000000E+00 0. -1.
         -5    1    3    3    0  503 -0.49343000743E+02 -0.90291386196E+01  0.30491020421E+03  0.30904462412E+03  0.47000000000E+01 0.  1.
         13    1    4    4    0    0  0.30965941389E+01 -0.12738115161E+02  0.15507415392E+02  0.20305871202E+02  0.00000000000E+00 0. -1.
        -14    1    4    4    0    0  0.24360432742E+02  0.11086938145E+03  0.28166795359E+03  0.30368122515E+03  0.00000000000E+00 0.  1.
</event>
<event>
12    1  0.8461994E-002  0.1797758E+03  0.7818608E-02  0.1168114E+00
         21   -1    0    0  503  502  0.00000000000E+00  0.00000000000E+00  0.15145458986E+03  0.15145458986E+03  0.00000000000E+00 0.  1.
         21   -1    0    0  501  503 -0.00000000000E+00 -0.00000000000E+00 -0.29890018618E+03  0.29890018618E+03  0.00000000000E+00 0. -1.
          6    2    1    2  501    0  0.41856128766E+02  0.32658278692E+02 -0.19453949387E+03  0.26488665037E+03  0.17175803965E+03 0.  0.
         24    2    3    3    0    0  0.69052746535E+02  0.14104657542E+02 -0.47285951743E+02  0.11392444137E+03  0.75997328511E+02 0.  0.
         -6    2    1    2    0  502 -0.41856128766E+02 -0.32658278692E+02  0.47093897552E+02  0.18546812566E+03  0.17135370369E+03 0.  0.
        -24    2    5    5    0    0 -0.47300722653E+02  0.88802902686E+01 -0.29131205159E+02  0.98362140810E+02  0.80686217609E+02 0.  0.
          5    1    3    3  501    0 -0.27196617769E+02  0.18553621150E+02 -0.14725354213E+03  0.15096220900E+03  0.47000000000E+01 0. -1.
        -11    1    4    4    0    0  0.37047295878E+02  0.37921746732E+02 -0.12804318654E+01  0.53030184922E+02  0.00000000000E+00 0.  1.
         12    1    4    4    0    0  0.32005450657E+02 -0.23817089189E+02 -0.46005519877E+02  0.60894256448E+02  0.00000000000E+00 0. -1.
         -5    1    5    5    0  502  0.54445938868E+01 -0.41538568960E+02  0.76225102711E+02  0.87105984853E+02  0.47000000000E+01 0.  1.
         13    1    6    6    0    0  0.21305522749E+02 -0.55727033044E+01  0.10106557146E+01  0.22045447301E+02  0.00000000000E+00 0. -1.
        -14    1    6    6    0    0 -0.68606245401E+02  0.14452993573E+02 -0.30141860874E+02  0.76316693510E+02  0.00000000000E+00 0.  1.
</event>
<event>
12    1  0.8461994E-002  0.2152885E+03  0.7818608E-02  0.1137647E+00
         21   -1    0    0  501  502  0.00000000000E+00  0.00000000000E+00  0.83086146007E+02  0.83086146007E+02  0.00000000000E+00 0.  1.
         21   -1    0    0  502  503 -0.00000000000E+00 -0.00000000000E+00 -0.18769690709E+04  0.18769690709E+04  0.00000000000E+00 0.  1.
         -6    2    1    2    0  503  0.10811175780E+03  0.68605459508E+02 -0.17187232338E+04  0.17320242942E+04  0.17176652759E+03 0.  0.
        -24    2    3    3    0    0  0.15630160537E+02 -0.10334936293E+02 -0.96878805054E+03  0.97228137647E+03  0.80185256412E+02 0.  0.
          6    2    1    2  501    0 -0.10811175780E+03 -0.68605459508E+02 -0.75159691150E+02  0.22803092278E+03  0.17307299420E+03 0.  0.
         24    2    5    5    0    0 -0.80058539441E+02 -0.16591554101E+02 -0.11007711481E+03  0.15922869977E+03  0.80945402705E+02 0.  0.
          5    1    5    5  501    0 -0.28053218356E+02 -0.52013905406E+02  0.34917423663E+02  0.68802223009E+02  0.47000000000E+01 0. -1.
        -11    1    6    6    0    0 -0.72004317939E+02  0.73189530462E+01 -0.35724800573E+02  0.80712144387E+02  0.00000000000E+00 0.  1.
         12    1    6    6    0    0 -0.80542215026E+01 -0.23910507148E+02 -0.74352314239E+02  0.78516555380E+02  0.00000000000E+00 0. -1.
         -5    1    3    3    0  503  0.92481597260E+02  0.78940395801E+02 -0.74993518324E+03  0.75974291769E+03  0.47000000000E+01 0.  1.
         13    1    4    4    0    0 -0.14185241270E+01 -0.18267073145E+01  0.84410628481E+00  0.24620287837E+01  0.00000000000E+00 0. -1.
        -14    1    4    4    0    0  0.17048684664E+02 -0.85082289784E+01 -0.96963215682E+03  0.96981934769E+03  0.00000000000E+00 0.  1.
</event>
<event>
12    1  0.8461994E-002  0.2454881E+03  0.7818608E-02  0.1117770E+00
         21   -1    0    0  501  502  0.00000000000E+00  0.00000000000E+00  0.53966671453E+03  0.53966671453E+03  0.00000000000E+00 0.  1.
         21   -1    0    0  502  503 -0.00000000000E+00 -0.00000000000E+00 -0.19570911621E+03  0.19570911621E+03  0.00000000000E+00 0.  1.
         -6    2    1    2    0  503  0.16826327629E+02  0.17162552338E+03 -0.73161306940E+02  0.25615812395E+03  0.17471680530E+03 0.  0.
        -24    2    3    3    0    0 -0.17779642307E+01  0.41180936814E+02 -0.83850702493E+02  0.12387712374E+03  0.81336159015E+02 0.  0.
          6    2    1    2  501    0 -0.16826327629E+02 -0.17162552338E+03  0.41711890526E+03  0.47921770680E+03  0.16100616077E+03 0.  0.
         24    2    5    5    0    0 -0.22428751227E+02 -0.18088091766E+03  0.42216439240E+03  0.46638819340E+03  0.77937266312E+02 0.  0.
          5    1    5    5  501    0  0.56024235984E+01  0.92553942781E+01 -0.50454871407E+01  0.12829513393E+02  0.47000000000E+01 0. -1.
        -13    1    6    6    0    0 -0.49927520162E+02 -0.13043831483E+03  0.27569582483E+03  0.30905517157E+03  0.00000000000E+00 0.  1.
         14    1    6    6    0    0  0.27498768935E+02 -0.50442602824E+02  0.14646856757E+03  0.15733302183E+03  0.00000000000E+00 0. -1.
         -5    1    3    3    0  503  0.18604291860E+02  0.13044458656E+03  0.10689395553E+02  0.13228100021E+03  0.47000000000E+01 0.  1.
         13    1    4    4    0    0  0.37579860577E+02  0.17962878219E+02 -0.57903651208E+02  0.71328421671E+02  0.00000000000E+00 0. -1.
        -14    1    4    4    0    0 -0.39357824808E+02  0.23218058595E+02 -0.25947051285E+02  0.52548702067E+02  0.00000000000E+00 0.  1.
</event>
<event>
12    1  0.8461994E-002  0.1823597E+03  0.7818608E-02  0.1165630E+00
         21   -1    0    0  503  502  0.00000000000E+00  0.00000000000E+00  0.44380375484E+03  0.44380375484E+03  0.00000000000E+00 0.  1.
         21   -1    0    0  501  503 -0.00000000000E+00 -0.00000000000E+00 -0.93272971092E+02  0.93272971092E+02  0.00000000000E+00 0.  1.
          6    2    1    2  501    0 -0.58422681444E+02  0.44758263945E+01  0.29500032258E+03  0.34681441743E+03  0.17268991599E+03 0.  0.
         24    2    3    3    0    0 -0.20298419428E+02  0.62871543146E+02  0.22630115387E+03  0.24880837236E+03  0.79552103320E+02 0.  0.
         -6    2    1    2    0  502  0.58422681444E+02 -0.44758263945E+01  0.55530461175E+02  0.19026230851E+03  0.17228717652E+03 0.  0.
        -24    2    5    5    0    0  0.21436078173E+02 -0.62628729764E+02  0.61013971232E+02  0.12096636437E+03  0.80797855070E+02 0.  0.
          5    1    3    3  501    0 -0.38124262016E+02 -0.58395716751E+02  0.68699168708E+02  0.98006045070E+02  0.47000000000E+01 0. -1.
        -11    1    4    4    0    0 -0.21476662271E+02  0.49049186125E+02  0.54339084710E+02  0.76287651747E+02  0.00000000000E+00 0.  1.
         12    1    4    4    0    0  0.11782428429E+01  0.13822357021E+02  0.17196206916E+03  0.17252072061E+03  0.00000000000E+00 0. -1.
         -5    1    5    5    0  502  0.36986603271E+02  0.58152903369E+02 -0.54835100574E+01  0.69295944141E+02  0.47000000000E+01 0.  1.
         11    1    6    6    0    0 -0.15831373999E+02 -0.12900971641E+02 -0.13088162023E+02  0.24256286961E+02  0.00000000000E+00 0. -1.
        -12    1    6    6    0    0  0.37267452173E+02 -0.49727758123E+02  0.74102133255E+02  0.96710077409E+02  0.00000000000E+00 0.  1.
</event>
<event>
12    1  0.8461994E-002  0.2361044E+03  0.7818608E-02  0.1122595E+00
         21   -1    0    0  503  502  0.00000000000E+00  0.00000000000E+00  0.71379850765E+02  0.71379850765E+02  0.00000000000E+00 0. -1.
         21   -1    0    0  501  503 -0.00000000000E+00 -0.00000000000E+00 -0.77998037862E+03  0.77998037862E+03  0.00000000000E+00 0.  1.
          6    2    1    2  501    0  0.14185168688E+03 -0.75805194188E+02 -0.32947036926E+03  0.40472282647E+03  0.17141036580E+03 0.  0.
         24    2    3    3    0    0  0.72216554196E+02 -0.11269275811E+03 -0.23372129781E+03  0.28062722316E+03  0.78810563371E+02 0.  0.
         -6    2    1    2    0  502 -0.14185168688E+03  0.75805194188E+02 -0.37913015859E+03  0.44663740291E+03  0.17284954149E+03 0.  0.
        -24    2    5    5    0    0 -0.11751650275E+03  0.11414966404E+03 -0.24668350064E+03  0.30654205410E+03  0.79214943218E+02 0.  0.
          5    1    3    3  501    0  0.69635132689E+02  0.36887563918E+02 -0.95749071456E+02  0.12409560331E+03  0.47000000000E+01 0. -1.
        -11    1    4    4    0    0  0.50344834748E+02 -0.13921095957E+02 -0.59592186631E+02  0.79244103919E+02  0.00000000000E+00 0.  1.
         12    1    4    4    0    0  0.21871719448E+02 -0.98771662148E+02 -0.17412911118E+03  0.20138311924E+03  0.00000000000E+00 0. -1.
         -5    1    5    5    0  502 -0.24335184137E+02 -0.38344469856E+02 -0.13244665795E+03  0.14009534881E+03  0.47000000000E+01 0.  1.
         11    1    6    6    0    0 -0.31669772121E+02  0.77017453700E+02 -0.15279709813E+03  0.17401613671E+03  0.00000000000E+00 0. -1.
        -12    1    6    6    0    0 -0.85846730626E+02  0.37132210344E+02 -0.93886402511E+02  0.13252591739E+03  0.00000000000E+00 0.  1.
</event>
<event>
12    1  0.8461994E-002  0.2182118E+03  0.7818608E-02  0.1135283E+00
         21   -1    0    0  501  502  0.00000000000E+00  0.00000000000E+00  0.28912404564E+03  0.28912404564E+03  0.00000000000E+00 0.  1.
         21   -1    0    0  502  503 -0.00000000000E+00 -0.00000000000E+00 -0.18725653115E+03  0.18725653115E+03  0.00000000000E+00 0.  1.
         -6    2    1    2    0  503  0.72961548217E+02 -0.11263064616E+03 -0.32151956127E+02  0.22056778288E+03  0.17206786042E+03 0.  0.
        -24    2    3    3    0    0  0.28954113786E+02 -0.11386195472E+03 -0.73190080763E+02  0.16019901546E+03  0.80647698011E+02 0.  0.
          6    2    1    2  501    0 -0.72961548217E+02  0.11263064616E+03  0.13401947061E+03  0.25581279391E+03  0.17166804319E+03 0.  0.
         24    2    5    5    0    0 -0.10814365658E+03  0.46370778975E+02  0.10087978380E+03  0.17366366372E+03  0.78339247613E+02 0.  0.
          5    1    5    5  501    0  0.35182108366E+02  0.66259867185E+02  0.33139686814E+02  0.82149130187E+02  0.47000000000E+01 0. -1.
        -13    1    6    6    0    0 -0.11268452298E+03  0.53893464315E+02  0.73547320323E+02  0.14495349441E+03  0.00000000000E+00 0.  1.
         14    1    6    6    0    0  0.45408663966E+01 -0.75226853396E+01  0.27332463475E+02  0.28710169313E+02  0.00000000000E+00 0. -1.
         -5    1    3    3    0  503  0.44007434431E+02  0.12313085590E+01  0.41038124636E+02  0.60368767418E+02  0.47000000000E+01 0.  1.
         13    1    4    4    0    0 -0.25067430248E+02 -0.63142595161E+02 -0.41484867491E+02  0.79601241282E+02  0.00000000000E+00 0. -1.
        -14    1    4    4    0    0  0.54021544034E+02 -0.50719359558E+02 -0.31705213271E+02  0.80597774177E+02  0.00000000000E+00 0.  1.
</event>
<event>
12    1  0.8461994E-002  0.1898499E+03  0.7818608E-02  0.1159629E+00
         21   -1    0    0  503  502  0.00000000000E+00  0.00000000000E+00  0.36696524313E+03  0.36696524313E+03  0.00000000000E+00 0. -1.
         21   -1    0    0  501  503 -0.00000000000E+00 -0.00000000000E+00 -0.98199104197E+02  0.98199104197E+02  0.00000000000E+00 0. -1.
          6    2    1    2  501    0 -0.49026395805E+01  0.79662770365E+02  0.16840628407E+03  0.25042014945E+03  0.16727038554E+03 0.  0.
         24    2    3    3    0    0  0.15685170200E+02 -0.10297424492E+02  0.42355047295E+02  0.94126519179E+02  0.81937720654E+02 0.  0.
         -6    2    1    2    0  502  0.49026395805E+01 -0.79662770365E+02  0.10035985487E+03  0.21474419788E+03  0.17225787993E+03 0.  0.
        -24    2    5    5    0    0 -0.51167049671E+02 -0.47323027468E+02  0.10510505742E+03  0.14967288338E+03  0.80606221988E+02 0.  0.
          5    1    3    3  501    0 -0.20587809780E+02  0.89960194858E+02  0.12605123678E+03  0.15629363027E+03  0.47000000000E+01 0. -1.
        -13    1    4    4    0    0  0.40014767983E+01  0.31441782292E+02  0.39562416157E+02  0.50693019859E+02  0.00000000000E+00 0.  1.
         14    1    4    4    0    0  0.11683693402E+02 -0.41739206784E+02  0.27926311388E+01  0.43433499320E+02  0.00000000000E+00 0. -1.
         -5    1    5    5    0  502  0.56069689251E+02 -0.32339742898E+02 -0.47452025567E+01  0.65071314500E+02  0.47000000000E+01 0.  1.
         11    1    6    6    0    0  0.48504284734E+01 -0.49068441087E+02  0.60477539974E+02  0.78030579957E+02  0.00000000000E+00 0. -1.
        -12    1    6    6    0    0 -0.56017478144E+02  0.17454136192E+01  0.44627517448E+02  0.71642303424E+02  0.00000000000E+00 0.  1.
</event>
<event>
12    1  0.8461994E-002  0.4027026E+03  0.7818608E-02  0.1042904E+00
         21   -1    0    0  501  502  0.00000000000E+00  0.00000000000E+00  0.19090220219E+03  0.19090220219E+03  0.00000000000E+00 0.  1.
         21   -1    0    0  502  503 -0.00000000000E+00 -0.00000000000E+00 -0.96093508335E+03  0.96093508335E+03  0.00000000000E+00 0. -1.
         -6    2    1    2    0  503  0.12647023704E+03 -0.34154230556E+03 -0.58208125813E+03  0.70743297926E+03  0.17028494277E+03 0.  0.
        -24    2    3    3    0    0  0.11899485555E+03 -0.15606690485E+03 -0.35438652996E+03  0.41362354300E+03  0.83534234133E+02 0.  0.
          6    2    1    2  501    0 -0.12647023704E+03  0.34154230556E+03 -0.18795162302E+03  0.44440430627E+03  0.17182405970E+03 0.  0.
         24    2    5    5    0    0 -0.33741500085E+02  0.21279008626E+03 -0.16626956727E+03  0.28419209022E+03  0.81862479219E+02 0.  0.
          5    1    5    5  501    0 -0.92728736958E+02  0.12875221930E+03 -0.21682055756E+02  0.16021221606E+03  0.47000000000E+01 0. -1.
        -11    1    6    6    0    0 -0.28317587428E+02  0.87671364580E+02 -0.25122576083E+02  0.95495014289E+02  0.00000000000E+00 0.  1.
         12    1    6    6    0    0 -0.54239126570E+01  0.12511872168E+03 -0.14114699118E+03  0.18869707593E+03  0.00000000000E+00 0. -1.
         -5    1    3    3    0  503  0.74753814886E+01 -0.18547540071E+03 -0.22769472817E+03  0.29380943626E+03  0.47000000000E+01 0.  1.
         13    1    4    4    0    0  0.69121845747E+02 -0.75757121201E+02 -0.26236603164E+03  0.28169647767E+03  0.00000000000E+00 0. -1.
        -14    1    4    4    0    0  0.49873009808E+02 -0.80309783646E+02 -0.92020498318E+02  0.13192706533E+03  0.00000000000E+00 0.  1.
</event>
<event>
12    1  0.8461994E-002  0.1832719E+03  0.7818608E-02  0.1164839E+00
         21   -1    0    0  501  502  0.00000000000E+00  0.00000000000E+00  0.64698676675E+03  0.64698676675E+03  0.00000000000E+00 0.  1.
         21   -1    0    0  502  503 -0.00000000000E+00 -0.00000000000E+00 -0.51717371501E+02  0.51717371501E+02  0.00000000000E+00 0.  1.
         -6    2    1    2    0  503 -0.28970228766E+02  0.54195399489E+02  0.29752157083E+03  0.34943911045E+03  0.17266207261E+03 0.  0.
        -24    2    3    3    0    0  0.11851166568E+02  0.46333984116E+02  0.59810980195E+02  0.10807506368E+03  0.76259935780E+02 0.  0.
          6    2    1    2  501    0  0.28970228766E+02 -0.54195399489E+02  0.29774782441E+03  0.34926502780E+03  0.17191822830E+03 0.  0.
         24    2    5    5    0    0 -0.11813512311E+01 -0.97689041725E+02  0.17651499004E+03  0.21690073948E+03  0.79648255574E+02 0.  0.
          5    1    5    5  501    0  0.30151579997E+02  0.43493642236E+02  0.12123283438E+03  0.13236428832E+03  0.47000000000E+01 0. -1.
        -11    1    6    6    0    0 -0.18833044659E+02 -0.35595422944E+02  0.15017818420E+02  0.42979676311E+02  0.00000000000E+00 0.  1.
         12    1    6    6    0    0  0.17651693428E+02 -0.62093618781E+02  0.16149717161E+03  0.17392106317E+03  0.00000000000E+00 0. -1.
         -5    1    3    3    0  503 -0.40821395335E+02  0.78614153727E+01  0.23771059064E+03  0.24136404676E+03  0.47000000000E+01 0.  1.
         11    1    4    4    0    0  0.22190468037E+02  0.42432698876E+01 -0.10941467991E+02  0.25102548334E+02  0.00000000000E+00 0. -1.
        -12    1    4    4    0    0 -0.10339301469E+02  0.42090714229E+02  0.70752448185E+02  0.82972515349E+02  0.00000000000E+00 0.  1.
</event>
<event>
12    1  0.8461994E-002  0.1887062E+03  0.7818608E-02  0.1159650E+00
         21   -1    0    0  501  502  0.00000000000E+00  0.00000000000E+00  0.40617426533E+03  0.40617426533E+03  0.00000000000E+00 0. -1.
         21   -1    0    0  502  503 -0.00000000000E+00 -0.00000000000E+00 -0.12823292635E+03  0.12823292635E+03  0.00000000000E+00 0. -1.
         -6    2    1    2    0  503 -0.67936752709E+02 -0.36867229300E+02 -0.11353624757E+02  0.18904745535E+03  0.17214947172E+03 0.  0.
        -24    2    3    3    0    0 -0.81353840547E+02 -0.12204374886E+02 -0.61965631270E+02  0.13097904881E+03  0.80922046634E+02 0.  0.
          6    2    1    2  501    0  0.67936752709E+02  0.36867229300E+02  0.28929496374E+03  0.34535973634E+03  0.17206736029E+03 0.  0.
         24    2    5    5    0    0  0.16695551651E+02  0.57440748189E+02  0.26804804962E+03  0.28600949013E+03  0.79834143965E+02 0.  0.
          5    1    5    5  501    0  0.51241201058E+02 -0.20573518889E+02  0.21246914117E+02  0.59350246208E+02  0.47000000000E+01 0. -1.
        -11    1    6    6    0    0  0.25935957013E+02  0.60501117855E+02  0.11389156722E+03  0.13154599277E+03  0.00000000000E+00 0.  1.
         12    1    6    6    0    0 -0.92404053627E+01 -0.30603696659E+01  0.15415648240E+03  0.15446349737E+03  0.00000000000E+00 0. -1.
         -5    1    3    3    0  503  0.13417087838E+02 -0.24662854415E+02  0.50612006513E+02  0.58068406533E+02  0.47000000000E+01 0.  1.
         13    1    4    4    0    0 -0.50500518872E+02 -0.86538484666E+01  0.10354479599E+02  0.52272428176E+02  0.00000000000E+00 0. -1.
        -14    1    4    4    0    0 -0.30853321675E+02 -0.35505264190E+01 -0.72320110869E+02  0.78706620638E+02  0.00000000000E+00 0.  1.
</event>
<event>
12    1  0.8461994E-002  0.2555560E+03  0.7818608E-02  0.1110086E+00
         21   -1    0    0  503  502  0.00000000000E+00  0.00000000000E+00  0.19815406523E+04  0.19815406523E+04  0.00000000000E+00 0. -1.
         21   -1    0    0  501  503 -0.00000000000E+00 -0.00000000000E+00 -0.33168865510E+02  0.33168865510E+02  0.00000000000E+00 0. -1.
          6    2    1    2  501    0  0.84672784949E+02  0.16848975833E+03  0.86474062045E+03  0.90171236658E+03  0.17248354187E+03 0.  0.
         24    2    3    3    0    0  0.47496107293E+02  0.16053178777E+03  0.46995223261E+03  0.50506971150E+03  0.78828785645E+02 0.  0.
         -6    2    1    2    0  502 -0.84672784949E+02 -0.16848975833E+03  0.10836311663E+04  0.11129971512E+04  0.17014074999E+03 0.  0.
        -24    2    5    5    0    0 -0.10742086683E+03 -0.71136798324E+02  0.72081436286E+03  0.73662871879E+03  0.80304650744E+02 0.  0.
          5    1    3    3  501    0  0.37176677655E+02  0.79579705551E+01  0.39478838784E+03  0.39664265508E+03  0.47000000000E+01 0. -1.
        -13    1    4    4    0    0  0.25508791042E+02  0.10100371509E+02  0.12701628934E+03  0.12994557970E+03  0.00000000000E+00 0.  1.
         14    1    4    4    0    0  0.21987316252E+02  0.15043141626E+03  0.34293594327E+03  0.37512413181E+03  0.00000000000E+00 0. -1.
         -5    1    5    5    0  502  0.22748081882E+02 -0.97352960004E+02  0.36281680346E+03  0.37636843243E+03  0.47000000000E+01 0.  1.
         13    1    6    6    0    0 -0.10044821821E+03 -0.73981100615E+02  0.48802632980E+03  0.50371891603E+03  0.00000000000E+00 0. -1.
        -14    1    6    6    0    0 -0.69726486248E+01  0.28443022914E+01  0.23278803306E+03  0.23290980276E+03  0.00000000000E+00 0.  1.
</event>
<event>
12    1  0.8461994E-002  0.1972157E+03  0.7818608E-02  0.1152270E+00
         21   -1    0    0  501  502  0.00000000000E+00  0.00000000000E+00  0.43567477583E+02  0.43567477583E+02  0.00000000000E+00 0.  1.
         21   -1    0    0  502  503 -0.00000000000E+00 -0.00000000000E+00 -0.11789343124E+04  0.11789343124E+04  0.00000000000E+00 0.  1.
         -6    2    1    2    0  503 -0.94036684412E+02 -0.77571159542E+01 -0.86980921769E+03  0.89172259367E+03  0.17233118702E+03 0.  0.
        -24    2    3    3    0    0 -0.52980766885E+02 -0.13114326659E+02 -0.21842496353E+03  0.23900686332E+03  0.80223866773E+02 0.  0.
          6    2    1    2  501    0  0.94036684412E+02  0.77571159542E+01 -0.26555761715E+03  0.33077919634E+03  0.17317897632E+03 0.  0.
         24    2    5    5    0    0  0.95752625611E+02 -0.48071935248E+02 -0.13819286421E+03  0.19162569223E+03  0.78381515272E+02 0.  0.
          5    1    5    5  501    0 -0.17159411990E+01  0.55829051202E+02 -0.12736475294E+03  0.13915350411E+03  0.47000000000E+01 0. -1.
        -11    1    6    6    0    0  0.75035841214E+01  0.17884125543E+02 -0.38201482323E+02  0.42842723686E+02  0.00000000000E+00 0.  1.
         12    1    6    6    0    0  0.88249041489E+02 -0.65956060791E+02 -0.99991381884E+02  0.14878296855E+03  0.00000000000E+00 0. -1.
         -5    1    3    3    0  503 -0.41055917527E+02  0.53572107047E+01 -0.65138425416E+03  0.65271573035E+03  0.47000000000E+01 0.  1.
         11    1    4    4    0    0  0.71153404293E+01 -0.11281742511E+02 -0.13773838804E+03  0.13838269156E+03  0.00000000000E+00 0. -1.
        -12    1    4    4    0    0 -0.60096107314E+02 -0.18325841482E+01 -0.80686575485E+02  0.10062417176E+03  0.00000000000E+00 0.  1.
</event>
<event>
12    1  0.8461994E-002  0.2157264E+03  0.7818608E-02  0.1137345E+00
         21   -1    0    0  503  502  0.00000000000E+00  0.00000000000E+00  0.26751273439E+03  0.26751273439E+03  0.00000000000E+00 0.  1.
         21   -1    0    0  501  503 -0.00000000000E+00 -0.00000000000E+00 -0.23088768438E+03  0.23088768438E+03  0.00000000000E+00 0.  1.
          6    2    1    2  501    0 -0.11394838116E+03  0.53908730980E+02 -0.10653097254E+03  0.23949596841E+03  0.17354851174E+03 0.  0.
         24    2    3    3    0    0  0.63292669659E+01  0.48023602104E+02 -0.30590426030E+02  0.97051579308E+02  0.78338425450E+02 0.  0.
         -6    2    1    2    0  502  0.11394838116E+03 -0.53908730980E+02  0.14315602255E+03  0.25890445036E+03  0.17506422472E+03 0.  0.
        -24    2    5    5    0    0  0.11977986877E+03 -0.67212900294E+01  0.47796158892E+02  0.15224492463E+03  0.80632819428E+02 0.  0.
          5    1    3    3  501    0 -0.12027764813E+03  0.58851288763E+01 -0.75940546510E+02  0.14244438910E+03  0.47000000000E+01 0. -1.
        -13    1    4    4    0    0  0.51890782711E+01 -0.21681991206E+02 -0.55368704107E+01  0.22971552187E+02  0.00000000000E+00 0.  1.
         14    1    4    4    0    0  0.11401886948E+01  0.69705593310E+02 -0.25053555620E+02  0.74080027120E+02  0.00000000000E+00 0. -1.
         -5    1    5    5    0  502 -0.58314876088E+01 -0.47187440951E+02  0.95359863661E+02  0.10665952573E+03  0.47000000000E+01 0.  1.
         13    1    6    6    0    0  0.20200899145E+02  0.24554451494E+02 -0.94904837093E+01  0.33182325046E+02  0.00000000000E+00 0. -1.
        -14    1    6    6    0    0  0.99578969628E+02 -0.31275741523E+02  0.57286642602E+02  0.11906259959E+03  0.00000000000E+00 0.  1.
</event>
<event>
12    1  0.8461994E-002  0.1842463E+03  0.7818608E-02  0.1165044E+00
         21   -1    0    0  503  502  0.00000000000E+00  0.00000000000E+00  0.18105412951E+04  0.18105412951E+04  0.00000000000E+00 0.  1.
         21   -1    0    0  501  503 -0.00000000000E+00 -0.00000000000E+00 -0.19168335339E+02  0.19168335339E+02  0.00000000000E+00 0.  1.
          6    2    1    2  501    0  0.54670959993E+02  0.23451485324E+02  0.70314362719E+03  0.72688213717E+03  0.17437830955E+03 0.  0.
         24    2    3    3    0    0  0.78231947511E+02 -0.21435749403E+02  0.48729722507E+03  0.50511256467E+03  0.10535838110E+03 0.  0.
         -6    2    1    2    0  502 -0.54670959993E+02 -0.23451485324E+02  0.10882293326E+04  0.11028274933E+04  0.16866094279E+03 0.  0.
        -24    2    5    5    0    0 -0.18036115186E+02 -0.40705101472E+02  0.10143480925E+04  0.10184454646E+04  0.79667464677E+02 0.  0.
          5    1    3    3  501    0 -0.23560987519E+02  0.44887234727E+02  0.21584640212E+03  0.22176957249E+03  0.47000000000E+01 0. -1.
        -11    1    4    4    0    0  0.28937740245E+02  0.24346434146E+02  0.35186591080E+03  0.35389230120E+03  0.00000000000E+00 0.  1.
         12    1    4    4    0    0  0.49294207266E+02 -0.45782183549E+02  0.13543131427E+03  0.15122026347E+03  0.00000000000E+00 0. -1.
         -5    1    5    5    0  502 -0.36634844807E+02  0.17253616148E+02  0.73881240095E+02  0.84382028669E+02  0.47000000000E+01 0.  1.
         11    1    6    6    0    0  0.11317490769E+02  0.20267181141E+02  0.30172804578E+03  0.30261965871E+03  0.00000000000E+00 0. -1.
        -12    1    6    6    0    0 -0.29353605955E+02 -0.60972282613E+02  0.71262004673E+03  0.71582580592E+03  0.00000000000E+00 0.  1.
</event>
<event>
12    1  0.8461994E-002  0.1881606E+03  0.7818608E-02  0.1160175E+00
         21   -1    0    0  503  502  0.00000000000E+00  0.00000000000E+00  0.16674622158E+03  0.16674622158E+03  0.00000000000E+00 0.  1.
         21   -1    0    0  501  503 -0.00000000000E+00 -0.00000000000E+00 -0.30578834678E+03  0.30578834678E+03  0.00000000000E+00 0. -1.
          6    2    1    2  501    0  0.30197107264E+00  0.75046638063E+02 -0.20027086650E+03  0.27466245000E+03  0.17233383997E+03 0.  0.
         24    2    3    3    0    0 -0.51576690661E+02  0.36862481898E+02 -0.17752437888E+03  0.20618677531E+03  0.83540909872E+02 0.  0.
         -6    2    1    2    0  502 -0.30197107264E+00 -0.75046638063E+02  0.61228741303E+02  0.19787211837E+03  0.17254659485E+03 0.  0.
        -24    2    5    5    0    0 -0.65389515828E+02 -0.65682332812E+02  0.43332612820E+02  0.12956077151E+03  0.79487864202E+02 0.  0.
          5    1    3    3  501    0  0.51878661734E+02  0.38184156165E+02 -0.22746487620E+02  0.68475674691E+02  0.47000000000E+01 0. -1.
        -11    1    4    4    0    0 -0.49044978185E+02 -0.13333844589E+02 -0.11667480061E+03  0.12726433276E+03  0.00000000000E+00 0.  1.
         12    1    4    4    0    0 -0.25317124764E+01  0.50196326487E+02 -0.60849578276E+02  0.78922442544E+02  0.00000000000E+00 0. -1.
         -5    1    5    5    0  502  0.65087544756E+02 -0.93643052505E+01  0.17896128482E+02  0.68311346860E+02  0.47000000000E+01 0.  1.
         13    1    6    6    0    0 -0.71376428611E+02 -0.18771649544E+02  0.34427537993E+02  0.81438472236E+02  0.00000000000E+00 0. -1.
        -14    1    6    6    0    0  0.59869127827E+01 -0.46910683268E+02  0.89050748274E+01  0.48122299270E+02  0.00000000000E+00 0.  1.
</event>
<event>
12    1  0.8461994E-002  0.2542050E+03  0.7818608E-02  0.1111009E+00
         21   -1    0    0  503  502  0.00000000000E+00  0.00000000000E+00  0.39388467931E+03  0.39388467931E+03  0.00000000000E+00 0. -1.
         21   -1    0    0  501  503 -0.00000000000E+00 -0.00000000000E+00 -0.18273904625E+03  0.18273904625E+03  0.00000000000E+00 0. -1.
          6    2    1    2  501    0 -0.98474110027E+02 -0.15717550076E+03  0.20149641920E+03  0.32437781413E+03  0.17383575859E+03 0.  0.
         24    2    3    3    0    0 -0.99784814238E+02 -0.18240920255E+03  0.19936477818E+03  0.29858844530E+03  0.78604189221E+02 0.  0.
         -6    2    1    2    0  502  0.98474110027E+02  0.15717550076E+03  0.96492138622E+01  0.25224591143E+03  0.17068568809E+03 0.  0.
        -24    2    5    5    0    0  0.12821834793E+03  0.11997093416E+03  0.36439693430E+02  0.19739411785E+03  0.82484039134E+02 0.  0.
          5    1    3    3  501    0  0.13107042108E+01  0.25233701785E+02  0.21316410277E+01  0.25789368833E+02  0.47000000000E+01 0. -1.
        -13    1    4    4    0    0 -0.57010464264E+02 -0.78034851434E+02  0.42981286932E+02  0.10576871986E+03  0.00000000000E+00 0.  1.
         14    1    4    4    0    0 -0.42774349974E+02 -0.10437435111E+03  0.15638349124E+03  0.19281972544E+03  0.00000000000E+00 0. -1.
         -5    1    5    5    0  502 -0.29744237904E+02  0.37204566596E+02 -0.26790479568E+02  0.54851793586E+02  0.47000000000E+01 0.  1.
         13    1    6    6    0    0  0.13884946697E+02  0.14323636260E+02 -0.23282663768E+02  0.30660083702E+02  0.00000000000E+00 0. -1.
        -14    1    6    6    0    0  0.11433340123E+03  0.10564729790E+03  0.59722357198E+02  0.16673403414E+03  0.00000000000E+00 0.  1.
</event>
<event>
12    1  0.8461994E-002  0.1939918E+03  0.7818608E-02  0.1155062E+00
         21   -1    0    0  503  502  0.00000000000E+00  0.00000000000E+00  0.20549428890E+03  0.20549428890E+03  0.00000000000E+00 0.  1.
         21   -1    0    0  501  503 -0.00000000000E+00 -0.00000000000E+00 -0.19098694267E+03  0.19098694267E+03  0.00000000000E+00 0.  1.
          6    2    1    2  501    0 -0.88541613940E+02  0.50155546026E+01 -0.34596430728E+02  0.19637127710E+03  0.17175561785E+03 0.  0.
         24    2    3    3    0    0 -0.74469756012E+02  0.27443605820E+01 -0.88839290076E+02  0.14009025634E+03  0.78610332554E+02 0.  0.
         -6    2    1    2    0  502  0.88541613940E+02 -0.50155546026E+01  0.49103776966E+02  0.20010995447E+03  0.17253416988E+03 0.  0.
        -24    2    5    5    0    0  0.98316500535E+02 -0.51521246503E+02  0.10186984377E+02  0.13850691451E+03  0.82218109907E+02 0.  0.
          5    1    3    3  501    0 -0.14071857928E+02  0.22711940206E+01  0.54242859348E+02  0.56281020762E+02  0.47000000000E+01 0. -1.
        -11    1    4    4    0    0 -0.70435886494E+02 -0.81152391437E+01 -0.24956847040E+02  0.75165919317E+02  0.00000000000E+00 0.  1.
         12    1    4    4    0    0 -0.40338695178E+01  0.10859599726E+02 -0.63882443036E+02  0.64924337022E+02  0.00000000000E+00 0. -1.
         -5    1    5    5    0  502 -0.97748865950E+01  0.46505691900E+02  0.38916792589E+02  0.61603039961E+02  0.47000000000E+01 0.  1.
         13    1    6    6    0    0 -0.10153906105E+00  0.10157606887E+02  0.19498750204E+02  0.21986098957E+02  0.00000000000E+00 0. -1.
        -14    1    6    6    0    0  0.98418039596E+02 -0.61678853390E+02 -0.93117658269E+01  0.11652081555E+03  0.00000000000E+00 0.  1.
</event>
<event>
12    1  0.8461994E-002  0.1892067E+03  0.7818608E-02  0.1159408E+00
         21   -1    0    0  501  502  0.00000000000E+00  0.00000000000E+00  0.95960888392E+02  0.95960888392E+02  0.00000000000E+00 0.  1.
         21   -1    0    0  502  503 -0.00000000000E+00 -0.00000000000E+00 -0.40095795466E+03  0.40095795466E+03  0.00000000000E+00 0.  1.
         -6    2    1    2    0  503  0.42931797177E+02  0.61380359042E+02 -0.22070312610E+03  0.29070436359E+03  0.17374829338E+03 0.  0.
        -24    2    3    3    0    0  0.65843503698E+02 -0.10573248507E+02 -0.82317849318E+02  0.13298675910E+03  0.80387120958E+02 0.  0.
          6    2    1    2  501    0 -0.42931797177E+02 -0.61380359042E+02 -0.84293940165E+02  0.20621447946E+03  0.17265067479E+03 0.  0.
         24    2    5    5    0    0  0.68070734939E+01  0.12234329182E+02  0.68705572955E+01  0.78832639411E+02  0.77274610442E+02 0.  0.
          5    1    5    5  501    0 -0.49738870671E+02 -0.73614688224E+02 -0.91164497461E+02  0.12738184005E+03  0.47000000000E+01 0. -1.
        -11    1    6    6    0    0 -0.93475862216E+01 -0.17565820526E+02  0.31272139655E+02  0.37065916116E+02  0.00000000000E+00 0.  1.
         12    1    6    6    0    0  0.16154659715E+02  0.29800149709E+02 -0.24401582359E+02  0.41766723295E+02  0.00000000000E+00 0. -1.
         -5    1    3    3    0  503 -0.22911706521E+02  0.71953607549E+02 -0.13838527679E+03  0.15771760449E+03  0.47000000000E+01 0.  1.
         11    1    4    4    0    0  0.16208490453E+02  0.11394550054E+02  0.12717305865E+02  0.23543168907E+02  0.00000000000E+00 0. -1.
        -12    1    4    4    0    0  0.49635013245E+02 -0.21967798561E+02 -0.95035155183E+02  0.10944359019E+03  0.00000000000E+00 0.  1.
</event>
<event>
12    1  0.8461994E-002  0.1724760E+03  0.7818608E-02  0.1175405E+00
         21   -1    0    0  501  502  0.00000000000E+00  0.00000000000E+00  0.29917287224E+03  0.29917287224E+03  0.00000000000E+00 0.  1.
         21   -1    0    0  502  503 -0.00000000000E+00 -0.00000000000E+00 -0.29423072143E+03  0.29423072143E+03  0.00000000000E+00 0.  1.
         -6    2    1    2    0  503 -0.86316123570E+01  0.39921142625E+01 -0.23910380773E+03  0.29481961137E+03  0.17221361929E+03 0.  0.
        -24    2    3    3    0    0  0.39398790949E+02 -0.40738086261E+02 -0.18427018227E+03  0.20916608277E+03  0.81136266287E+02 0.  0.
          6    2    1    2  501    0  0.86316123570E+01 -0.39921142625E+01  0.24404595854E+03  0.29858398231E+03  0.17176589563E+03 0.  0.
         24    2    5    5    0    0  0.99858501352E+01  0.62096261423E+02  0.11820036862E+03  0.15635631318E+03  0.80748415745E+02 0.  0.
          5    1    5    5  501    0 -0.13542377782E+01 -0.66088375685E+02  0.12584558992E+03  0.14222766912E+03  0.47000000000E+01 0. -1.
        -13    1    6    6    0    0 -0.88558239045E+01 -0.13378368768E+02  0.51314551216E+02  0.53764203094E+02  0.00000000000E+00 0.  1.
         14    1    6    6    0    0  0.18841674040E+02  0.75474630190E+02  0.66885817402E+02  0.10259211009E+03  0.00000000000E+00 0. -1.
         -5    1    3    3    0  503 -0.48030403306E+02  0.44730200523E+02 -0.54833625459E+02  0.85653528600E+02  0.47000000000E+01 0.  1.
         11    1    4    4    0    0 -0.12152933367E+02  0.15881307606E+02 -0.21963832332E+02  0.29703865934E+02  0.00000000000E+00 0. -1.
        -12    1    4    4    0    0  0.51551724316E+02 -0.56619393866E+02 -0.16230634993E+03  0.17946221683E+03  0.00000000000E+00 0.  1.
</event>
<event>
12    1  0.8461994E-002  0.1803966E+03  0.7818608E-02  0.1168554E+00
         21   -1    0    0  503  502  0.00000000000E+00  0.00000000000E+00  0.35583546847E+02  0.35583546847E+02  0.00000000000E+00 0. -1.
         21   -1    0    0  501  503 -0.00000000000E+00 -0.00000000000E+00 -0.10545100408E+04  0.10545100408E+04  0.00000000000E+00 0. -1.
          6    2    1    2  501    0  0.45507532302E+02  0.97502026560E+01 -0.72955095114E+03  0.75152346580E+03  0.17428977992E+03 0.  0.
         24    2    3    3    0    0 -0.39903778963E+02 -0.11752533120E+02 -0.42503133876E+03  0.43448759391E+03  0.79983727865E+02 0.  0.
         -6    2    1    2    0  502 -0.45507532302E+02 -0.97502026560E+01 -0.28937554280E+03  0.33857012184E+03  0.16948604864E+03 0.  0.
        -24    2    5    5    0    0  0.38662270581E+02 -0.45002084086E+01 -0.11048971276E+03  0.14074608805E+03  0.78015778098E+02 0.  0.
          5    1    3    3  501    0  0.85411311265E+02  0.21502735776E+02 -0.30451961239E+03  0.31703587189E+03  0.47000000000E+01 0. -1.
        -11    1    4    4    0    0  0.10281682700E+02 -0.24763790109E+02 -0.59053247837E+02  0.64855565527E+02  0.00000000000E+00 0.  1.
         12    1    4    4    0    0 -0.50185461663E+02  0.13011256989E+02 -0.36597809092E+03  0.36963202838E+03  0.00000000000E+00 0. -1.
         -5    1    5    5    0  502 -0.84169802883E+02 -0.52499942474E+01 -0.17888583004E+03  0.19782403379E+03  0.47000000000E+01 0.  1.
         13    1    6    6    0    0  0.26884914631E+02 -0.24037632581E+02 -0.11221549956E+03  0.11786825169E+03  0.00000000000E+00 0. -1.
        -14    1    6    6    0    0  0.11777355950E+02  0.19537424172E+02  0.17257867958E+01  0.22877836360E+02  0.00000000000E+00 0.  1.
</event>
<event>
12    1  0.8461994E-002  0.2115947E+03  0.7818608E-02  0.1141327E+00
         21   -1    0    0  503  502  0.00000000000E+00  0.00000000000E+00  0.21623642607E+03  0.21623642607E+03  0.00000000000E+00 0.  1.
         21   -1    0    0  501  503 -0.00000000000E+00 -0.00000000000E+00 -0.25361152205E+03  0.25361152205E+03  0.00000000000E+00 0. -1.
          6    2    1    2  501    0 -0.77880991549E+02 -0.82104343144E+02 -0.12440564614E+03  0.24105408057E+03  0.17269549201E+03 0.  0.
         24    2    3    3    0    0 -0.79343579727E+02 -0.44686555148E+02 -0.14776408282E+03  0.19667011290E+03  0.92480361586E+02 0.  0.
         -6    2    1    2    0  502  0.77880991549E+02  0.82104343144E+02  0.87030550163E+02  0.22879386754E+03  0.17878966736E+03 0.  0.
        -24    2    5    5    0    0  0.11816452847E+02  0.15304022572E+02 -0.15873209692E+02  0.89373352928E+02  0.85800907705E+02 0.  0.
          5    1    3    3  501    0  0.14625881787E+01 -0.37417787996E+02  0.23358436679E+02  0.44383967678E+02  0.47000000000E+01 0. -1.
        -13    1    4    4    0    0 -0.68645698608E+02 -0.80247396979E+01 -0.34709880576E+02  0.77339538363E+02  0.00000000000E+00 0.  1.
         14    1    4    4    0    0 -0.10697881119E+02 -0.36661815450E+02 -0.11305420225E+03  0.11933057453E+03  0.00000000000E+00 0. -1.
         -5    1    5    5    0  502  0.66064538702E+02  0.66800320572E+02  0.10290375985E+03  0.13942051461E+03  0.47000000000E+01 0.  1.
         11    1    6    6    0    0  0.47909777868E+02  0.19133653854E+02 -0.11037610481E+02  0.52756728199E+02  0.00000000000E+00 0. -1.
        -12    1    6    6    0    0 -0.36093325021E+02 -0.38296312818E+01 -0.48355992115E+01  0.36616624729E+02  0.00000000000E+00 0.  1.
</event>
<event>
12    1  0.8461994E-002  0.1797884E+03  0.7818608E-02  0.1168564E+00
         21   -1    0    0  501  502  0.00000000000E+00  0.00000000000E+00  0.38063538492E+03  0.38063538492E+03  0.00000000000E+00 0. -1.
         21   -1    0    0  502  503 -0.00000000000E+00 -0.00000000000E+00 -0.15492526087E+03  0.15492526087E+03  0.00000000000E+00 0. -1.
         -6    2    1    2    0  503  0.42047686011E+02 -0.11592840641E+02 -0.68131472884E+02  0.19226484720E+03  0.17441752211E+03 0.  0.
        -24    2    3    3    0    0 -0.22442939031E+01 -0.69438215956E+02 -0.32738858535E+02  0.11113165991E+03  0.80322539084E+02 0.  0.
          6    2    1    2  501    0 -0.42047686011E+02  0.11592840641E+02  0.29384159693E+03  0.34329579860E+03  0.17206603207E+03 0.  0.
         24    2    5    5    0    0  0.35668650859E+02  0.10217455907E+02  0.93338137341E+02  0.12820175403E+03  0.79668267174E+02 0.  0.
          5    1    5    5  501    0 -0.77716336871E+02  0.13753847347E+01  0.20050345959E+03  0.21509404457E+03  0.47000000000E+01 0. -1.
        -13    1    6    6    0    0  0.58710228152E+02 -0.67199312025E+01  0.58836488347E+02  0.83389332208E+02  0.00000000000E+00 0.  1.
         14    1    6    6    0    0 -0.23041577292E+02  0.16937387109E+02  0.34501648994E+02  0.44812421821E+02  0.00000000000E+00 0. -1.
         -5    1    3    3    0  503  0.44291979914E+02  0.57845375315E+02 -0.35392614349E+02  0.81133187294E+02  0.47000000000E+01 0.  1.
         11    1    4    4    0    0  0.79121526391E+01 -0.72237791372E+02 -0.51876066686E+02  0.89286208098E+02  0.00000000000E+00 0. -1.
        -12    1    4    4    0    0 -0.10156446542E+02  0.27995754151E+01  0.19137208151E+02  0.21845451808E+02  0.00000000000E+00 0.  1.
</event>
<event>
12    1  0.8461994E-002  0.2021199E+03  0.7818608E-02  0.1148061E+00
         21   -1    0    0  503  502  0.00000000000E+00  0.00000000000E+00  0.13219463473E+04  0.13219463473E+04  0.00000000000E+00 0.  1.
         21   -1    0    0  501  503 -0.00000000000E+00 -0.00000000000E+00 -0.33053507808E+02  0.33053507808E+02  0.00000000000E+00 0. -1.
          6    2    1    2  501    0 -0.18100480207E+02  0.10476796960E+03  0.46946581432E+03  0.51112678523E+03  0.17189672751E+03 0.  0.
         24    2    3    3    0    0  0.35266301429E+01 -0.27449366244E+00  0.29724749945E+03  0.30819110831E+03  0.81321404607E+02 0.  0.
         -6    2    1    2    0  502  0.18100480207E+02 -0.10476796960E+03  0.81942702514E+03  0.84387306985E+03  0.17133929393E+03 0.  0.
        -24    2    5    5    0    0  0.48390496871E+01  0.50708697822E+01  0.49043881781E+03  0.49674806825E+03  0.78608391200E+02 0.  0.
          5    1    3    3  501    0 -0.21627110350E+02  0.10504246326E+03  0.17221831488E+03  0.20293567693E+03  0.47000000000E+01 0. -1.
        -13    1    4    4    0    0 -0.24386353693E+02  0.24606140142E+02  0.21589343989E+03  0.21865528525E+03  0.00000000000E+00 0.  1.
         14    1    4    4    0    0  0.27912983836E+02 -0.24880633804E+02  0.81354059552E+02  0.89535823058E+02  0.00000000000E+00 0. -1.
         -5    1    5    5    0  502  0.13261430520E+02 -0.10983883938E+03  0.32898820733E+03  0.34712500160E+03  0.47000000000E+01 0.  1.
         11    1    6    6    0    0 -0.92101581389E+01 -0.30820178212E+02  0.11752045063E+03  0.12184320545E+03  0.00000000000E+00 0. -1.
        -12    1    6    6    0    0  0.14049207826E+02  0.35891047994E+02  0.37291836718E+03  0.37490486279E+03  0.00000000000E+00 0.  1.
</event>
<event>
12    1  0.8461994E-002  0.3711214E+03  0.7818608E-02  0.1054716E+00
         21   -1    0    0  501  502  0.00000000000E+00  0.00000000000E+00  0.43454422713E+03  0.43454422713E+03  0.00000000000E+00 0.  1.
         21   -1    0    0  502  503 -0.00000000000E+00 -0.00000000000E+00 -0.44092267582E+03  0.44092267582E+03  0.00000000000E+00 0. -1.
         -6    2    1    2    0  503  0.20348683967E+03  0.25171228044E+03  0.23264537848E+03  0.43403342610E+03  0.17174159893E+03 0.  0.
        -24    2    3    3    0    0  0.45337446806E+02  0.12183857557E+03  0.14592940284E+03  0.21172697071E+03  0.81441985061E+02 0.  0.
          6    2    1    2  501    0 -0.20348683967E+03 -0.25171228044E+03 -0.23902382718E+03  0.44143347684E+03  0.18156309777E+03 0.  0.
         24    2    5    5    0    0 -0.15659442495E+03 -0.81313194653E+02 -0.12388310106E+03  0.23044953478E+03  0.81402185489E+02 0.  0.
          5    1    5    5  501    0 -0.46892414718E+02 -0.17039908579E+03 -0.11514072611E+03  0.21098394206E+03  0.47000000000E+01 0. -1.
        -11    1    6    6    0    0 -0.11616773582E+03 -0.77117233397E+02 -0.12840903994E+03  0.18955445674E+03  0.00000000000E+00 0.  1.
         12    1    6    6    0    0 -0.40426689136E+02 -0.41959612559E+01  0.45259388799E+01  0.40895078043E+02  0.00000000000E+00 0. -1.
         -5    1    3    3    0  503  0.15814939286E+03  0.12987370487E+03  0.86715975640E+02  0.22230645540E+03  0.47000000000E+01 0.  1.
         11    1    4    4    0    0  0.40754764453E+01  0.83451138390E+02  0.42029027988E+02  0.93526152494E+02  0.00000000000E+00 0. -1.
        -12    1    4    4    0    0  0.41261970361E+02  0.38387437185E+02  0.10390037485E+03  0.11820081821E+03  0.00000000000E+00 0.  1.
</event>
<event>
12    1  0.8461994E-002  0.2341677E+03  0.7818608E-02  0.1123818E+00
         21   -1    0    0  501  502  0.00000000000E+00  0.00000000000E+00  0.46708671405E+03  0.46708671405E+03  0.00000000000E+00 0.  1.
         21   -1    0    0  502  503 -0.00000000000E+00 -0.00000000000E+00 -0.30466448686E+03  0.30466448686E+03  0.00000000000E+00 0.  1.
         -6    2    1    2    0  503 -0.42560571905E+02  0.15296621969E+03 -0.22153147019E+03  0.32202358078E+03  0.17150197563E+03 0.  0.
        -24    2    3    3    0    0 -0.68516896063E+02  0.15272238090E+03 -0.13195980645E+03  0.22864819233E+03  0.82752127857E+02 0.  0.
          6    2    1    2  501    0  0.42560571905E+02 -0.15296621969E+03  0.38395369739E+03  0.44972762013E+03  0.17211747130E+03 0.  0.
         24    2    5    5    0    0  0.63922321113E+02 -0.70081933770E+02  0.32269241416E+03  0.34436555863E+03  0.73889804702E+02 0.  0.
          5    1    5    5  501    0 -0.21361749208E+02 -0.82884285916E+02  0.61261283226E+02  0.10536206150E+03  0.47000000000E+01 0. -1.
        -13    1    6    6    0    0  0.36783590277E+02 -0.81293059857E+02  0.26520995680E+03  0.27981764647E+03  0.00000000000E+00 0.  1.
         14    1    6    6    0    0  0.27138730835E+02  0.11211126087E+02  0.57482457365E+02  0.64547912160E+02  0.00000000000E+00 0. -1.
         -5    1    3    3    0  503  0.25956324158E+02  0.24383878618E+00 -0.89571663743E+02  0.93375388443E+02  0.47000000000E+01 0.  1.
         13    1    4    4    0    0  0.34713799492E+01  0.91953131449E+02 -0.56856159723E+02  0.10816677753E+03  0.00000000000E+00 0. -1.
        -14    1    4    4    0    0 -0.71988276012E+02  0.60769249452E+02 -0.75103646727E+02  0.12048141481E+03  0.00000000000E+00 0.  1.
</event>
<event>
12    1  0.8461994E-002  0.2688394E+03  0.7818608E-02  0.1102639E+00
         21   -1    0    0  503  502  0.00000000000E+00  0.00000000000E+00  0.10856705314E+04  0.10856705314E+04  0.00000000000E+00 0.  1.
         21   -1    0    0  501  503 -0.00000000000E+00 -0.00000000000E+00 -0.67743428980E+02  0.67743428980E+02  0.00000000000E+00 0. -1.
          6    2    1    2  501    0 -0.16879404752E+03  0.10753857770E+03  0.40598980201E+03  0.48693157319E+03  0.17949557505E+03 0.  0.
         24    2    3    3    0    0 -0.46609851995E+02  0.10559332813E+03  0.27625247296E+03  0.30864353046E+03  0.74986470986E+02 0.  0.
         -6    2    1    2    0  502  0.16879404752E+03 -0.10753857770E+03  0.61193730043E+03  0.66648238720E+03  0.17226588934E+03 0.  0.
        -24    2    5    5    0    0  0.14144622422E+03 -0.22512100940E+02  0.29796603023E+03  0.34002036231E+03  0.79474917925E+02 0.  0.
          5    1    3    3  501    0 -0.12218419552E+03  0.19452495650E+01  0.12973732906E+03  0.17828804274E+03  0.47000000000E+01 0. -1.
        -11    1    4    4    0    0 -0.45094027556E+02  0.20613424001E+02  0.13468645461E+03  0.14352290976E+03  0.00000000000E+00 0.  1.
         12    1    4    4    0    0 -0.15158244391E+01  0.84979904134E+02  0.14156601835E+03  0.16512062070E+03  0.00000000000E+00 0. -1.
         -5    1    5    5    0  502  0.27347823297E+02 -0.85026476760E+02  0.31397127020E+03  0.32646202490E+03  0.47000000000E+01 0.  1.
         13    1    6    6    0    0  0.83258015688E+02 -0.29412960866E+02  0.99245318593E+02  0.13284070425E+03  0.00000000000E+00 0. -1.
        -14    1    6    6    0    0  0.58188208533E+02  0.69008599260E+01  0.19872071164E+03  0.20717965806E+03  0.00000000000E+00 0.  1.
</event>
<event>
12    1  0.8461994E-002  0.2499178E+03  0.7818608E-02  0.1113469E+00
         21   -1    0    0  503  502  0.00000000000E+00  0.00000000000E+00  0.37277908612E+03  0.37277908612E+03  0.00000000000E+00 0.  1.
         21   -1    0    0  501  503 -0.00000000000E+00 -0.00000000000E+00 -0.48039170558E+03  0.48039170558E+03  0.00000000000E+00 0. -1.
          6    2    1    2  501    0 -0.15781653613E+03  0.89192239636E+02 -0.39828822957E+03  0.46982862155E+03  0.17100907907E+03 0.  0.
         24    2    3    3    0    0 -0.24165798948E+02  0.65743130808E+02 -0.23565334507E+03  0.25796881906E+03  0.78161803186E+02 0.  0.
         -6    2    1    2    0  502  0.15781653613E+03 -0.89192239636E+02  0.29067561012E+03  0.38334217014E+03  0.17203951408E+03 0.  0.
        -24    2    5    5    0    0  0.34596249186E+02 -0.15649961242E+02  0.50161372582E+02  0.10323345146E+03  0.81848399228E+02 0.  0.
          5    1    3    3  501    0 -0.13365073719E+03  0.23449108828E+02 -0.16263488451E+03  0.21185980250E+03  0.47000000000E+01 0. -1.
        -13    1    4    4    0    0 -0.25742927929E+02  0.16898504782E+02 -0.19702773568E+02  0.36557585923E+02  0.00000000000E+00 0.  1.
         14    1    4    4    0    0  0.15771289810E+01  0.48844626025E+02 -0.21595057150E+03  0.22141123314E+03  0.00000000000E+00 0. -1.
         -5    1    5    5    0  502  0.12322028695E+03 -0.73542278393E+02  0.24051423753E+03  0.28010871869E+03  0.47000000000E+01 0.  1.
         13    1    6    6    0    0 -0.13874317338E+02 -0.30539543749E+02  0.38764367320E+02  0.51262428617E+02  0.00000000000E+00 0. -1.
        -14    1    6    6    0    0  0.48470566523E+02  0.14889582507E+02  0.11397005263E+02  0.51971022842E+02  0.00000000000E+00 0.  1.
</event>
<event>
12    1  0.8461994E-002  0.2033411E+03  0.7818608E-02  0.1147573E+00
         21   -1    0    0  503  502  0.00000000000E+00  0.00000000000E+00  0.16901121793E+04  0.16901121793E+04  0.00000000000E+00 0. -1.
         21   -1    0    0  501  503 -0.00000000000E+00 -0.00000000000E+00 -0.24621510044E+02  0.24621510044E+02  0.00000000000E+00 0. -1.
          6    2    1    2  501    0  0.10502655345E+03 -0.56880479412E+01  0.70260889220E+03  0.73061534355E+03  0.17051860310E+03 0.  0.
         24    2    3    3    0    0  0.63848428013E+02 -0.45874747886E+02  0.62676826937E+03  0.63530270567E+03  0.67749170404E+02 0.  0.
         -6    2    1    2    0  502 -0.10502655345E+03  0.56880479412E+01  0.96288177708E+03  0.98411834583E+03  0.17402491527E+03 0.  0.
        -24    2    5    5    0    0  0.16090914536E+01 -0.35356500113E+02  0.45916929669E+03  0.46758744782E+03  0.80925317813E+02 0.  0.
          5    1    3    3  501    0  0.41178125440E+02  0.40186699945E+02  0.75840622838E+02  0.95312637880E+02  0.47000000000E+01 0. -1.
        -13    1    4    4    0    0  0.16495504173E+02 -0.52399621003E+02  0.37964531201E+03  0.38359925036E+03  0.00000000000E+00 0.  1.
         14    1    4    4    0    0  0.47352923840E+02  0.65248731162E+01  0.24712295735E+03  0.25170345531E+03  0.00000000000E+00 0. -1.
         -5    1    5    5    0  502 -0.10663564491E+03  0.41044548055E+02  0.50371248039E+03  0.51653089801E+03  0.47000000000E+01 0.  1.
         13    1    6    6    0    0 -0.32909309342E+02 -0.32157094014E+02  0.16214603670E+03  0.16854803041E+03  0.00000000000E+00 0. -1.
        -14    1    6    6    0    0  0.34518400796E+02 -0.31994060996E+01  0.29702325999E+03  0.29903941742E+03  0.00000000000E+00 0.  1.
</event>
<event>
12    1  0.8461994E-002  0.2231472E+03  0.7818608E-02  0.1131722E+00
         21   -1    0    0  503  502  0.00000000000E+00  0.00000000000E+00  0.10525584354E+03  0.10525584354E+03  0.00000000000E+00 0.  1.
         21   -1    0    0  501  503 -0.00000000000E+00 -0.00000000000E+00 -0.83827542718E+03  0.83827542718E+03  0.00000000000E+00 0. -1.
          6    2    1    2  501    0  0.36015949708E+02  0.13738802693E+03 -0.67828310442E+03  0.71376891085E+03  0.17095458394E+03 0.  0.
         24    2    3    3    0    0  0.87387624082E+02  0.85080249547E+02 -0.37076911311E+03  0.39760107985E+03  0.75773595388E+02 0.  0.
         -6    2    1    2    0  502 -0.36015949708E+02 -0.13738802693E+03 -0.54736479215E+02  0.22976235987E+03  0.17211054959E+03 0.  0.
        -24    2    5    5    0    0 -0.88454530576E+02 -0.10934851055E+03 -0.52691980447E+02  0.17007744371E+03  0.79803454283E+02 0.  0.
          5    1    3    3  501    0 -0.51371674374E+02  0.52307777387E+02 -0.30751399131E+03  0.31616783100E+03  0.47000000000E+01 0. -1.
        -13    1    4    4    0    0 -0.34314246719E+00  0.41615835716E+02 -0.71574180859E+02  0.82794075239E+02  0.00000000000E+00 0.  1.
         14    1    4    4    0    0  0.87730766549E+02  0.43464413831E+02 -0.29919493225E+03  0.31480700461E+03  0.00000000000E+00 0. -1.
         -5    1    5    5    0  502  0.52438580868E+02 -0.28039516382E+02 -0.20444987676E+01  0.59684916165E+02  0.47000000000E+01 0.  1.
         13    1    6    6    0    0 -0.80428538920E+02 -0.11931124662E+03 -0.34722212841E+02  0.14801876742E+03  0.00000000000E+00 0. -1.
        -14    1    6    6    0    0 -0.80259916563E+01  0.99627360664E+01 -0.17969767606E+02  0.22058676293E+02  0.00000000000E+00 0.  1.
</event>
<event>
12    1  0.8461994E-002  0.1793769E+03  0.7818608E-02  0.1168445E+00
         21   -1    0    0  503  502  0.00000000000E+00  0.00000000000E+00  0.67662508811E+03  0.67662508811E+03  0.00000000000E+00 0.  1.
         21   -1    0    0  501  503 -0.00000000000E+00 -0.00000000000E+00 -0.63629742427E+02  0.63629742427E+02  0.00000000000E+00 0.  1.
          6    2    1    2  501    0  0.59536811469E+01  0.46007051014E+02  0.12031887808E+03  0.21599235231E+03  0.17327425882E+03 0.  0.
         24    2    3    3    0    0 -0.96114267644E+01  0.64738713838E+02  0.10812368312E+02  0.10371183994E+03  0.79723006973E+02 0.  0.
         -6    2    1    2    0  502 -0.59536811469E+01 -0.46007051014E+02  0.49267646760E+03  0.52426247823E+03  0.17311542186E+03 0.  0.
        -24    2    5    5    0    0 -0.16777128879E+02 -0.96348282250E+02  0.38684796840E+03  0.40647815063E+03  0.77515629024E+02 0.  0.
          5    1    3    3  501    0  0.15565107911E+02 -0.18731662824E+02  0.10950650977E+03  0.11228051237E+03  0.47000000000E+01 0. -1.
        -13    1    4    4    0    0  0.30972776349E+02  0.97218834305E+01 -0.66810470357E+01  0.33143087993E+02  0.00000000000E+00 0.  1.
         14    1    4    4    0    0 -0.40584203114E+02  0.55016830408E+02  0.17493415348E+02  0.70568751945E+02  0.00000000000E+00 0. -1.
         -5    1    5    5    0  502  0.10823447732E+02  0.50341231236E+02  0.10582849920E+03  0.11778432759E+03  0.47000000000E+01 0.  1.
         13    1    6    6    0    0  0.10491088030E+02 -0.59065617151E+02  0.31774935793E+03  0.32336274449E+03  0.00000000000E+00 0. -1.
        -14    1    6    6    0    0 -0.27268216909E+02 -0.37282665099E+02  0.69098610468E+02  0.83115406146E+02  0.00000000000E+00 0.  1.
</event>
<event>
12    1  0.8461994E-002  0.1747391E+03  0.7818608E-02  0.1173257E+00
         21   -1    0    0  501  502  0.00000000000E+00  0.00000000000E+00  0.13900322980E+03  0.13900322980E+03  0.00000000000E+00 0. -1.
         21   -1    0    0  502  503 -0.00000000000E+00 -0.00000000000E+00 -0.57712271394E+03  0.57712271394E+03  0.00000000000E+00 0. -1.
         -6    2    1    2    0  503 -0.23670071945E+02  0.35151320171E+02 -0.50112597458E+03  0.53037454360E+03  0.16844591561E+03 0.  0.
        -24    2    3    3    0    0 -0.31429348240E+02  0.86330314022E+02 -0.35500269577E+03  0.37528231817E+03  0.79807125455E+02 0.  0.
          6    2    1    2  501    0  0.23670071945E+02 -0.35151320171E+02  0.63006490433E+02  0.18575140014E+03  0.16952249763E+03 0.  0.
         24    2    5    5    0    0  0.20348638734E+02  0.22004434842E+01 -0.26821795632E+02  0.88296809980E+02  0.81596622981E+02 0.  0.
          5    1    5    5  501    0  0.33214332109E+01 -0.37351763655E+02  0.89828286065E+02  0.97454590164E+02  0.47000000000E+01 0. -1.
        -13    1    6    6    0    0  0.43389765858E+02  0.35522301967E+01  0.10158854678E+02  0.44704501440E+02  0.00000000000E+00 0.  1.
         14    1    6    6    0    0 -0.23041127124E+02 -0.13517867125E+01 -0.36980650311E+02  0.43592308540E+02  0.00000000000E+00 0. -1.
         -5    1    3    3    0  503  0.77592762945E+01 -0.51178993852E+02 -0.14612327880E+03  0.15509222543E+03  0.47000000000E+01 0.  1.
         11    1    4    4    0    0 -0.50167152578E+02  0.44202852227E+02 -0.27435646841E+03  0.28238644992E+03  0.00000000000E+00 0. -1.
        -12    1    4    4    0    0  0.18737804338E+02  0.42127461796E+02 -0.80646227365E+02  0.92895868245E+02  0.00000000000E+00 0.  1.
</event>
<event>
12    1  0.8461994E-002  0.1913727E+03  0.7818608E-02  0.1157823E+00
         21   -1    0    0  501  502  0.00000000000E+00  0.00000000000E+00  0.13875599168E+03  0.13875599168E+03  0.00000000000E+00 0. -1.
         21   -1    0    0  502  503 -0.00000000000E+00 -0.00000000000E+00 -0.26928550004E+03  0.26928550004E+03  0.00000000000E+00 0.  1.
         -6    2    1    2    0  503 -0.73229428152E+02 -0.17931190667E+02 -0.27584360399E+02  0.19073704125E+03  0.17301920477E+03 0.  0.
        -24    2    3    3    0    0 -0.19580909636E+02 -0.11700547330E+02  0.48656469603E+02  0.97186313756E+02  0.80977853251E+02 0.  0.
          6    2    1    2  501    0  0.73229428152E+02  0.17931190667E+02 -0.10294514796E+03  0.21730445047E+03  0.17589611695E+03 0.  0.
         24    2    5    5    0    0  0.16028934102E+02  0.57725783071E+02 -0.10630388913E+03  0.14738394384E+03  0.82657832661E+02 0.  0.
          5    1    5    5  501    0  0.57200494050E+02 -0.39794592404E+02  0.33587411631E+01  0.69920506623E+02  0.47000000000E+01 0. -1.
        -11    1    6    6    0    0 -0.16277754151E+02 -0.93778989410E+01 -0.51781257022E+02  0.55083653179E+02  0.00000000000E+00 0.  1.
         12    1    6    6    0    0  0.32306688253E+02  0.67103682012E+02 -0.54522632104E+02  0.92300290666E+02  0.00000000000E+00 0. -1.
         -5    1    3    3    0  503 -0.53648518516E+02 -0.62306433376E+01 -0.76240830002E+02  0.93550727495E+02  0.47000000000E+01 0.  1.
         13    1    4    4    0    0 -0.26775146481E+01  0.21327140229E+02  0.55447515676E+02  0.59467999711E+02  0.00000000000E+00 0. -1.
        -14    1    4    4    0    0 -0.16903394988E+02 -0.33027687559E+02 -0.67910460725E+01  0.37718314044E+02  0.00000000000E+00 0.  1.
</event>
<event>
12    1  0.8461994E-002  0.1858642E+03  0.7818608E-02  0.1162364E+00
         21   -1    0    0  501  502  0.00000000000E+00  0.00000000000E+00  0.22234340059E+03  0.22234340059E+03  0.00000000000E+00 0.  1.
         21   -1    0    0  502  503 -0.00000000000E+00 -0.00000000000E+00 -0.37108744656E+03  0.37108744656E+03  0.00000000000E+00 0.  1.
         -6    2    1    2    0  503  0.69366396054E+02  0.82936614131E+00 -0.30086598489E+03  0.35364648796E+03  0.17243292270E+03 0.  0.
        -24    2    3    3    0    0  0.29011831529E+01  0.21737529732E+02 -0.52991348469E+02  0.96122311980E+02  0.77139346545E+02 0.  0.
          6    2    1    2  501    0 -0.69366396054E+02 -0.82936614131E+00  0.15212193893E+03  0.23978435919E+03  0.17188097585E+03 0.  0.
         24    2    5    5    0    0 -0.27963431001E+02  0.65009899105E+02  0.78716728666E+02  0.13273563544E+03  0.80088607734E+02 0.  0.
          5    1    5    5  501    0 -0.41402965053E+02 -0.65839265246E+02  0.73405210265E+02  0.10704872375E+03  0.47000000000E+01 0. -1.
        -13    1    6    6    0    0 -0.21780202526E+02 -0.13954008152E+02  0.30567391190E+02  0.40043188806E+02  0.00000000000E+00 0.  1.
         14    1    6    6    0    0 -0.61832284747E+01  0.78963907257E+02  0.48149337476E+02  0.92692446634E+02  0.00000000000E+00 0. -1.
         -5    1    3    3    0  503  0.66465212901E+02 -0.20908163591E+02 -0.24787463642E+03  0.25752417598E+03  0.47000000000E+01 0.  1.
         13    1    4    4    0    0  0.29058342051E+02 -0.91882240444E+01 -0.13701680692E+01  0.30507180538E+02  0.00000000000E+00 0. -1.
        -14    1    4    4    0    0 -0.26157158898E+02  0.30925753777E+02 -0.51621180400E+02  0.65615131442E+02  0.00000000000E+00 0.  1.
</event>
<event>
12    1  0.8461994E-002  0.2237419E+03  0.7818608E-02  0.1131660E+00
         21   -1    0    0  501  502  0.00000000000E+00  0.00000000000E+00  0.16537310645E+03  0.16537310645E+03  0.00000000000E+00 0. -1.
         21   -1    0    0  502  503 -0.00000000000E+00 -0.00000000000E+00 -0.41504520882E+03  0.41504520882E+03  0.00000000000E+00 0. -1.
         -6    2    1    2    0  503  0.75750747296E+02  0.12118035070E+03 -0.27902852931E+03  0.35765535559E+03  0.17215568564E+03 0.  0.
        -24    2    3    3    0    0  0.90271043924E+02  0.14613659503E+03 -0.25750475836E+03  0.32133709763E+03  0.86278989081E+02 0.  0.
          6    2    1    2  501    0 -0.75750747296E+02 -0.12118035070E+03  0.29356426944E+02  0.22276295968E+03  0.16834097329E+03 0.  0.
         24    2    5    5    0    0 -0.21328434233E+02 -0.60147590681E+01 -0.19011988598E+02  0.86430662413E+02  0.81349396194E+02 0.  0.
          5    1    5    5  501    0 -0.54422313063E+02 -0.11516559163E+03  0.48368415543E+02  0.13633229726E+03  0.47000000000E+01 0. -1.
        -13    1    6    6    0    0  0.85160705581E+01  0.19416157734E+02  0.21399110104E+02  0.30123621166E+02  0.00000000000E+00 0.  1.
         14    1    6    6    0    0 -0.29844504791E+02 -0.25430916802E+02 -0.40411098702E+02  0.56307041247E+02  0.00000000000E+00 0. -1.
         -5    1    3    3    0  503 -0.14520296628E+02 -0.24956244328E+02 -0.21523770949E+02  0.36318257956E+02  0.47000000000E+01 0.  1.
         11    1    4    4    0    0  0.52719046675E+02  0.13082948142E+03 -0.23723802867E+03  0.27600277778E+03  0.00000000000E+00 0. -1.
        -12    1    4    4    0    0  0.37551997249E+02  0.15307113612E+02 -0.20266729686E+02  0.45334319855E+02  0.00000000000E+00 0.  1.
</event>
<event>
12    1  0.8461994E-002  0.1754022E+03  0.7818608E-02  0.1172841E+00
         21   -1    0    0  501  502  0.00000000000E+00  0.00000000000E+00  0.49262528858E+03  0.49262528858E+03  0.00000000000E+00 0. -1.
         21   -1    0    0  502  503 -0.00000000000E+00 -0.00000000000E+00 -0.67700678253E+02  0.67700678253E+02  0.00000000000E+00 0. -1.
         -6    2    1    2    0  503  0.10152990106E+02 -0.20172045405E+02  0.13039744243E+03  0.21856213736E+03  0.17394229006E+03 0.  0.
        -24    2    3    3    0    0  0.89584747802E+01 -0.58611783827E+02  0.23820364481E+02  0.10516106196E+03  0.83521516479E+02 0.  0.
          6    2    1    2  501    0 -0.10152990106E+02  0.20172045405E+02  0.29452716789E+03  0.34176382947E+03  0.17189027862E+03 0.  0.
         24    2    5    5    0    0 -0.69960760083E+02 -0.90874384468E+01  0.18376446081E+03  0.21244424849E+03  0.79913028794E+02 0.  0.
          5    1    5    5  501    0  0.59807769977E+02  0.29259483852E+02  0.11076270708E+03  0.12931958098E+03  0.47000000000E+01 0. -1.
        -11    1    6    6    0    0 -0.54668088302E+02 -0.19146883439E+02  0.47370747424E+02  0.74827740415E+02  0.00000000000E+00 0.  1.
         12    1    6    6    0    0 -0.15292671781E+02  0.10059444992E+02  0.13639371339E+03  0.13761650808E+03  0.00000000000E+00 0. -1.
         -5    1    3    3    0  503  0.11945153257E+01  0.38439738422E+02  0.10657707795E+03  0.11340107540E+03  0.47000000000E+01 0.  1.
         13    1    4    4    0    0 -0.69926091753E+01 -0.52177528238E+02  0.50804934602E+02  0.73161003383E+02  0.00000000000E+00 0. -1.
        -14    1    4    4    0    0  0.15951083956E+02 -0.64342555893E+01 -0.26984570121E+02  0.32000058578E+02  0.00000000000E+00 0.  1.
</event>
<event>
12    1  0.8461994E-002  0.1780755E+03  0.7818608E-02  0.1169751E+00
         21   -1    0    0  503  502  0.00000000000E+00  0.00000000000E+00  0.10666578148E+03  0.10666578148E+03  0.00000000000E+00 0.  1.
         21   -1    0    0  501  503 -0.00000000000E+00 -0.00000000000E+00 -0.38602787072E+03  0.38602787072E+03  0.00000000000E+00 0.  1.
          6    2    1    2  501    0 -0.46028677129E+02 -0.19630772402E+01 -0.25820699764E+03  0.31365865487E+03  0.17201280577E+03 0.  0.
         24    2    3    3    0    0 -0.27082872325E+01  0.29745042936E+02 -0.24007085006E+03  0.25679855537E+03  0.86135838013E+02 0.  0.
         -6    2    1    2    0  502  0.46028677129E+02  0.19630772402E+01 -0.21155091596E+02  0.17903499734E+03  0.17170759908E+03 0.  0.
        -24    2    5    5    0    0 -0.40052684789E+02 -0.12087765817E+02 -0.19824569079E+02  0.91677757507E+02  0.79129425886E+02 0.  0.
          5    1    3    3  501    0 -0.43320389897E+02 -0.31708120176E+02 -0.18136147581E+02  0.56860099499E+02  0.47000000000E+01 0. -1.
        -13    1    4    4    0    0  0.29281011338E+02  0.46490896211E+02 -0.13845283342E+03  0.14895626250E+03  0.00000000000E+00 0.  1.
         14    1    4    4    0    0 -0.31989298571E+02 -0.16745853274E+02 -0.10161801664E+03  0.10784229287E+03  0.00000000000E+00 0. -1.
         -5    1    5    5    0  502  0.86081361918E+02  0.14050843057E+02 -0.13305225162E+01  0.87357239829E+02  0.47000000000E+01 0.  1.
         11    1    6    6    0    0 -0.17319204016E+02  0.11410471022E+02 -0.45566762429E+02  0.50064793168E+02  0.00000000000E+00 0. -1.
        -12    1    6    6    0    0 -0.22733480774E+02 -0.23498236839E+02  0.25742193350E+02  0.41612964339E+02  0.00000000000E+00 0.  1.
</event>
<event>
12    1  0.8461994E-002  0.2682467E+03  0.7818608E-02  0.1102490E+00
         21   -1    0    0  501  502  0.00000000000E+00  0.00000000000E+00  0.66022893051E+02  0.66022893051E+02  0.00000000000E+00 0. -1.
         21   -1    0    0  502  503 -0.00000000000E+00 -0.00000000000E+00 -0.11379902392E+04  0.11379902392E+04  0.00000000000E+00 0. -1.
         -6    2    1    2    0  503 -0.13863134155E+03 -0.15195046601E+03 -0.40376199316E+03  0.48397516097E+03  0.17000181276E+03 0.  0.
        -24    2    3    3    0    0 -0.12461662150E+03 -0.48569209095E+02 -0.27588691578E+03  0.31887451872E+03  0.87630462511E+02 0.  0.
          6    2    1    2  501    0  0.13863134155E+03  0.15195046601E+03 -0.66820535297E+03  0.72003797125E+03  0.17218795932E+03 0.  0.
         24    2    5    5    0    0  0.22647299846E+02  0.99003265481E+02 -0.23128805599E+03  0.26487369501E+03  0.79682888358E+02 0.  0.
          5    1    5    5  501    0  0.11598404170E+03  0.52947200532E+02 -0.43691729698E+03  0.45516427625E+03  0.47000000000E+01 0. -1.
        -11    1    6    6    0    0 -0.13443064872E+02  0.72040788362E+02 -0.19047131837E+03  0.20408310636E+03  0.00000000000E+00 0.  1.
         12    1    6    6    0    0  0.36090364718E+02  0.26962477119E+02 -0.40816737620E+02  0.60790588646E+02  0.00000000000E+00 0. -1.
         -5    1    3    3    0  503 -0.14014720043E+02 -0.10338125692E+03 -0.12787507737E+03  0.16510064226E+03  0.47000000000E+01 0.  1.
         11    1    4    4    0    0 -0.39057636857E+02 -0.11601469983E+02 -0.17779675640E+02  0.44454583212E+02  0.00000000000E+00 0. -1.
        -12    1    4    4    0    0 -0.85558984646E+02 -0.36967739112E+02 -0.25810724014E+03  0.27441993551E+03  0.00000000000E+00 0.  1.
</event>
<event>
12    1  0.8461994E-002  0.2336894E+03  0.7818608E-02  0.1124452E+00
         21   -1    0    0  503  502  0.00000000000E+00  0.00000000000E+00  0.41239387089E+02  0.41239387089E+02  0.00000000000E+00 0.  1.
         21   -1    0    0  501  503 -0.00000000000E+00 -0.00000000000E+00 -0.13310880648E+04  0.13310880648E+04  0.00000000000E+00 0.  1.
          6    2    1    2  501    0  0.87948089700E+02  0.12846602118E+03 -0.73064186977E+03  0.76710383731E+03  0.17427670606E+03 0.  0.
         24    2    3    3    0    0 -0.23580660674E+01  0.11568297911E+03 -0.48297040927E+03  0.50313063738E+03  0.80572389255E+02 0.  0.
         -6    2    1    2    0  502 -0.87948089700E+02 -0.12846602118E+03 -0.55920680794E+03  0.60522361458E+03  0.17130377847E+03 0.  0.
        -24    2    5    5    0    0 -0.38445625267E+01 -0.15233333243E+02 -0.10674153104E+03  0.13125952132E+03  0.74756085939E+02 0.  0.
          5    1    3    3  501    0  0.90306155768E+02  0.12783042067E+02 -0.24767146050E+03  0.26397319992E+03  0.47000000000E+01 0. -1.
        -11    1    4    4    0    0  0.24403394356E+02  0.28392996802E+02 -0.62446218628E+02  0.72809464663E+02  0.00000000000E+00 0.  1.
         12    1    4    4    0    0 -0.26761460423E+02  0.87289982311E+02 -0.42052419064E+03  0.43032117272E+03  0.00000000000E+00 0. -1.
         -5    1    5    5    0  502 -0.84103527174E+02 -0.11323268794E+03 -0.45246527690E+03  0.47396409326E+03  0.47000000000E+01 0.  1.
         11    1    6    6    0    0  0.11068745956E+02  0.61318903859E+00 -0.10883539586E+03  0.10939852161E+03  0.00000000000E+00 0. -1.
        -12    1    6    6    0    0 -0.14913308483E+02 -0.15846522282E+02  0.20938648223E+01  0.21860999708E+02  0.00000000000E+00 0.  1.
</event>
<event>
12    1  0.8461994E-002  0.1761345E+03  0.7818608E-02  0.1172047E+00
         21   -1    0    0  503  502  0.00000000000E+00  0.00000000000E+00  0.54889376152E+02  0.54889376152E+02  0.00000000000E+00 0.  1.
         21   -1    0    0  501  503 -0.00000000000E+00 -0.00000000000E+00 -0.10587171136E+04  0.10587171136E+04  0.00000000000E+00 0.  1.
          6    2    1    2  501    0 -0.48395959241E+02  0.28764996439E+01 -0.88563501082E+03  0.90297992755E+03  0.16933084198E+03 0.  0.
         24    2    3    3    0    0  0.10735586459E+02 -0.31363503611E+02 -0.68423232388E+03  0.69024993477E+03  0.84688707843E+02 0.  0.
         -6    2    1    2    0  502  0.48395959241E+02 -0.28764996439E+01 -0.11819272668E+03  0.21062656225E+03  0.16746218966E+03 0.  0.
        -24    2    5    5    0    0  0.87294470835E+02 -0.31439284968E+02 -0.10191657997E+03  0.15948040051E+03  0.80238741240E+02 0.  0.
          5    1    3    3  501    0 -0.59131545700E+02  0.34240003255E+02 -0.20140268694E+03  0.21272999278E+03  0.47000000000E+01 0. -1.
        -13    1    4    4    0    0 -0.37077319635E+02 -0.91978493207E+01 -0.27706297774E+03  0.27968414631E+03  0.00000000000E+00 0.  1.
         14    1    4    4    0    0  0.47812906094E+02 -0.22165654290E+02 -0.40716934614E+03  0.41056578846E+03  0.00000000000E+00 0. -1.
         -5    1    5    5    0  502 -0.38898511594E+02  0.28562785324E+02 -0.16276146712E+02  0.51146161748E+02  0.47000000000E+01 0.  1.
         13    1    6    6    0    0 -0.15221832090E+02 -0.14616639921E+01 -0.18205205296E+02  0.23775410273E+02  0.00000000000E+00 0. -1.
        -14    1    6    6    0    0  0.10251630293E+03 -0.29977620976E+02 -0.83711374669E+02  0.13570499023E+03  0.00000000000E+00 0.  1.
</event>
<event>
12    1  0.8461994E-002  0.3280501E+03  0.7818608E-02  0.1072218E+00
         21   -1    0    0  501  502  0.00000000000E+00  0.00000000000E+00  0.56919174776E+03  0.56919174776E+03  0.00000000000E+00 0.  1.
         21   -1    0    0  502  503 -0.00000000000E+00 -0.00000000000E+00 -0.20900920600E+03  0.20900920600E+03  0.00000000000E+00 0.  1.
         -6    2    1    2    0  503 -0.27883297028E+03  0.22083990041E+02  0.57099675019E+02  0.33298233674E+03  0.17140984732E+03 0.  0.
        -24    2    3    3    0    0 -0.25368435827E+03  0.59409767749E+02  0.18198130589E+02  0.27330749676E+03  0.80501811740E+02 0.  0.
          6    2    1    2  501    0  0.27883297028E+03 -0.22083990041E+02  0.30308286675E+03  0.44521861703E+03  0.16770469552E+03 0.  0.
         24    2    5    5    0    0  0.26017325705E+03 -0.36479332798E+02  0.19675514267E+03  0.33620905002E+03  0.72822206397E+02 0.  0.
          5    1    5    5  501    0  0.18659713233E+02  0.14395342757E+02  0.10632772408E+03  0.10900956700E+03  0.47000000000E+01 0. -1.
        -11    1    6    6    0    0  0.83258850824E+02 -0.43901502869E+01  0.23750323510E+02  0.86691334786E+02  0.00000000000E+00 0.  1.
         12    1    6    6    0    0  0.17691440623E+03 -0.32089182511E+02  0.17300481916E+03  0.24951771524E+03  0.00000000000E+00 0. -1.
         -5    1    3    3    0  503 -0.25148612018E+02 -0.37325777709E+02  0.38901544430E+02  0.59674839983E+02  0.47000000000E+01 0.  1.
         11    1    4    4    0    0 -0.16782323645E+03  0.59351557255E+02  0.44539380308E+02  0.18349660062E+03  0.00000000000E+00 0. -1.
        -12    1    4    4    0    0 -0.85861121816E+02  0.58210494804E-01 -0.26341249719E+02  0.89810896136E+02  0.00000000000E+00 0.  1.
</event>
<event>
12    1  0.8461994E-002  0.1848529E+03  0.7818608E-02  0.1163392E+00
         21   -1    0    0  501  502  0.00000000000E+00  0.00000000000E+00  0.11177576841E+03  0.11177576841E+03  0.00000000000E+00 0. -1.
         21   -1    0    0  502  503 -0.00000000000E+00 -0.00000000000E+00 -0.44195659192E+03  0.44195659192E+03  0.00000000000E+00 0.  1.
         -6    2    1    2    0  503  0.25501660541E+02 -0.62204952488E+02 -0.10284821172E+02  0.18426779668E+03  0.17125727004E+03 0.  0.
        -24    2    3    3    0    0  0.24347512322E+02 -0.97971012528E+02  0.27378888171E+02  0.13210278819E+03  0.80687189060E+02 0.  0.
          6    2    1    2  501    0 -0.25501660541E+02  0.62204952488E+02 -0.31989600234E+03  0.36946456365E+03  0.17219413661E+03 0.  0.
         24    2    5    5    0    0  0.22729114343E+02 -0.15263425775E+02 -0.21323758956E+03  0.22901647968E+03  0.78922072686E+02 0.  0.
          5    1    5    5  501    0 -0.48230774884E+02  0.77468378264E+02 -0.10665841277E+03  0.14044808397E+03  0.47000000000E+01 0. -1.
        -13    1    6    6    0    0  0.10421537605E+02 -0.14548614157E+02 -0.21570295697E+03  0.21644407191E+03  0.00000000000E+00 0.  1.
         14    1    6    6    0    0  0.12307576738E+02 -0.71481161851E+00  0.24653674013E+01  0.12572407774E+02  0.00000000000E+00 0. -1.
         -5    1    3    3    0  503  0.11541482193E+01  0.35766060039E+02 -0.37663709343E+02  0.52165008486E+02  0.47000000000E+01 0.  1.
         13    1    4    4    0    0  0.74379390798E+01 -0.10301578105E+03  0.47313500948E+01  0.10339226159E+03  0.00000000000E+00 0. -1.
        -14    1    4    4    0    0  0.16909573242E+02  0.50447685236E+01  0.22647538077E+02  0.28710526599E+02  0.00000000000E+00 0.  1.
</event>
<event>
12    1  0.8461994E-002  0.2703305E+03  0.7818608E-02  0.1101113E+00
         21   -1    0    0  503  502  0.00000000000E+00  0.00000000000E+00  0.24358600236E+03  0.24358600236E+03  0.00000000000E+00 0. -1.
         21   -1    0    0  501  503 -0.00000000000E+00 -0.00000000000E+00 -0.36207158574E+03  0.36207158574E+03  0.00000000000E+00 0.  1.
          6    2    1    2  501    0  0.20662009197E+03 -0.33362918151E+02  0.66292067513E+02  0.27834012883E+03  0.17109541896E+03 0.  0.
         24    2    3    3    0    0  0.56469114053E+02 -0.67358130912E+02  0.47881385237E+02  0.12322071070E+03  0.71866806318E+02 0.  0.
         -6    2    1    2    0  502 -0.20662009197E+03  0.33362918151E+02 -0.18477765089E+03  0.32731745928E+03  0.17084786264E+03 0.  0.
        -24    2    5    5    0    0 -0.99572904732E+02  0.64172513760E+02 -0.15865353396E+03  0.21280592727E+03  0.77990665887E+02 0.  0.
          5    1    3    3  501    0  0.15015097791E+03  0.33995212760E+02  0.18410682277E+02  0.15511941813E+03  0.47000000000E+01 0. -1.
        -13    1    4    4    0    0  0.22709440838E+02 -0.57674830734E+01 -0.15924449933E+02  0.28329678251E+02  0.00000000000E+00 0.  1.
         14    1    4    4    0    0  0.33759673216E+02 -0.61590647838E+02  0.63805835169E+02  0.94891032445E+02  0.00000000000E+00 0. -1.
         -5    1    5    5    0  502 -0.10704718724E+03 -0.30809595609E+02 -0.26124116927E+02  0.11451153200E+03  0.47000000000E+01 0.  1.
         11    1    6    6    0    0 -0.10334643997E+02  0.31977102875E+01  0.84972658425E+01  0.13756225660E+02  0.00000000000E+00 0. -1.
        -12    1    6    6    0    0 -0.89238260735E+02  0.60974803473E+02 -0.16715079980E+03  0.19904970161E+03  0.00000000000E+00 0.  1.
</event>
<event>
12    1  0.8461994E-002  0.1875116E+03  0.7818608E-02  0.1160774E+00
         21   -1    0    0  501  502  0.00000000000E+00  0.00000000000E+00  0.83008368764E+03  0.83008368764E+03  0.00000000000E+00 0.  1.
         21   -1    0    0  502  503 -0.00000000000E+00 -0.00000000000E+00 -0.43380972598E+02  0.43380972598E+02  0.00000000000E+00 0.  1.
         -6    2    1    2    0  503 -0.18521185322E+02  0.72368939379E+02  0.32494104445E+03  0.37516302981E+03  0.17198929871E+03 0.  0.
        -24    2    3    3    0    0  0.28504434234E+02  0.70066585966E+02  0.30428812272E+03  0.32353607074E+03  0.79765269422E+02 0.  0.
          6    2    1    2  501    0  0.18521185322E+02 -0.72368939379E+02  0.46176167059E+03  0.49830163043E+03  0.17175673720E+03 0.  0.
         24    2    5    5    0    0  0.22669185925E+02 -0.11107660841E+03  0.41281852268E+03  0.43558790563E+03  0.80410110919E+02 0.  0.
          5    1    5    5  501    0 -0.41480006031E+01  0.38707669033E+02  0.48943147910E+02  0.62713724801E+02  0.47000000000E+01 0. -1.
        -11    1    6    6    0    0  0.47674679578E+02 -0.98909821690E+02  0.30224664980E+03  0.32157279924E+03  0.00000000000E+00 0.  1.
         12    1    6    6    0    0 -0.25005493653E+02 -0.12166786723E+02  0.11057187288E+03  0.11401510639E+03  0.00000000000E+00 0. -1.
         -5    1    3    3    0  503 -0.47025619556E+02  0.23023534130E+01  0.20652921736E+02  0.51626959063E+02  0.47000000000E+01 0.  1.
         11    1    4    4    0    0  0.13675132817E+02 -0.11098280420E+02  0.12425256164E+03  0.12549454235E+03  0.00000000000E+00 0. -1.
        -12    1    4    4    0    0  0.14829301416E+02  0.81164866386E+02  0.18003556108E+03  0.19804152840E+03  0.00000000000E+00 0.  1.
</event>
<event>
12    1  0.8461994E-002  0.3090359E+03  0.7818608E-02  0.1080908E+00
         21   -1    0    0  501  502  0.00000000000E+00  0.00000000000E+00  0.21517862151E+04  0.21517862151E+04  0.00000000000E+00 0. -1.
         21   -1    0    0  502  503 -0.00000000000E+00 -0.00000000000E+00 -0.21448022777E+03  0.21448022777E+03  0.00000000000E+00 0.  1.
         -6    2    1    2    0  503  0.65497856618E+02  0.24870193186E+03 -0.85609206013E+02  0.31988205790E+03  0.16986163392E+03 0.  0.
        -24    2    3    3    0    0  0.98245752627E+02  0.21054565724E+03 -0.33254080898E+02  0.24713953174E+03  0.77397755525E+02 0.  0.
          6    2    1    2  501    0 -0.65497856618E+02 -0.24870193186E+03  0.20229151934E+04  0.20463843850E+04  0.17134920902E+03 0.  0.
         24    2    5    5    0    0 -0.37904142417E+02 -0.12716730945E+03  0.66742348647E+03  0.68516730642E+03  0.79949226982E+02 0.  0.
          5    1    5    5  501    0 -0.27593714201E+02 -0.12153462242E+03  0.13554917069E+04  0.13612170786E+04  0.47000000000E+01 0. -1.
        -11    1    6    6    0    0 -0.58010724230E+02 -0.55399458553E+02  0.36217015245E+03  0.37094684721E+03  0.00000000000E+00 0.  1.
         12    1    6    6    0    0  0.20106581813E+02 -0.71767850893E+02  0.30525333402E+03  0.31422045921E+03  0.00000000000E+00 0. -1.
         -5    1    3    3    0  503 -0.32747896009E+02  0.38156274621E+02 -0.52355125115E+02  0.72742526158E+02  0.47000000000E+01 0.  1.
         11    1    4    4    0    0  0.44191222020E+02  0.48740455287E+02  0.19419236342E+02  0.68597396637E+02  0.00000000000E+00 0. -1.
        -12    1    4    4    0    0  0.54054530608E+02  0.16180520196E+03 -0.52673317240E+02  0.17854213511E+03  0.00000000000E+00 0.  1.
</event>
<event>
12    1  0.8461994E-002  0.2383789E+03  0.7818608E-02  0.1121136E+00
         21   -1    0    0  503  502  0.00000000000E+00  0.00000000000E+00  0.80897027701E+03  0.80897027701E+03  0.00000000000E+00 0. -1.
         21   -1    0    0  501  503 -0.00000000000E+00 -0.00000000000E+00 -0.99783889119E+02  0.99783889119E+02  0.00000000000E+00 0. -1.
          6    2    1    2  501    0 -0.77081367427E+02 -0.14259964085E+03  0.10628441166E+03  0.26099971861E+03  0.17478066878E+03 0.  0.
         24    2    3    3    0    0  0.23868128598E+00 -0.13195064166E+03  0.96270586735E+02  0.18216978898E+03  0.80664597830E+02 0.  0.
         -6    2    1    2    0  502  0.77081367427E+02  0.14259964085E+03  0.60290197624E+03  0.64775444752E+03  0.17268131501E+03 0.  0.
        -24    2    5    5    0    0 -0.25579836009E+02  0.57192127324E+02  0.23459176274E+03  0.25595313381E+03  0.80953345350E+02 0.  0.
          5    1    3    3  501    0 -0.77320048713E+02 -0.10648999195E+02  0.10013824922E+02  0.78829929636E+02  0.47000000000E+01 0. -1.
        -11    1    4    4    0    0  0.18812883840E+02 -0.49002706763E+02  0.79909969893E+02  0.95607495296E+02  0.00000000000E+00 0.  1.
         12    1    4    4    0    0 -0.18574202554E+02 -0.82947934895E+02  0.16360616841E+02  0.86562293681E+02  0.00000000000E+00 0. -1.
         -5    1    5    5    0  502  0.10266120344E+03  0.85407513529E+02  0.36831021349E+03  0.39180131371E+03  0.47000000000E+01 0.  1.
         11    1    6    6    0    0  0.19383687107E+02  0.30676036927E+02  0.16509498095E+03  0.16903579296E+03  0.00000000000E+00 0. -1.
        -12    1    6    6    0    0 -0.44963523116E+02  0.26516090397E+02  0.69496781794E+02  0.86917340851E+02  0.00000000000E+00 0.  1.
</event>
<event>
12    1  0.8461994E-002  0.1753044E+03  0.7818608E-02  0.1173020E+00
         21   -1    0    0  503  502  0.00000000000E+00  0.00000000000E+00  0.94178072475E+02  0.94178072475E+02  0.00000000000E+00 0. -1.
         21   -1    0    0  501  503 -0.00000000000E+00 -0.00000000000E+00 -0.36293621259E+03  0.36293621259E+03  0.00000000000E+00 0. -1.
          6    2    1    2  501    0 -0.61506343231E+01  0.14799511772E+02 -0.21038169073E+03  0.27234562393E+03  0.17220577002E+03 0.  0.
         24    2    3    3    0    0  0.28124783500E+02 -0.48867550096E+02 -0.13061396623E+03  0.16458069965E+03  0.82751178982E+02 0.  0.
         -6    2    1    2    0  502  0.61506343231E+01 -0.14799511772E+02 -0.58376449385E+02  0.18476866113E+03  0.17457030802E+03 0.  0.
        -24    2    5    5    0    0 -0.36779412708E+02 -0.65054148847E+02 -0.40007201190E+02  0.11600794004E+03  0.79199106839E+02 0.  0.
          5    1    3    3  501    0 -0.34275417823E+02  0.63667061869E+02 -0.79767724491E+02  0.10776492428E+03  0.47000000000E+01 0. -1.
        -13    1    4    4    0    0  0.50835075340E+02 -0.64089720216E+01 -0.57285614040E+02  0.76856498640E+02  0.00000000000E+00 0.  1.
         14    1    4    4    0    0 -0.22710291840E+02 -0.42458578075E+02 -0.73328352195E+02  0.87724201012E+02  0.00000000000E+00 0. -1.
         -5    1    5    5    0  502  0.42930047031E+02  0.50254637075E+02 -0.18369248194E+02  0.68760721090E+02  0.47000000000E+01 0.  1.
         11    1    6    6    0    0  0.10979734793E+02 -0.40206965100E+02  0.96342814360E+01  0.42778195351E+02  0.00000000000E+00 0. -1.
        -12    1    6    6    0    0 -0.47759147500E+02 -0.24847183747E+02 -0.49641482626E+02  0.73229744691E+02  0.00000000000E+00 0.  1.
</event>
<event>
12    1  0.8461994E-002  0.1839894E+03  0.7818608E-02  0.1164787E+00
         21   -1    0    0  501  502  0.00000000000E+00  0.00000000000E+00  0.54057764987E+03  0.54057764987E+03  0.00000000000E+00 0. -1.
         21   -1    0    0  502  503 -0.00000000000E+00 -0.00000000000E+00 -0.21599134083E+03  0.21599134083E+03  0.00000000000E+00 0. -1.
         -6    2    1    2    0  503  0.54679837819E+02 -0.25466485305E+00 -0.15721500549E+03  0.24200960948E+03  0.17567624658E+03 0.  0.
        -24    2    3    3    0    0  0.21220730187E+02  0.43287261711E+02 -0.16203407760E+03  0.18668579265E+03  0.79198715007E+02 0.  0.
          6    2    1    2  501    0 -0.54679837819E+02  0.25466485305E+00  0.48180131452E+03  0.51455938122E+03  0.17218856119E+03 0.  0.
         24    2    5    5    0    0 -0.56883690015E+01  0.56950673313E+02  0.34270293197E+03  0.35649277683E+03  0.79787615712E+02 0.  0.
          5    1    5    5  501    0 -0.48991468817E+02 -0.56696008460E+02  0.13909838256E+03  0.15806660438E+03  0.47000000000E+01 0. -1.
        -13    1    6    6    0    0  0.29872340763E+02  0.21114396405E+02  0.68253158475E+02  0.77438156745E+02  0.00000000000E+00 0.  1.
         14    1    6    6    0    0 -0.35560709764E+02  0.35836276908E+02  0.27444977349E+03  0.27905462009E+03  0.00000000000E+00 0. -1.
         -5    1    3    3    0  503  0.33459107632E+02 -0.43541926564E+02  0.48190721102E+01  0.55323816828E+02  0.47000000000E+01 0.  1.
         13    1    4    4    0    0 -0.26182959742E+02  0.32160567668E+02 -0.53187603833E+02  0.67444574987E+02  0.00000000000E+00 0. -1.
        -14    1    4    4    0    0  0.47403689929E+02  0.11126694042E+02 -0.10884647376E+03  0.11924121766E+03  0.00000000000E+00 0.  1.
</event>
<event>
12    1  0.8461994E-002  0.2039771E+03  0.7818608E-02  0.1146705E+00
         21   -1    0    0  503  502  0.00000000000E+00  0.00000000000E+00  0.44557029134E+03  0.44557029134E+03  0.00000000000E+00 0.  1.
         21   -1    0    0  501  503 -0.00000000000E+00 -0.00000000000E+00 -0.44888175251E+03  0.44888175251E+03  0.00000000000E+00 0.  1.
          6    2    1    2  501    0 -0.10047097183E+03  0.45167135477E+02 -0.39999999932E+03  0.44839322889E+03  0.17006469930E+03 0.  0.
         24    2    3    3    0    0 -0.61498466762E+02  0.93851689517E+02 -0.28234031783E+03  0.31514559250E+03  0.83728659151E+02 0.  0.
         -6    2    1    2    0  502  0.10047097183E+03 -0.45167135477E+02  0.39668853814E+03  0.44605881496E+03  0.17167464520E+03 0.  0.
        -24    2    5    5    0    0  0.10095425746E+03 -0.50761177532E+02  0.16654194854E+03  0.21579577065E+03  0.77866133612E+02 0.  0.
          5    1    3    3  501    0 -0.38972505070E+02 -0.48684554041E+02 -0.11765968149E+03  0.13324763639E+03  0.47000000000E+01 0. -1.
        -13    1    4    4    0    0 -0.45536119196E+02  0.14358866795E+01 -0.10711317799E+03  0.11639945370E+03  0.00000000000E+00 0.  1.
         14    1    4    4    0    0 -0.15962347566E+02  0.92415802838E+02 -0.17522713983E+03  0.19874613880E+03  0.00000000000E+00 0. -1.
         -5    1    5    5    0  502 -0.48328562296E+00  0.55940420556E+01  0.23014658960E+03  0.23026304432E+03  0.47000000000E+01 0.  1.
         11    1    6    6    0    0  0.65312862168E+02  0.17562066879E+01  0.47119858795E+02  0.80555169415E+02  0.00000000000E+00 0. -1.
        -12    1    6    6    0    0  0.35641395287E+02 -0.52517384220E+02  0.11942208974E+03  0.13524060123E+03  0.00000000000E+00 0.  1.
</event>
<event>
12    1  0.8461994E-002  0.2852628E+03  0.7818608E-02  0.1092901E+00
         21   -1    0    0  501  502  0.00000000000E+00  0.00000000000E+00  0.10943451730E+03  0.10943451730E+03  0.00000000000E+00 0. -1.
         21   -1    0    0  502  503 -0.00000000000E+00 -0.00000000000E+00 -0.76658849257E+03  0.76658849257E+03  0.00000000000E+00 0.  1.
         -6    2    1    2    0  503  0.22683162291E+03  0.12891587229E+02 -0.40631615323E+03  0.49645509773E+03  0.17249947684E+03 0.  0.
        -24    2    3    3    0    0  0.13315352430E+03  0.72804367236E+02 -0.21005578154E+03  0.27083295594E+03  0.78719259040E+02 0.  0.
          6    2    1    2  501    0 -0.22683162291E+03 -0.12891587229E+02 -0.25083782204E+03  0.37956791214E+03  0.17185286959E+03 0.  0.
         24    2    5    5    0    0 -0.17761326460E+03  0.34651159792E+02 -0.23594259928E+03  0.30937733407E+03  0.85429795994E+02 0.  0.
          5    1    5    5  501    0 -0.49218358311E+02 -0.47542747020E+02 -0.14895222767E+02  0.70190578074E+02  0.47000000000E+01 0. -1.
        -11    1    6    6    0    0 -0.72174398941E+02  0.40354337315E+02 -0.53212836238E+02  0.98332203998E+02  0.00000000000E+00 0.  1.
         12    1    6    6    0    0 -0.10543886566E+03 -0.57031775237E+01 -0.18272976304E+03  0.21104513007E+03  0.00000000000E+00 0. -1.
         -5    1    3    3    0  503  0.93678098608E+02 -0.59912780007E+02 -0.19626037169E+03  0.22562214178E+03  0.47000000000E+01 0.  1.
         11    1    4    4    0    0  0.11557311645E+03  0.59135741878E+02 -0.21187939293E+03  0.24848955383E+03  0.00000000000E+00 0. -1.
        -12    1    4    4    0    0  0.17580407856E+02  0.13668625358E+02  0.18236113919E+01  0.22343402115E+02  0.00000000000E+00 0.  1.
</event>
<event>
12    1  0.8461994E-002  0.2673989E+03  0.7818608E-02  0.1102847E+00
         21   -1    0    0  503  502  0.00000000000E+00  0.00000000000E+00  0.17490240137E+03  0.17490240137E+03  0.00000000000E+00 0.  1.
         21   -1    0    0  501  503 -0.00000000000E+00 -0.00000000000E+00 -0.40865676133E+03  0.40865676133E+03  0.00000000000E+00 0.  1.
          6    2    1    2  501    0 -0.14775388698E+02 -0.20317636564E+03 -0.12773728412E+03  0.29591040358E+03  0.17247378214E+03 0.  0.
         24    2    3    3    0    0 -0.27748100342E+02 -0.77899210820E+02  0.10229647554E+02  0.10904247962E+03  0.70337561473E+02 0.  0.
         -6    2    1    2    0  502  0.14775388698E+02  0.20317636564E+03 -0.10601707583E+03  0.28764875912E+03  0.17321443528E+03 0.  0.
        -24    2    5    5    0    0 -0.12825254217E+02  0.13049541216E+03  0.47313419146E+01  0.15225445155E+03  0.77236601958E+02 0.  0.
          5    1    3    3  501    0  0.12972711644E+02 -0.12527715482E+03 -0.13796693168E+03  0.18686792396E+03  0.47000000000E+01 0. -1.
        -13    1    4    4    0    0 -0.50764025478E+02 -0.61720318074E+02  0.28885476308E+01  0.79967041044E+02  0.00000000000E+00 0.  1.
         14    1    4    4    0    0  0.23015925136E+02 -0.16178892745E+02  0.73410999234E+01  0.29075438577E+02  0.00000000000E+00 0. -1.
         -5    1    5    5    0  502  0.27600642915E+02  0.72680953485E+02 -0.11074841775E+03  0.13539430757E+03  0.47000000000E+01 0.  1.
         11    1    6    6    0    0  0.18196073732E+02  0.11668343067E+03  0.10510802817E+01  0.11809836943E+03  0.00000000000E+00 0. -1.
        -12    1    6    6    0    0 -0.31021327949E+02  0.13811981484E+02  0.36802616329E+01  0.34156082122E+02  0.00000000000E+00 0.  1.
</event>
<event>
12    1  0.8461994E-002  0.1864479E+03  0.7818608E-02  0.1161973E+00
         21   -1    0    0  503  502  0.00000000000E+00  0.00000000000E+00  0.11988308945E+04  0.11988308945E+04  0.00000000000E+00 0.  1.
         21   -1    0    0  501  503 -0.00000000000E+00 -0.00000000000E+00 -0.55885082719E+02  0.55885082719E+02  0.00000000000E+00 0.  1.
          6    2    1    2  501    0 -0.63639135981E+01  0.66518097640E+02  0.13394818835E+03  0.22863653239E+03  0.17282184489E+03 0.  0.
         24    2    3    3    0    0 -0.67636671295E+02  0.51607856755E+02  0.60847977532E+02  0.13198045684E+03  0.80487728478E+02 0.  0.
         -6    2    1    2    0  502  0.63639135981E+01 -0.66518097640E+02  0.10089976234E+04  0.10260794448E+04  0.17406224834E+03 0.  0.
        -24    2    5    5    0    0 -0.30860452544E+01  0.30883366124E+02  0.37987321436E+03  0.38937232303E+03  0.79648232693E+02 0.  0.
          5    1    3    3  501    0  0.61272757697E+02  0.14910240884E+02  0.73100210817E+02  0.96656075549E+02  0.47000000000E+01 0. -1.
        -11    1    4    4    0    0 -0.81277948063E+02  0.21658807582E+02  0.41347852318E+02  0.93727550264E+02  0.00000000000E+00 0.  1.
         12    1    4    4    0    0  0.13641276768E+02  0.29949049174E+02  0.19500125214E+02  0.38252906578E+02  0.00000000000E+00 0. -1.
         -5    1    5    5    0  502  0.94499588525E+01 -0.97401463764E+02  0.62912440902E+03  0.63670712176E+03  0.47000000000E+01 0.  1.
         11    1    6    6    0    0 -0.36259807897E+02  0.26590640003E+02  0.29020914497E+03  0.29367189792E+03  0.00000000000E+00 0. -1.
        -12    1    6    6    0    0  0.33173762643E+02  0.42927261212E+01  0.89664069394E+02  0.95700425108E+02  0.00000000000E+00 0.  1.
</event>
<event>
12    1  0.8461994E-002  0.1825235E+03  0.7818608E-02  0.1170612E+00
         21   -1    0    0  503  502  0.00000000000E+00  0.00000000000E+00  0.34314875237E+03  0.34314875237E+03  0.00000000000E+00 0.  1.
         21   -1    0    0  501  503 -0.00000000000E+00 -0.00000000000E+00 -0.91336566337E+02  0.91336566337E+02  0.00000000000E+00 0.  1.
          6    2    1    2  501    0 -0.47328769898E+02 -0.36828887495E+02  0.68424476640E+02  0.17574630078E+03  0.15036114465E+03 0.  0.
         24    2    3    3    0    0 -0.29917450015E+02  0.32781581206E+02  0.44256075475E+02  0.99884762256E+02  0.77773257825E+02 0.  0.
         -6    2    1    2    0  502  0.47328769898E+02  0.36828887495E+02  0.18338770940E+03  0.25873901793E+03  0.17239039424E+03 0.  0.
        -24    2    5    5    0    0  0.43803200788E+01 -0.17284049996E+02  0.16919301702E+03  0.18805409282E+03  0.80125771317E+02 0.  0.
          5    1    3    3  501    0 -0.17411319883E+02 -0.69610468701E+02  0.24168401164E+02  0.75861538527E+02  0.47000000000E+01 0. -1.
        -13    1    4    4    0    0  0.86411409310E+01  0.21921996968E+02  0.53774625166E+02  0.58710762040E+02  0.00000000000E+00 0.  1.
         14    1    4    4    0    0 -0.38558590946E+02  0.10859584238E+02 -0.95185496905E+01  0.41174000216E+02  0.00000000000E+00 0. -1.
         -5    1    5    5    0  502  0.42948449819E+02  0.54112937491E+02  0.14194692375E+02  0.70684925107E+02  0.47000000000E+01 0.  1.
         11    1    6    6    0    0  0.38822116281E+02 -0.23801270231E+02  0.77485746810E+02  0.89876015354E+02  0.00000000000E+00 0. -1.
        -12    1    6    6    0    0 -0.34441796202E+02  0.65172202354E+01  0.91707270211E+02  0.98178077466E+02  0.00000000000E+00 0.  1.
</event>
<event>
12    1  0.8461994E-002  0.1764299E+03  0.7818608E-02  0.1171691E+00
         21   -1    0    0  501  502  0.00000000000E+00  0.00000000000E+00  0.34915916981E+03  0.34915916981E+03  0.00000000000E+00 0. -1.
         21   -1    0    0  502  503 -0.00000000000E+00 -0.00000000000E+00 -0.28897095532E+03  0.28897095532E+03  0.00000000000E+00 0. -1.
         -6    2    1    2    0  503 -0.44901591254E+02 -0.16504157050E+02 -0.23578588341E+03  0.29356057918E+03  0.16820906853E+03 0.  0.
        -24    2    3    3    0    0 -0.50047361104E+02 -0.19314835683E+02 -0.25520498937E+03  0.27273822249E+03  0.79867078179E+02 0.  0.
          6    2    1    2  501    0  0.44901591254E+02  0.16504157050E+02  0.29597409789E+03  0.34456954595E+03  0.16982039122E+03 0.  0.
         24    2    5    5    0    0  0.61991800190E+02 -0.47905109993E+02  0.18566166876E+03  0.21560617540E+03  0.76667364424E+02 0.  0.
          5    1    5    5  501    0 -0.17090208937E+02  0.64409267044E+02  0.11031242913E+03  0.12896337055E+03  0.47000000000E+01 0. -1.
        -11    1    6    6    0    0 -0.13279724437E+02 -0.22395481539E+02  0.23756891135E+02  0.35246255842E+02  0.00000000000E+00 0.  1.
         12    1    6    6    0    0  0.75271524628E+02 -0.25509628455E+02  0.16190477763E+03  0.18035991955E+03  0.00000000000E+00 0. -1.
         -5    1    3    3    0  503  0.51457698503E+01  0.28106786330E+01  0.19419105962E+02  0.20822356689E+02  0.47000000000E+01 0.  1.
         11    1    4    4    0    0  0.10813838676E+02  0.33010544546E+00 -0.14437689529E+03  0.14478168383E+03  0.00000000000E+00 0. -1.
        -12    1    4    4    0    0 -0.60861199780E+02 -0.19644941129E+02 -0.11082809407E+03  0.12795653866E+03  0.00000000000E+00 0.  1.
</event>
<event>
12    1  0.8461994E-002  0.2894220E+03  0.7818608E-02  0.1090833E+00
         21   -1    0    0  503  502  0.00000000000E+00  0.00000000000E+00  0.41630186414E+03  0.41630186414E+03  0.00000000000E+00 0. -1.
         21   -1    0    0  501  503 -0.00000000000E+00 -0.00000000000E+00 -0.38015737918E+03  0.38015737918E+03  0.00000000000E+00 0.  1.
          6    2    1    2  501    0  0.10188156836E+03  0.20911401432E+03 -0.25590360000E+03  0.38529363230E+03  0.16987055556E+03 0.  0.
         24    2    3    3    0    0 -0.12141991588E+02  0.63598478173E+02 -0.10768536921E+03  0.14829811036E+03  0.78765451875E+02 0.  0.
         -6    2    1    2    0  502 -0.10188156836E+03 -0.20911401432E+03  0.29204808496E+03  0.41116561102E+03  0.17221077436E+03 0.  0.
        -24    2    5    5    0    0  0.13580792393E+02 -0.11228830272E+03  0.13325134491E+03  0.19220152761E+03  0.79952519944E+02 0.  0.
          5    1    3    3  501    0  0.11402355994E+03  0.14551553614E+03 -0.14821823079E+03  0.23699552194E+03  0.47000000000E+01 0. -1.
        -11    1    4    4    0    0  0.23344853413E+02  0.37904560432E+01 -0.58553934063E+02  0.63149924245E+02  0.00000000000E+00 0.  1.
         12    1    4    4    0    0 -0.35486845001E+02  0.59808022130E+02 -0.49131435145E+02  0.85148186115E+02  0.00000000000E+00 0. -1.
         -5    1    5    5    0  502 -0.11546236075E+03 -0.96825711596E+02  0.15879674005E+03  0.21896408342E+03  0.47000000000E+01 0.  1.
         13    1    6    6    0    0 -0.26157396049E+02 -0.12959811228E+02  0.44384399139E+02  0.53123826689E+02  0.00000000000E+00 0. -1.
        -14    1    6    6    0    0  0.39738188441E+02 -0.99328491492E+02  0.88866945766E+02  0.13907770092E+03  0.00000000000E+00 0.  1.
</event>
<event>
12    1  0.8461994E-002  0.2215688E+03  0.7818608E-02  0.1132730E+00
         21   -1    0    0  503  502  0.00000000000E+00  0.00000000000E+00  0.94497787823E+02  0.94497787823E+02  0.00000000000E+00 0. -1.
         21   -1    0    0  501  503 -0.00000000000E+00 -0.00000000000E+00 -0.65573944905E+03  0.65573944905E+03  0.00000000000E+00 0.  1.
          6    2    1    2  501    0  0.13194239957E+03  0.46109135955E+02 -0.45171791069E+03  0.50313199447E+03  0.17192406405E+03 0.  0.
         24    2    3    3    0    0  0.10307024718E+03  0.85537597319E+02 -0.40821036120E+03  0.43753320170E+03  0.82821779728E+02 0.  0.
         -6    2    1    2    0  502 -0.13194239957E+03 -0.46109135955E+02 -0.10952375054E+03  0.24710524241E+03  0.17184498732E+03 0.  0.
        -24    2    5    5    0    0 -0.10975386284E+03 -0.58279422464E+02 -0.12692079629E+02  0.14691088365E+03  0.77326045784E+02 0.  0.
          5    1    3    3  501    0  0.28872152395E+02 -0.39428461364E+02 -0.43507549492E+02  0.65598792766E+02  0.47000000000E+01 0. -1.
        -11    1    4    4    0    0  0.11631046255E+03  0.70158725187E+02 -0.33311756282E+03  0.35974669015E+03  0.00000000000E+00 0.  1.
         12    1    4    4    0    0 -0.13240215370E+02  0.15378872133E+02 -0.75092798381E+02  0.77786511554E+02  0.00000000000E+00 0. -1.
         -5    1    5    5    0  502 -0.22188536730E+02  0.12170286509E+02 -0.96831670911E+02  0.10019435876E+03  0.47000000000E+01 0.  1.
         11    1    6    6    0    0 -0.11143007926E+03 -0.53264981475E+02 -0.31428779423E+02  0.12744249288E+03  0.00000000000E+00 0. -1.
        -12    1    6    6    0    0  0.16762164161E+01 -0.50144409893E+01  0.18736699793E+02  0.19468390767E+02  0.00000000000E+00 0.  1.
</event>
<event>
12    1  0.8461994E-002  0.1809703E+03  0.7818608E-02  0.1166882E+00
         21   -1    0    0  501  502  0.00000000000E+00  0.00000000000E+00  0.55039181401E+02  0.55039181401E+02  0.00000000000E+00 0. -1.
         21   -1    0    0  502  503 -0.00000000000E+00 -0.00000000000E+00 -0.61770002512E+03  0.61770002512E+03  0.00000000000E+00 0. -1.
         -6    2    1    2    0  503 -0.15371339863E+02 -0.53849924774E+02 -0.21665603407E+03  0.28229435474E+03  0.17208769023E+03 0.  0.
        -24    2    3    3    0    0  0.35162160817E+01  0.29046101194E+02 -0.57352757437E+02  0.10166181382E+03  0.78674937775E+02 0.  0.
          6    2    1    2  501    0  0.15371339863E+02  0.53849924774E+02 -0.34600480965E+03  0.39044485178E+03  0.17202256102E+03 0.  0.
         24    2    5    5    0    0 -0.43133364054E+02  0.49659430463E+02 -0.12249895371E+03  0.15932298294E+03  0.77789929312E+02 0.  0.
          5    1    5    5  501    0  0.58504703917E+02  0.41904943111E+01 -0.22350585593E+03  0.23112186885E+03  0.47000000000E+01 0. -1.
        -13    1    6    6    0    0 -0.24568601935E+01 -0.20399157121E+02 -0.19977901232E+02  0.28657953711E+02  0.00000000000E+00 0.  1.
         14    1    6    6    0    0 -0.40676503861E+02  0.70058587584E+02 -0.10252105248E+03  0.13066502922E+03  0.00000000000E+00 0. -1.
         -5    1    3    3    0  503 -0.18887555944E+02 -0.82896025968E+02 -0.15930327663E+03  0.18063254091E+03  0.47000000000E+01 0.  1.
         13    1    4    4    0    0 -0.12176302526E+02 -0.11593812938E+02 -0.55573470823E+02  0.58061084221E+02  0.00000000000E+00 0. -1.
        -14    1    4    4    0    0  0.15692518607E+02  0.40639914132E+02 -0.17792866145E+01  0.43600729601E+02  0.00000000000E+00 0.  1.
</event>
<event>
12    1  0.8461994E-002  0.2210123E+03  0.7818608E-02  0.1133263E+00
         21   -1    0    0  501  502  0.00000000000E+00  0.00000000000E+00  0.29465603127E+03  0.29465603127E+03  0.00000000000E+00 0.  1.
         21   -1    0    0  502  503 -0.00000000000E+00 -0.00000000000E+00 -0.18311925873E+03  0.18311925873E+03  0.00000000000E+00 0.  1.
         -6    2    1    2    0  503  0.12882485619E+03  0.51276524116E+02 -0.18797782879E+02  0.22181026322E+03  0.17210842725E+03 0.  0.
        -24    2    3    3    0    0  0.18304952719E+02  0.10055271263E+02 -0.53721341090E+02  0.98702238830E+02  0.80124713337E+02 0.  0.
          6    2    1    2  501    0 -0.12882485619E+03 -0.51276524116E+02  0.13033455542E+03  0.25596502677E+03  0.17118958232E+03 0.  0.
         24    2    5    5    0    0 -0.78402174685E+02 -0.88614035389E+02  0.44452931157E+02  0.14950245145E+03  0.79847176769E+02 0.  0.
          5    1    5    5  501    0 -0.50422681510E+02  0.37337511273E+02  0.85881624263E+02  0.10646257532E+03  0.47000000000E+01 0. -1.
        -13    1    6    6    0    0 -0.56588976636E+01  0.14532297618E+02 -0.26607177323E+00  0.15597486689E+02  0.00000000000E+00 0.  1.
         14    1    6    6    0    0 -0.72743277022E+02 -0.10314633301E+03  0.44719002930E+02  0.13390496476E+03  0.00000000000E+00 0. -1.
         -5    1    3    3    0  503  0.11051990348E+03  0.41221252853E+02  0.34923558211E+02  0.12310802439E+03  0.47000000000E+01 0.  1.
         13    1    4    4    0    0  0.24902181578E+02  0.37385651615E+02 -0.89008328563E+01  0.45793344708E+02  0.00000000000E+00 0. -1.
        -14    1    4    4    0    0 -0.65972288594E+01 -0.27330380353E+02 -0.44820508233E+02  0.52908894121E+02  0.00000000000E+00 0.  1.
</event>
<event>
12    1  0.8461994E-002  0.1773796E+03  0.7818608E-02  0.1170498E+00
         21   -1    0    0  503  502  0.00000000000E+00  0.00000000000E+00  0.94820102047E+03  0.94820102047E+03  0.00000000000E+00 0. -1.
         21   -1    0    0  501  503 -0.00000000000E+00 -0.00000000000E+00 -0.52067447159E+02  0.52067447159E+02  0.00000000000E+00 0.  1.
          6    2    1    2  501    0 -0.20911554091E+02  0.40479022107E+02  0.14648915114E+03  0.23004910560E+03  0.17142833856E+03 0.  0.
         24    2    3    3    0    0 -0.67539169310E+02  0.32124449764E+02  0.48710541515E+02  0.12129856593E+03  0.82140766841E+02 0.  0.
         -6    2    1    2    0  502  0.20911554091E+02 -0.40479022107E+02  0.74964442218E+03  0.77021936203E+03  0.17086620971E+03 0.  0.
        -24    2    5    5    0    0  0.26968723202E+02 -0.91153885799E+02  0.54440492319E+03  0.55867746771E+03  0.81899020794E+02 0.  0.
          5    1    3    3  501    0  0.46627615219E+02  0.83545723433E+01  0.97778609623E+02  0.10875053968E+03  0.47000000000E+01 0. -1.
        -11    1    4    4    0    0 -0.45749877685E+01  0.85426403147E+01 -0.21808054037E+02  0.23864166391E+02  0.00000000000E+00 0.  1.
         12    1    4    4    0    0 -0.62964181542E+02  0.23581809449E+02  0.70518595552E+02  0.97434399535E+02  0.00000000000E+00 0. -1.
         -5    1    5    5    0  502 -0.60571691107E+01  0.50674863692E+02  0.20523949899E+03  0.21154189432E+03  0.47000000000E+01 0.  1.
         13    1    6    6    0    0  0.79160946211E+01 -0.84139373810E+02  0.52049143879E+03  0.52730772480E+03  0.00000000000E+00 0. -1.
        -14    1    6    6    0    0  0.19052628581E+02 -0.70145119893E+01  0.23913484406E+02  0.31369742917E+02  0.00000000000E+00 0.  1.
</event>
<event>
12    1  0.8461994E-002  0.2492021E+03  0.7818608E-02  0.1114250E+00
         21   -1    0    0  501  502  0.00000000000E+00  0.00000000000E+00  0.95201318227E+03  0.95201318227E+03  0.00000000000E+00 0.  1.
         21   -1    0    0  502  503 -0.00000000000E+00 -0.00000000000E+00 -0.10936655714E+03  0.10936655714E+03  0.00000000000E+00 0.  1.
         -6    2    1    2    0  503  0.14440523986E+03  0.10098698616E+03  0.80084727177E+02  0.25913144250E+03  0.17229131229E+03 0.  0.
        -24    2    3    3    0    0  0.18692415980E+02  0.85308539076E+02  0.51237350419E+02  0.12911687048E+03  0.80118330678E+02 0.  0.
          6    2    1    2  501    0 -0.14440523986E+03 -0.10098698616E+03  0.76256189795E+03  0.80224829691E+03  0.17621134190E+03 0.  0.
         24    2    5    5    0    0 -0.44677641108E+02  0.51309601070E+01  0.19152723695E+03  0.21291877403E+03  0.81420534718E+02 0.  0.
          5    1    5    5  501    0 -0.99727598757E+02 -0.10611794627E+03  0.57103466100E+03  0.58932952288E+03  0.47000000000E+01 0. -1.
        -13    1    6    6    0    0 -0.45458728395E+02 -0.23110286528E+02  0.16975893618E+03  0.17725314594E+03  0.00000000000E+00 0.  1.
         14    1    6    6    0    0  0.78108728714E+00  0.28241246636E+02  0.21768300766E+02  0.35665628091E+02  0.00000000000E+00 0. -1.
         -5    1    3    3    0  503  0.12571282388E+03  0.15678447088E+02  0.28847376757E+02  0.13001457202E+03  0.47000000000E+01 0.  1.
         11    1    4    4    0    0  0.53436129188E+01 -0.13390035284E+02  0.20158482779E+02  0.24783294210E+02  0.00000000000E+00 0. -1.
        -12    1    4    4    0    0  0.13348803062E+02  0.98698574360E+02  0.31078867640E+02  0.10433357627E+03  0.00000000000E+00 0.  1.
</event>
<event>
12    1  0.8461994E-002  0.1945896E+03  0.7818608E-02  0.1154619E+00
         21   -1    0    0  501  502  0.00000000000E+00  0.00000000000E+00  0.81663154572E+03  0.81663154572E+03  0.00000000000E+00 0.  1.
         21   -1    0    0  502  503 -0.00000000000E+00 -0.00000000000E+00 -0.73303396773E+02  0.73303396773E+02  0.00000000000E+00 0.  1.
         -6    2    1    2    0  503  0.77317391529E+02 -0.44812125093E+02  0.10130965464E+03  0.21938263950E+03  0.17285540431E+03 0.  0.
        -24    2    3    3    0    0 -0.14833176229E+02 -0.48598660971E+02  0.52793369722E+02  0.11506588679E+03  0.88719588885E+02 0.  0.
          6    2    1    2  501    0 -0.77317391529E+02  0.44812125093E+02  0.64201849430E+03  0.67055230300E+03  0.17165820236E+03 0.  0.
         24    2    5    5    0    0 -0.44613914322E+02  0.84403379070E+01  0.59451916881E+03  0.60220978148E+03  0.84509988618E+02 0.  0.
          5    1    5    5  501    0 -0.32703477207E+02  0.36371787186E+02  0.47499325494E+02  0.68342521514E+02  0.47000000000E+01 0. -1.
        -11    1    6    6    0    0 -0.61267647875E+02 -0.98139510984E+01  0.52026953818E+03  0.52395651601E+03  0.00000000000E+00 0.  1.
         12    1    6    6    0    0  0.16653733554E+02  0.18254289005E+02  0.74249630632E+02  0.78253265474E+02  0.00000000000E+00 0. -1.
         -5    1    3    3    0  503  0.92150567758E+02  0.37865358783E+01  0.48516284923E+02  0.10431675270E+03  0.47000000000E+01 0.  1.
         13    1    4    4    0    0 -0.48806204534E+01 -0.57647887795E+02 -0.27474954627E+01  0.57919324535E+02  0.00000000000E+00 0. -1.
        -14    1    4    4    0    0 -0.99525557754E+01  0.90492268242E+01  0.55540865184E+02  0.57146562259E+02  0.00000000000E+00 0.  1.
</event>
<event>
12    1  0.8461994E-002  0.2423689E+03  0.7818608E-02  0.1118301E+00
         21   -1    0    0  501  502  0.00000000000E+00  0.00000000000E+00  0.13625878702E+04  0.13625878702E+04  0.00000000000E+00 0.  1.
         21   -1    0    0  502  503 -0.00000000000E+00 -0.00000000000E+00 -0.79142391711E+02  0.79142391711E+02  0.00000000000E+00 0.  1.
         -6    2    1    2    0  503  0.74279760753E+02 -0.15302003373E+03  0.11290119164E+04  0.11547339965E+04  0.17265596389E+03 0.  0.
        -24    2    3    3    0    0  0.69541736760E+01 -0.94299479584E+01  0.31333655479E+03  0.32377116169E+03  0.80688810395E+02 0.  0.
          6    2    1    2  501    0 -0.74279760753E+02  0.15302003373E+03  0.15443356208E+03  0.28699626534E+03  0.17200150477E+03 0.  0.
         24    2    5    5    0    0  0.43633611186E+00  0.14503549346E+03  0.11925982977E+03  0.20389674994E+03  0.79470075437E+02 0.  0.
          5    1    5    5  501    0 -0.74716096865E+02  0.79845402693E+01  0.35173732315E+02  0.83099515396E+02  0.47000000000E+01 0. -1.
        -13    1    6    6    0    0  0.28224888172E+02  0.44605934432E+02  0.72506371417E+02  0.89685604168E+02  0.00000000000E+00 0.  1.
         14    1    6    6    0    0 -0.27788552060E+02  0.10042955903E+03  0.46753458348E+02  0.11421114578E+03  0.00000000000E+00 0. -1.
         -5    1    3    3    0  503  0.67325587077E+02 -0.14359008577E+03  0.81567536158E+03  0.83096283484E+03  0.47000000000E+01 0.  1.
         13    1    4    4    0    0 -0.23776883342E+02 -0.19548363231E+02  0.51909053366E+02  0.60349221269E+02  0.00000000000E+00 0. -1.
        -14    1    4    4    0    0  0.30731057018E+02  0.10118415272E+02  0.26142750142E+03  0.26342194042E+03  0.00000000000E+00 0.  1.
</event>
<event>
12    1  0.8461994E-002  0.3012549E+03  0.7818608E-02  0.1085244E+00
         21   -1    0    0  503  502  0.00000000000E+00  0.00000000000E+00  0.44629057160E+03  0.44629057160E+03  0.00000000000E+00 0.  1.
         21   -1    0    0  501  503 -0.00000000000E+00 -0.00000000000E+00 -0.20002182447E+03  0.20002182447E+03  0.00000000000E+00 0.  1.
          6    2    1    2  501    0 -0.44336391596E+02 -0.23699267002E+03  0.11964512516E+03  0.32414422960E+03  0.18061916937E+03 0.  0.
         24    2    3    3    0    0 -0.62683222056E+02 -0.25594761205E+03  0.11016541682E+03  0.29572151183E+03  0.76657857091E+02 0.  0.
         -6    2    1    2    0  502  0.44336391596E+02  0.23699267002E+03  0.12662362197E+03  0.32216816646E+03  0.17212653653E+03 0.  0.
        -24    2    5    5    0    0  0.77707971804E+02  0.18475092915E+03  0.46414408600E+02  0.22068679002E+03  0.79855665177E+02 0.  0.
          5    1    3    3  501    0  0.18346830461E+02  0.18954942029E+02  0.94797083449E+01  0.28422717772E+02  0.47000000000E+01 0. -1.
        -13    1    4    4    0    0 -0.68069187344E+02 -0.11893540639E+03  0.61752574148E+02  0.15030776951E+03  0.00000000000E+00 0.  1.
         14    1    4    4    0    0  0.53859652880E+01 -0.13701220566E+03  0.48412842670E+02  0.14541374233E+03  0.00000000000E+00 0. -1.
         -5    1    5    5    0  502 -0.33371580208E+02  0.52241740877E+02  0.80209213370E+02  0.10148137644E+03  0.47000000000E+01 0.  1.
         11    1    6    6    0    0  0.19588499976E+02  0.95711654205E+01 -0.14663243017E+02  0.26274079139E+02  0.00000000000E+00 0. -1.
        -12    1    6    6    0    0  0.58119471828E+02  0.17517976373E+03  0.61077651617E+02  0.19441271088E+03  0.00000000000E+00 0.  1.
</event>
<event>
12    1  0.8461994E-002  0.1786055E+03  0.7818608E-02  0.1170261E+00
         21   -1    0    0  501  502  0.00000000000E+00  0.00000000000E+00  0.18412970364E+03  0.18412970364E+03  0.00000000000E+00 0. -1.
         21   -1    0    0  502  503 -0.00000000000E+00 -0.00000000000E+00 -0.23093575803E+03  0.23093575803E+03  0.00000000000E+00 0.  1.
         -6    2    1    2    0  503 -0.13128612542E+02  0.44444022051E+02 -0.13112226803E+03  0.22156935327E+03  0.17248854331E+03 0.  0.
        -24    2    3    3    0    0  0.54786821594E+02  0.46921569359E+02 -0.58309946827E+02  0.12185792688E+03  0.79032113424E+02 0.  0.
          6    2    1    2  501    0  0.13128612542E+02 -0.44444022051E+02  0.84316213643E+02  0.19349610840E+03  0.16788057815E+03 0.  0.
         24    2    5    5    0    0  0.23945685788E+02 -0.51208392082E+02 -0.90552446556E+01  0.99139948030E+02  0.80938473869E+02 0.  0.
          5    1    5    5  501    0 -0.10817073245E+02  0.67643700314E+01  0.93371458299E+02  0.94356160373E+02  0.47000000000E+01 0. -1.
        -11    1    6    6    0    0 -0.12545594326E+02  0.52792874614E+01 -0.26389146507E+02  0.29692589420E+02  0.00000000000E+00 0.  1.
         12    1    6    6    0    0  0.36491280113E+02 -0.56487679544E+02  0.17333901852E+02  0.69447358610E+02  0.00000000000E+00 0. -1.
         -5    1    3    3    0  503 -0.67915434136E+02 -0.24775473076E+01 -0.72812321199E+02  0.99711426391E+02  0.47000000000E+01 0.  1.
         13    1    4    4    0    0  0.34510393638E+02  0.56301682646E+02 -0.76347773975E+01  0.66476586583E+02  0.00000000000E+00 0. -1.
        -14    1    4    4    0    0  0.20276427957E+02 -0.93801132878E+01 -0.50675169430E+02  0.55381340294E+02  0.00000000000E+00 0.  1.
</event>
<event>
12    1  0.8461994E-002  0.1828293E+03  0.7818608E-02  0.1165273E+00
         21   -1    0    0  503  502  0.00000000000E+00  0.00000000000E+00  0.56049063141E+02  0.56049063141E+02  0.00000000000E+00 0.  1.
         21   -1    0    0  501  503 -0.00000000000E+00 -0.00000000000E+00 -0.89782566260E+03  0.89782566260E+03  0.00000000000E+00 0. -1.
          6    2    1    2  501    0 -0.11367497007E+02 -0.59351056530E+02 -0.69895592388E+03  0.72247209146E+03  0.17255367719E+03 0.  0.
         24    2    3    3    0    0 -0.69863106187E+02 -0.13940175442E+02 -0.44311406818E+03  0.45608697637E+03  0.81179249175E+02 0.  0.
         -6    2    1    2    0  502  0.11367497007E+02  0.59351056530E+02 -0.14282067558E+03  0.23140263428E+03  0.17174884535E+03 0.  0.
        -24    2    5    5    0    0  0.15596308190E+01 -0.39116491506E+02 -0.89226771949E+02  0.11876849753E+03  0.67911757574E+02 0.  0.
          5    1    3    3  501    0  0.58495609180E+02 -0.45410881088E+02 -0.25584185570E+03  0.26638511509E+03  0.47000000000E+01 0. -1.
        -11    1    4    4    0    0 -0.89870806825E+01 -0.40568660596E+02 -0.16772917923E+03  0.17279948324E+03  0.00000000000E+00 0.  1.
         12    1    4    4    0    0 -0.60876025505E+02  0.26628485154E+02 -0.27538488895E+03  0.28328749313E+03  0.00000000000E+00 0. -1.
         -5    1    5    5    0  502  0.98078661878E+01  0.98467548036E+02 -0.53593903631E+02  0.11263413675E+03  0.47000000000E+01 0.  1.
         11    1    6    6    0    0 -0.24576777086E+02  0.28462442252E+01 -0.49533577086E+02  0.55368712619E+02  0.00000000000E+00 0. -1.
        -12    1    6    6    0    0  0.26136407905E+02 -0.41962735731E+02 -0.39693194863E+02  0.63399784910E+02  0.00000000000E+00 0.  1.
</event>
<event>
12    1  0.8461994E-002  0.2760389E+03  0.7818608E-02  0.1097962E+00
         21   -1    0    0  501  502  0.00000000000E+00  0.00000000000E+00  0.12844722220E+03  0.12844722220E+03  0.00000000000E+00 0.  1.
         21   -1    0    0  502  503 -0.00000000000E+00 -0.00000000000E+00 -0.70869917308E+03  0.70869917308E+03  0.00000000000E+00 0.  1.
         -6    2    1    2    0  503  0.13418818365E+03 -0.16866738739E+03 -0.46038545231E+03  0.53679812782E+03  0.17245958696E+03 0.  0.
        -24    2    3    3    0    0  0.29612404750E+02 -0.52708292489E+02 -0.92412366669E+02  0.13703709048E+03  0.81142221072E+02 0.  0.
          6    2    1    2  501    0 -0.13418818365E+03  0.16866738739E+03 -0.11986649857E+03  0.30034826746E+03  0.17142330088E+03 0.  0.
         24    2    5    5    0    0 -0.31308745069E+02  0.56601504387E+02  0.88937508988E+01  0.10098871073E+03  0.77043189657E+02 0.  0.
          5    1    5    5  501    0 -0.10287943858E+03  0.11206588300E+03 -0.12876024947E+03  0.19935955673E+03  0.47000000000E+01 0. -1.
        -11    1    6    6    0    0 -0.19030276067E+02  0.50320412045E+02 -0.28678473933E+02  0.60965155152E+02  0.00000000000E+00 0.  1.
         12    1    6    6    0    0 -0.12278469002E+02  0.62810923416E+01  0.37572224832E+02  0.40023555575E+02  0.00000000000E+00 0. -1.
         -5    1    3    3    0  503  0.10457577890E+03 -0.11595909490E+03 -0.36797308564E+03  0.39976103734E+03  0.47000000000E+01 0.  1.
         13    1    4    4    0    0 -0.16336213278E+02  0.41601801087E+01 -0.49432972872E+02  0.52228323444E+02  0.00000000000E+00 0. -1.
        -14    1    4    4    0    0  0.45948618028E+02 -0.56868472598E+02 -0.42979393797E+02  0.84808767032E+02  0.00000000000E+00 0.  1.
</event>
<event>
12    1  0.8461994E-002  0.1943891E+03  0.7818608E-02  0.1154587E+00
         21   -1    0    0  501  502  0.00000000000E+00  0.00000000000E+00  0.18643040606E+03  0.18643040606E+03  0.00000000000E+00 0.  1.
         21   -1    0    0  502  503 -0.00000000000E+00 -0.00000000000E+00 -0.25260060305E+03  0.25260060305E+03  0.00000000000E+00 0.  1.
         -6    2    1    2    0  503  0.87993784142E+02 -0.12221447876E+02 -0.13077718348E+03  0.23418672936E+03  0.17276713418E+03 0.  0.
        -24    2    3    3    0    0  0.96146785906E+02  0.48765243553E+02 -0.68410498578E+02  0.14645109604E+03  0.71733352047E+02 0.  0.
          6    2    1    2  501    0 -0.87993784142E+02  0.12221447876E+02  0.64606986482E+02  0.20484427975E+03  0.17290126202E+03 0.  0.
         24    2    5    5    0    0 -0.61750910569E+02  0.18654941234E+02 -0.30054646195E+02  0.10628976209E+03  0.78949667378E+02 0.  0.
          5    1    5    5  501    0 -0.26242873573E+02 -0.64334933577E+01  0.94661632678E+02  0.98554517661E+02  0.47000000000E+01 0. -1.
        -13    1    6    6    0    0 -0.28245543238E+02  0.48766647690E+02 -0.22154457893E+02  0.60554245468E+02  0.00000000000E+00 0.  1.
         14    1    6    6    0    0 -0.33505367331E+02 -0.30111706455E+02 -0.79001883027E+01  0.45735516624E+02  0.00000000000E+00 0. -1.
         -5    1    3    3    0  503 -0.81530017637E+01 -0.60986691430E+02 -0.62366684898E+02  0.87735633323E+02  0.47000000000E+01 0.  1.
         11    1    4    4    0    0  0.37546382753E+01  0.32810688852E+02 -0.53438546917E+01  0.33454377808E+02  0.00000000000E+00 0. -1.
        -12    1    4    4    0    0  0.92392147631E+02  0.15954554701E+02 -0.63066643887E+02  0.11299671823E+03  0.00000000000E+00 0.  1.
</event>
<event>
12    1  0.8461994E-002  0.2137165E+03  0.7818608E-02  0.1138947E+00
         21   -1    0    0  501  502  0.00000000000E+00  0.00000000000E+00  0.75530541577E+03  0.75530541577E+03  0.00000000000E+00 0.  1.
         21   -1    0    0  502  503 -0.00000000000E+00 -0.00000000000E+00 -0.66418249378E+02  0.66418249378E+02  0.00000000000E+00 0.  1.
         -6    2    1    2    0  503  0.10499521212E+03  0.67748295091E+02  0.21611471073E+03  0.30288984470E+03  0.17153094115E+03 0.  0.
        -24    2    3    3    0    0  0.83215838419E+02 -0.16667953373E+02  0.11293089114E+03  0.16772537175E+03  0.90419675513E+02 0.  0.
          6    2    1    2  501    0 -0.10499521212E+03 -0.67748295091E+02  0.47277245567E+03  0.51883382045E+03  0.17338083041E+03 0.  0.
         24    2    5    5    0    0 -0.11396149902E+03 -0.28649228672E+02  0.20373655841E+03  0.24678320879E+03  0.74735301871E+02 0.  0.
          5    1    5    5  501    0  0.89662868917E+01 -0.39099066419E+02  0.26903589725E+03  0.27205061166E+03  0.47000000000E+01 0. -1.
        -11    1    6    6    0    0 -0.10249584178E+03 -0.50068761593E+02  0.15644976968E+03  0.19362026987E+03  0.00000000000E+00 0.  1.
         12    1    6    6    0    0 -0.11465657231E+02  0.21419532921E+02  0.47286788734E+02  0.53162938925E+02  0.00000000000E+00 0. -1.
         -5    1    3    3    0  503  0.21779373705E+02  0.84416248463E+02  0.10318381958E+03  0.13516447295E+03  0.47000000000E+01 0.  1.
         11    1    4    4    0    0  0.14613179771E+02  0.34070611129E+02  0.47188008120E+02  0.60008829984E+02  0.00000000000E+00 0. -1.
        -12    1    4    4    0    0  0.68602658647E+02 -0.50738564501E+02  0.65742883024E+02  0.10771654176E+03  0.00000000000E+00 0.  1.
</event>
<event>
12    1  0.8461994E-002  0.2052889E+03  0.7818608E-02  0.1145634E+00
         21   -1    0    0  501  502  0.00000000000E+00  0.00000000000E+00  0.40088796055E+03  0.40088796055E+03  0.00000000000E+00 0.  1.
         21   -1    0    0  502  503 -0.00000000000E+00 -0.00000000000E+00 -0.12148076659E+03  0.12148076659E+03  0.00000000000E+00 0.  1.
         -6    2    1    2    0  503 -0.25656154336E+02 -0.10485193789E+03  0.42232598207E+02  0.20958799723E+03  0.17461778002E+03 0.  0.
        -24    2    3    3    0    0 -0.16835740982E+02 -0.13357246221E+03  0.66792722655E+02  0.17049889489E+03  0.80520559627E+02 0.  0.
          6    2    1    2  501    0  0.25656154336E+02  0.10485193789E+03  0.23717459575E+03  0.31278072991E+03  0.17299661557E+03 0.  0.
         24    2    5    5    0    0  0.55190076909E+02  0.38270154824E+02  0.21273197564E+03  0.23580724034E+03  0.76417352737E+02 0.  0.
          5    1    5    5  501    0 -0.29533922573E+02  0.66581783063E+02  0.24442620119E+02  0.76973489570E+02  0.47000000000E+01 0. -1.
        -13    1    6    6    0    0  0.29773881082E+02  0.29827056235E+02  0.20297394724E+03  0.20730306447E+03  0.00000000000E+00 0.  1.
         14    1    6    6    0    0  0.25416195827E+02  0.84430985888E+01  0.97580283949E+01  0.28504175874E+02  0.00000000000E+00 0. -1.
         -5    1    3    3    0  503 -0.88204133541E+01  0.28720524325E+02 -0.24560124447E+02  0.39089102345E+02  0.47000000000E+01 0.  1.
         11    1    4    4    0    0 -0.16524146024E+02 -0.13233498187E+03  0.33929714876E+02  0.13761112012E+03  0.00000000000E+00 0. -1.
        -12    1    4    4    0    0 -0.31159495830E+00 -0.12374803404E+01  0.32863007779E+02  0.32887774770E+02  0.00000000000E+00 0.  1.
</event>
<event>
12    1  0.8461994E-002  0.2565744E+03  0.7818608E-02  0.1111248E+00
         21   -1    0    0  501  502  0.00000000000E+00  0.00000000000E+00  0.75975201953E+02  0.75975201953E+02  0.00000000000E+00 0. -1.
         21   -1    0    0  502  503 -0.00000000000E+00 -0.00000000000E+00 -0.13676035106E+04  0.13676035106E+04  0.00000000000E+00 0. -1.
         -6    2    1    2    0  503 -0.13101207401E+03 -0.13785452082E+03 -0.11110805009E+04  0.11403202628E+04  0.17222772709E+03 0.  0.
        -24    2    3    3    0    0 -0.48706054514E+02 -0.26388490827E+02 -0.69524508602E+03  0.70198233506E+03  0.79654484517E+02 0.  0.
          6    2    1    2  501    0  0.13101207401E+03  0.13785452082E+03 -0.18054780775E+03  0.30325844969E+03  0.15231593475E+03 0.  0.
         24    2    5    5    0    0  0.65762708029E+02  0.20887173373E+02 -0.50264464371E+02  0.11635023775E+03  0.79056016003E+02 0.  0.
          5    1    5    5  501    0  0.65249365981E+02  0.11696734745E+03 -0.13028334338E+03  0.18690821194E+03  0.47000000000E+01 0. -1.
        -11    1    6    6    0    0 -0.52845503536E+01  0.24891040459E+02  0.53907904891E+01  0.26010593797E+02  0.00000000000E+00 0.  1.
         12    1    6    6    0    0  0.71047258383E+02 -0.40038670862E+01 -0.55655254861E+02  0.90339643950E+02  0.00000000000E+00 0. -1.
         -5    1    3    3    0  503 -0.82306019496E+02 -0.11146602999E+03 -0.41583541485E+03  0.43833792778E+03  0.47000000000E+01 0.  1.
         13    1    4    4    0    0  0.17688627639E+02 -0.22493743373E+02 -0.15090445903E+03  0.15359365805E+03  0.00000000000E+00 0. -1.
        -14    1    4    4    0    0 -0.66394682153E+02 -0.38947474535E+01 -0.54434062700E+03  0.54838867701E+03  0.00000000000E+00 0.  1.
</event>
<event>
12    1  0.8461994E-002  0.2004827E+03  0.7818608E-02  0.1149634E+00
         21   -1    0    0  503  502  0.00000000000E+00  0.00000000000E+00  0.19014332150E+03  0.19014332150E+03  0.00000000000E+00 0. -1.
         21   -1    0    0  501  503 -0.00000000000E+00 -0.00000000000E+00 -0.20991076984E+03  0.20991076984E+03  0.00000000000E+00 0.  1.
          6    2    1    2  501    0 -0.80252894886E+02 -0.60697915573E+02 -0.74432072559E+01  0.20062085049E+03  0.17340288413E+03 0.  0.
         24    2    3    3    0    0  0.13342270579E+02  0.33536592914E+01 -0.21708242617E+02  0.86217002326E+02  0.82297390467E+02 0.  0.
         -6    2    1    2    0  502  0.80252894886E+02  0.60697915573E+02 -0.12324241084E+02  0.19943324085E+03  0.17174680942E+03 0.  0.
        -24    2    5    5    0    0  0.38191333202E+01 -0.19806861852E+02 -0.22336419919E+02  0.87873961448E+02  0.82559190221E+02 0.  0.
          5    1    3    3  501    0 -0.93595165465E+02 -0.64051574864E+02  0.14265035361E+02  0.11440384816E+03  0.47000000000E+01 0. -1.
        -13    1    4    4    0    0  0.33156409319E+02 -0.28480248032E+02 -0.21521071525E+02  0.48719898671E+02  0.00000000000E+00 0.  1.
         14    1    4    4    0    0 -0.19814138740E+02  0.31833907324E+02 -0.18717109203E+00  0.37497103655E+02  0.00000000000E+00 0. -1.
         -5    1    5    5    0  502  0.76433761566E+02  0.80504777425E+02  0.10012178835E+02  0.11155927940E+03  0.47000000000E+01 0.  1.
         13    1    6    6    0    0  0.11840133558E+02  0.20558709317E+02  0.18357365347E+02  0.29997369117E+02  0.00000000000E+00 0. -1.
        -14    1    6    6    0    0 -0.80210002375E+01 -0.40365571169E+02 -0.40693785265E+02  0.57876592331E+02  0.00000000000E+00 0.  1.
</event>
<event>
12    1  0.8461994E-002  0.2561196E+03  0.7818608E-02  0.1109515E+00
         21   -1    0    0  503  502  0.00000000000E+00  0.00000000000E+00  0.46249197240E+03  0.46249197240E+03  0.00000000000E+00 0.  1.
         21   -1    0    0  501  503 -0.00000000000E+00 -0.00000000000E+00 -0.16412132578E+03  0.16412132578E+03  0.00000000000E+00 0. -1.
          6    2    1    2  501    0 -0.18941277023E+03 -0.81790119988E+01  0.26477679150E+03  0.36829995344E+03  0.17202910400E+03 0.  0.
         24    2    3    3    0    0 -0.15491326493E+03 -0.33633896538E+02  0.27020778298E+03  0.32482866773E+03  0.85860693874E+02 0.  0.
         -6    2    1    2    0  502  0.18941277023E+03  0.81790119988E+01  0.33593855115E+02  0.25831334475E+03  0.17220088040E+03 0.  0.
        -24    2    5    5    0    0  0.14205367861E+02 -0.56344072400E+01  0.55670365671E+01  0.80279536288E+02  0.78614712551E+02 0.  0.
          5    1    3    3  501    0 -0.34499505301E+02  0.25454884540E+02 -0.54309914707E+01  0.43471285710E+02  0.47000000000E+01 0. -1.
        -11    1    4    4    0    0 -0.87263012260E+02  0.24978414881E+02  0.13491730432E+03  0.16260822096E+03  0.00000000000E+00 0.  1.
         12    1    4    4    0    0 -0.67650252671E+02 -0.58612311420E+02  0.13529047865E+03  0.16222044677E+03  0.00000000000E+00 0. -1.
         -5    1    5    5    0  502  0.17520740237E+03  0.13813419239E+02  0.28026818548E+02  0.17803380846E+03  0.47000000000E+01 0.  1.
         13    1    6    6    0    0  0.21169718537E+02  0.72933775910E+01 -0.32506831126E+02  0.39472071259E+02  0.00000000000E+00 0. -1.
        -14    1    6    6    0    0 -0.69643506754E+01 -0.12927784831E+02  0.38073867693E+02  0.40807465029E+02  0.00000000000E+00 0.  1.
</event>
<event>
12    1  0.8461994E-002  0.1908015E+03  0.7818608E-02  0.1157795E+00
         21   -1    0    0  501  502  0.00000000000E+00  0.00000000000E+00  0.10919513406E+03  0.10919513406E+03  0.00000000000E+00 0. -1.
         21   -1    0    0  502  503 -0.00000000000E+00 -0.00000000000E+00 -0.47642666263E+03  0.47642666263E+03  0.00000000000E+00 0. -1.
         -6    2    1    2    0  503 -0.22054485384E+02 -0.81005174794E+02 -0.34437328534E+03  0.39369806612E+03  0.17133875493E+03 0.  0.
        -24    2    3    3    0    0 -0.50355668665E+02 -0.10714291552E+03 -0.21250194979E+03  0.25623433415E+03  0.80521162583E+02 0.  0.
          6    2    1    2  501    0  0.22054485384E+02  0.81005174794E+02 -0.22858243231E+02  0.19192373058E+03  0.17106718097E+03 0.  0.
         24    2    5    5    0    0  0.22740001128E+02  0.11702423491E+03  0.92081298442E+01  0.14346565689E+03  0.79283200253E+02 0.  0.
          5    1    5    5  501    0 -0.68551574468E+00 -0.36019060119E+02 -0.32066373076E+02  0.48458073692E+02  0.47000000000E+01 0. -1.
        -13    1    6    6    0    0  0.26825840056E+02  0.73099934653E+02 -0.30967767930E+02  0.83798739797E+02  0.00000000000E+00 0.  1.
         14    1    6    6    0    0 -0.40858389277E+01  0.43924300260E+02  0.40175897774E+02  0.59666917090E+02  0.00000000000E+00 0. -1.
         -5    1    3    3    0  503  0.28301183281E+02  0.26137740725E+02 -0.13187133555E+03  0.13746373196E+03  0.47000000000E+01 0.  1.
         11    1    4    4    0    0  0.11862853789E+02 -0.66337988830E+02 -0.83379631474E+02  0.10720829728E+03  0.00000000000E+00 0. -1.
        -12    1    4    4    0    0 -0.62218522454E+02 -0.40804926689E+02 -0.12912231831E+03  0.14902603687E+03  0.00000000000E+00 0.  1.
</event>
<event>
12    1  0.8461994E-002  0.1727142E+03  0.7818608E-02  0.1175388E+00
         21   -1    0    0  501  502  0.00000000000E+00  0.00000000000E+00  0.47217284370E+03  0.47217284370E+03  0.00000000000E+00 0. -1.
         21   -1    0    0  502  503 -0.00000000000E+00 -0.00000000000E+00 -0.80730031748E+02  0.80730031748E+02  0.00000000000E+00 0. -1.
         -6    2    1    2    0  503  0.10443989392E+02 -0.60901243462E+01  0.64452598353E+02  0.18310185972E+03  0.17095609690E+03 0.  0.
        -24    2    3    3    0    0  0.96701553275E+01  0.62474119225E+02  0.41459227559E+02  0.11062814437E+03  0.80766275758E+02 0.  0.
          6    2    1    2  501    0 -0.10443989392E+02  0.60901243462E+01  0.32699021360E+03  0.36980101573E+03  0.17229052475E+03 0.  0.
         24    2    5    5    0    0  0.43254407337E+02  0.53678099081E+02  0.15656241651E+03  0.18482572773E+03  0.69974833283E+02 0.  0.
          5    1    5    5  501    0 -0.53698396729E+02 -0.47587974735E+02  0.17042779708E+03  0.18497528800E+03  0.47000000000E+01 0. -1.
        -13    1    6    6    0    0 -0.18525307916E+02  0.19193480141E+02  0.32920957321E+02  0.42371761165E+02  0.00000000000E+00 0.  1.
         14    1    6    6    0    0  0.61779715252E+02  0.34484618940E+02  0.12364145919E+03  0.14245396657E+03  0.00000000000E+00 0. -1.
         -5    1    3    3    0  503  0.77383406479E+00 -0.68564243571E+02  0.22993370794E+02  0.72473715346E+02  0.47000000000E+01 0.  1.
         13    1    4    4    0    0 -0.22211557948E+02  0.60531644411E+02  0.90249068597E+01  0.65106698775E+02  0.00000000000E+00 0. -1.
        -14    1    4    4    0    0  0.31881713276E+02  0.19424748143E+01  0.32434320699E+02  0.45521445594E+02  0.00000000000E+00 0.  1.
</event>
<event>
12    1  0.8461994E-002  0.1807020E+03  0.7818608E-02  0.1168045E+00
         21   -1    0    0  503  502  0.00000000000E+00  0.00000000000E+00  0.36124812858E+02  0.36124812858E+02  0.00000000000E+00 0.  1.
         21   -1    0    0  501  503 -0.00000000000E+00 -0.00000000000E+00 -0.10439608224E+04  0.10439608224E+04  0.00000000000E+00 0.  1.
          6    2    1    2  501    0 -0.14708962890E+02  0.51101109005E+02 -0.29777464808E+03  0.34831443716E+03  0.17270069243E+03 0.  0.
         24    2    3    3    0    0 -0.77131332075E+01 -0.30009467833E+02 -0.11002236743E+03  0.14361740202E+03  0.86953874228E+02 0.  0.
         -6    2    1    2    0  502  0.14708962890E+02 -0.51101109005E+02 -0.71006136149E+03  0.73177119813E+03  0.16874321436E+03 0.  0.
        -24    2    5    5    0    0  0.70906986158E+02 -0.11608991689E+02 -0.37414577989E+03  0.38887294338E+03  0.77939284737E+02 0.  0.
          5    1    3    3  501    0 -0.69958296822E+01  0.81110576838E+02 -0.18775228065E+03  0.20469703514E+03  0.47000000000E+01 0. -1.
        -13    1    4    4    0    0  0.27336245284E+02  0.16769808634E+02 -0.53064389428E+02  0.62002630696E+02  0.00000000000E+00 0.  1.
         14    1    4    4    0    0 -0.35049378492E+02 -0.46779276467E+02 -0.56957978002E+02  0.81614771320E+02  0.00000000000E+00 0. -1.
         -5    1    5    5    0  502 -0.56198023268E+02 -0.39492117316E+02 -0.33591558160E+03  0.34289825475E+03  0.47000000000E+01 0.  1.
         11    1    6    6    0    0  0.27792932555E+02  0.31006752708E+02 -0.20515163930E+03  0.20933480580E+03  0.00000000000E+00 0. -1.
        -12    1    6    6    0    0  0.43114053603E+02 -0.42615744398E+02 -0.16899414059E+03  0.17953813757E+03  0.00000000000E+00 0.  1.
</event>
<event>
12    1  0.8461994E-002  0.1907769E+03  0.7818608E-02  0.1157767E+00
         21   -1    0    0  501  502  0.00000000000E+00  0.00000000000E+00  0.45014206436E+03  0.45014206436E+03  0.00000000000E+00 0. -1.
         21   -1    0    0  502  503 -0.00000000000E+00 -0.00000000000E+00 -0.50906694557E+03  0.50906694557E+03  0.00000000000E+00 0. -1.
         -6    2    1    2    0  503 -0.76002934319E+02 -0.27917653730E+02 -0.46933787215E+03  0.50662240295E+03  0.17272052435E+03 0.  0.
        -24    2    3    3    0    0 -0.57532681485E+02 -0.50526976774E+02 -0.46357798702E+03  0.47649603568E+03  0.79252363685E+02 0.  0.
          6    2    1    2  501    0  0.76002934319E+02  0.27917653730E+02  0.41041299094E+03  0.45258660698E+03  0.17274250278E+03 0.  0.
         24    2    5    5    0    0  0.14433307812E+02  0.83345673708E+02  0.25248641907E+03  0.27418824261E+03  0.65383322556E+02 0.  0.
          5    1    5    5  501    0  0.61569626507E+02 -0.55428019978E+02  0.15792657187E+03  0.17839836437E+03  0.47000000000E+01 0. -1.
        -11    1    6    6    0    0  0.27290316143E+02  0.23664263049E+02  0.15507810744E+03  0.15922932553E+03  0.00000000000E+00 0.  1.
         12    1    6    6    0    0 -0.12857008331E+02  0.59681410658E+02  0.97408311636E+02  0.11495891708E+03  0.00000000000E+00 0. -1.
         -5    1    3    3    0  503 -0.18470252834E+02  0.22609323045E+02 -0.57598851236E+01  0.30126367271E+02  0.47000000000E+01 0.  1.
         13    1    4    4    0    0 -0.48295652045E+02 -0.81064594520E+01 -0.37129862327E+03  0.37451415505E+03  0.00000000000E+00 0. -1.
        -14    1    4    4    0    0 -0.92370294397E+01 -0.42420517322E+02 -0.92279363749E+02  0.10198188063E+03  0.00000000000E+00 0.  1.
</event>
<event>
12    1  0.8461994E-002  0.1734016E+03  0.7818608E-02  0.1176609E+00
         21   -1    0    0  501  502  0.00000000000E+00  0.00000000000E+00  0.13733648855E+03  0.13733648855E+03  0.00000000000E+00 0.  1.
         21   -1    0    0  502  503 -0.00000000000E+00 -0.00000000000E+00 -0.23084672144E+03  0.23084672144E+03  0.00000000000E+00 0.  1.
         -6    2    1    2    0  503  0.17666920164E+02  0.81683420723E+01 -0.10556165658E+03  0.20300589996E+03  0.17230580431E+03 0.  0.
        -24    2    3    3    0    0  0.34080982126E+02 -0.23968083446E+02 -0.12746082052E+03  0.16053432527E+03  0.88255461337E+02 0.  0.
          6    2    1    2  501    0 -0.17666920164E+02 -0.81683420723E+01  0.12051423683E+02  0.16517731003E+03  0.16358320530E+03 0.  0.
         24    2    5    5    0    0 -0.50467337155E+02 -0.32105430696E+02  0.48387558524E+02  0.11048493157E+03  0.79295986564E+02 0.  0.
          5    1    5    5  501    0  0.32800416992E+02  0.23937088624E+02 -0.36336134841E+02  0.54692378462E+02  0.47000000000E+01 0. -1.
        -11    1    6    6    0    0 -0.45087028657E+02  0.18170844219E+02  0.26766352280E+02  0.55492858524E+02  0.00000000000E+00 0.  1.
         12    1    6    6    0    0 -0.53803084986E+01 -0.50276274915E+02  0.21621206244E+02  0.54992073050E+02  0.00000000000E+00 0. -1.
         -5    1    3    3    0  503 -0.16414061963E+02  0.32136425519E+02  0.21899163944E+02  0.42471574690E+02  0.47000000000E+01 0.  1.
         11    1    4    4    0    0  0.22545818419E+02 -0.29224514057E+02 -0.48012551445E+01  0.37221474997E+02  0.00000000000E+00 0. -1.
        -12    1    4    4    0    0  0.11535163708E+02  0.52564306103E+01 -0.12265956537E+03  0.12331285027E+03  0.00000000000E+00 0.  1.
</event>
<event>
12    1  0.8461994E-002  0.2396928E+03  0.7818608E-02  0.1120195E+00
         21   -1    0    0  501  502  0.00000000000E+00  0.00000000000E+00  0.13140359612E+04  0.13140359612E+04  0.00000000000E+00 0. -1.
         21   -1    0    0  502  503 -0.00000000000E+00 -0.00000000000E+00 -0.57490447141E+02  0.57490447141E+02  0.00000000000E+00 0.  1.
         -6    2    1    2    0  503 -0.16353887577E+03 -0.10243784739E+02  0.28889976585E+03  0.37463578404E+03  0.17331761872E+03 0.  0.
        -24    2    3    3    0    0 -0.16316487034E+03 -0.34188449841E+02  0.29653482558E+03  0.34906488253E+03  0.78241705069E+02 0.  0.
          6    2    1    2  501    0  0.16353887577E+03  0.10243784739E+02  0.96764574820E+03  0.99689062429E+03  0.17493634209E+03 0.  0.
         24    2    5    5    0    0  0.18309801236E+03  0.86711063229E+01  0.94797072780E+03  0.96870854543E+03  0.78407110643E+02 0.  0.
          5    1    5    5  501    0 -0.19559136592E+02  0.15726784162E+01  0.19675020397E+02  0.28182078867E+02  0.47000000000E+01 0. -1.
        -13    1    6    6    0    0  0.10083826486E+03  0.23173533461E+02  0.35131193492E+03  0.36623140762E+03  0.00000000000E+00 0.  1.
         14    1    6    6    0    0  0.82259747497E+02 -0.14502427138E+02  0.59665879289E+03  0.60247713781E+03  0.00000000000E+00 0. -1.
         -5    1    3    3    0  503 -0.37400542252E+00  0.23944665102E+02 -0.76350597332E+01  0.25570901510E+02  0.47000000000E+01 0.  1.
         11    1    4    4    0    0 -0.15368041227E+03 -0.29957815977E+02  0.21018745483E+03  0.26209522319E+03  0.00000000000E+00 0. -1.
        -12    1    4    4    0    0 -0.94844580713E+01 -0.42306338644E+01  0.86347370756E+02  0.86969659331E+02  0.00000000000E+00 0.  1.
</event>
<event>
12    1  0.8461994E-002  0.1740401E+03  0.7818608E-02  0.1175141E+00
         21   -1    0    0  503  502  0.00000000000E+00  0.00000000000E+00  0.59503538670E+03  0.59503538670E+03  0.00000000000E+00 0. -1.
         21   -1    0    0  501  503 -0.00000000000E+00 -0.00000000000E+00 -0.77533477528E+02  0.77533477528E+02  0.00000000000E+00 0. -1.
          6    2    1    2  501    0  0.11435547637E+02 -0.13243707736E+02  0.53068816724E+02  0.17659703485E+03  0.16752326962E+03 0.  0.
         24    2    3    3    0    0  0.32729516895E+02 -0.43562321874E+02  0.85974999477E+02  0.12682195722E+03  0.75651907666E+02 0.  0.
         -6    2    1    2    0  502 -0.11435547637E+02  0.13243707736E+02  0.46443309245E+03  0.49597182938E+03  0.17315828202E+03 0.  0.
        -24    2    5    5    0    0 -0.10089014146E+02 -0.10958027439E+02  0.46589432743E+03  0.47123799940E+03  0.69179918854E+02 0.  0.
          5    1    3    3  501    0 -0.21293969258E+02  0.30318614139E+02 -0.32906182754E+02  0.49775077634E+02  0.47000000000E+01 0. -1.
        -11    1    4    4    0    0 -0.10712405768E+02 -0.25911077387E+01  0.61178911492E+02  0.62163724856E+02  0.00000000000E+00 0.  1.
         12    1    4    4    0    0  0.43441922664E+02 -0.40971214136E+02  0.24796087985E+02  0.64658232359E+02  0.00000000000E+00 0. -1.
         -5    1    5    5    0  502 -0.13465334916E+01  0.24201735175E+02 -0.14612349813E+01  0.24733829982E+02  0.47000000000E+01 0.  1.
         13    1    6    6    0    0 -0.37255468794E+01  0.29270356512E+02  0.16785776935E+03  0.17043140615E+03  0.00000000000E+00 0. -1.
        -14    1    6    6    0    0 -0.63634672664E+01 -0.40228383951E+02  0.29803655808E+03  0.30080659325E+03  0.00000000000E+00 0.  1.
</event>
<event>
12    1  0.8461994E-002  0.2452630E+03  0.7818608E-02  0.1118692E+00
         21   -1    0    0  501  502  0.00000000000E+00  0.00000000000E+00  0.83800842793E+03  0.83800842793E+03  0.00000000000E+00 0. -1.
         21   -1    0    0  502  503 -0.00000000000E+00 -0.00000000000E+00 -0.23384428159E+03  0.23384428159E+03  0.00000000000E+00 0.  1.
         -6    2    1    2    0  503  0.94937911991E+02 -0.12206937353E+03 -0.14698740193E+03  0.28593570165E+03  0.19036751316E+03 0.  0.
        -24    2    3    3    0    0  0.88359367474E+02 -0.12217508577E+03 -0.35387108120E+02  0.17404287793E+03  0.79401174624E+02 0.  0.
          6    2    1    2  501    0 -0.94937911991E+02  0.12206937353E+03  0.75115154828E+03  0.78591700787E+03  0.17182187198E+03 0.  0.
         24    2    5    5    0    0 -0.49372938692E+02  0.13942622167E+03  0.43168093557E+03  0.46271275456E+03  0.76663581571E+02 0.  0.
          5    1    5    5  501    0 -0.45564973299E+02 -0.17356848141E+02  0.31947061271E+03  0.32320425331E+03  0.47000000000E+01 0. -1.
        -11    1    6    6    0    0 -0.22849303572E+02  0.76546770941E+01  0.26498709340E+02  0.35817123724E+02  0.00000000000E+00 0.  1.
         12    1    6    6    0    0 -0.26523635120E+02  0.13177154457E+03  0.40518222623E+03  0.42689563084E+03  0.00000000000E+00 0. -1.
         -5    1    3    3    0  503  0.65785445170E+01  0.10571224724E+00 -0.11160029381E+03  0.11189282372E+03  0.47000000000E+01 0.  1.
         13    1    4    4    0    0  0.65418451829E+02 -0.46361415235E+02  0.12994695716E+02  0.81226946139E+02  0.00000000000E+00 0. -1.
        -14    1    4    4    0    0  0.22940915645E+02 -0.75813670539E+02 -0.48381803836E+02  0.92815931788E+02  0.00000000000E+00 0.  1.
</event>
<event>
12    1  0.8461994E-002  0.1895604E+03  0.7818608E-02  0.1158935E+00
         21   -1    0    0  501  502  0.00000000000E+00  0.00000000000E+00  0.31657425013E+03  0.31657425013E+03  0.00000000000E+00 0. -1.
         21   -1    0    0  502  503 -0.00000000000E+00 -0.00000000000E+00 -0.15093528313E+03  0.15093528313E+03  0.00000000000E+00 0. -1.
         -6    2    1    2    0  503  0.45421362248E+02  0.62110385953E+02  0.19959152888E+03  0.27526337098E+03  0.17324071350E+03 0.  0.
        -24    2    3    3    0    0  0.67043280269E+02  0.77882767610E+02  0.20921733049E+03  0.24643592887E+03  0.79989053881E+02 0.  0.
          6    2    1    2  501    0 -0.45421362248E+02 -0.62110385953E+02 -0.33952561885E+02  0.19224616227E+03  0.17287281526E+03 0.  0.
         24    2    5    5    0    0  0.67904062730E+01 -0.84417958805E+02  0.14407499554E+02  0.11751676965E+03  0.80187989871E+02 0.  0.
          5    1    5    5  501    0 -0.52211768521E+02  0.22307572852E+02 -0.48360061440E+02  0.74729392618E+02  0.47000000000E+01 0. -1.
        -13    1    6    6    0    0 -0.30554562783E+01 -0.55458958398E+02 -0.30359113067E+02  0.63298559430E+02  0.00000000000E+00 0.  1.
         14    1    6    6    0    0  0.98458625513E+01 -0.28959000407E+02  0.44766612622E+02  0.54218210221E+02  0.00000000000E+00 0. -1.
         -5    1    3    3    0  503 -0.21621918021E+02 -0.15772381658E+02 -0.96258016107E+01  0.28827442112E+02  0.47000000000E+01 0.  1.
         11    1    4    4    0    0  0.19208715164E+02  0.40346715642E+02  0.16581504198E+03  0.17173077869E+03  0.00000000000E+00 0. -1.
        -12    1    4    4    0    0  0.47834565105E+02  0.37536051968E+02  0.43402288512E+02  0.74705150185E+02  0.00000000000E+00 0.  1.
</event>
<event>
12    1  0.8461994E-002  0.2131029E+03  0.7818608E-02  0.1139252E+00
         21   -1    0    0  503  502  0.00000000000E+00  0.00000000000E+00  0.15880081405E+04  0.15880081405E+04  0.00000000000E+00 0.  1.
         21   -1    0    0  501  503 -0.00000000000E+00 -0.00000000000E+00 -0.47832755440E+02  0.47832755440E+02  0.00000000000E+00 0.  1.
          6    2    1    2  501    0  0.91982374878E+02 -0.85626315899E+02  0.25096005468E+03  0.32923214247E+03  0.17210529141E+03 0.  0.
         24    2    3    3    0    0  0.34460179913E+02 -0.16849573202E+01  0.47555992720E+02  0.10174531425E+03  0.83067403041E+02 0.  0.
         -6    2    1    2    0  502 -0.91982374878E+02  0.85626315899E+02  0.12892153304E+04  0.13066087535E+04  0.17134072277E+03 0.  0.
        -24    2    5    5    0    0 -0.98722979861E+02  0.12681639381E+02  0.60405310566E+03  0.61752550321E+03  0.80935418296E+02 0.  0.
          5    1    3    3  501    0  0.57522194965E+02 -0.83941358579E+02  0.20340406196E+03  0.22748682822E+03  0.47000000000E+01 0. -1.
        -11    1    4    4    0    0  0.22242626017E+02 -0.16584898652E+02 -0.18228169716E+02  0.33197280712E+02  0.00000000000E+00 0.  1.
         12    1    4    4    0    0  0.12217553895E+02  0.14899941332E+02  0.65784162436E+02  0.68548033541E+02  0.00000000000E+00 0. -1.
         -5    1    5    5    0  502  0.67406049834E+01  0.72944676518E+02  0.68516222476E+03  0.68908325029E+03  0.47000000000E+01 0.  1.
         11    1    6    6    0    0 -0.36481386780E+02  0.10558048035E+02  0.68166767704E+02  0.78032507194E+02  0.00000000000E+00 0. -1.
        -12    1    6    6    0    0 -0.62241593081E+02  0.21235913456E+01  0.53588633795E+03  0.53949299602E+03  0.00000000000E+00 0.  1.
</event>
<event>
12    1  0.8461994E-002  0.2755596E+03  0.7818608E-02  0.1098738E+00
         21   -1    0    0  501  502  0.00000000000E+00  0.00000000000E+00  0.90366970354E+02  0.90366970354E+02  0.00000000000E+00 0. -1.
         21   -1    0    0  502  503 -0.00000000000E+00 -0.00000000000E+00 -0.84481793930E+03  0.84481793930E+03  0.00000000000E+00 0.  1.
         -6    2    1    2    0  503 -0.19444568286E+03 -0.95550535666E+02 -0.44736742016E+03  0.52542428714E+03  0.17027637666E+03 0.  0.
        -24    2    3    3    0    0 -0.60843247409E+02 -0.23196169952E+02 -0.93605821345E+02  0.14038646589E+03  0.81892288770E+02 0.  0.
          6    2    1    2  501    0  0.19444568286E+03  0.95550535666E+02 -0.30708354879E+03  0.40976062252E+03  0.16329247803E+03 0.  0.
         24    2    5    5    0    0  0.10421766086E+03  0.26983383559E+02 -0.79039701229E+02  0.15506740174E+03  0.78798482773E+02 0.  0.
          5    1    5    5  501    0  0.90228021997E+02  0.68567152107E+02 -0.22804384756E+03  0.25469322078E+03  0.47000000000E+01 0. -1.
        -11    1    6    6    0    0  0.29960262630E+02  0.23041556604E+02 -0.70791504266E+02  0.80249409616E+02  0.00000000000E+00 0.  1.
         12    1    6    6    0    0  0.74257398231E+02  0.39418269559E+01 -0.82481969638E+01  0.74817992120E+02  0.00000000000E+00 0. -1.
         -5    1    3    3    0  503 -0.13360243545E+03 -0.72354365714E+02 -0.35376159881E+03  0.38503782124E+03  0.47000000000E+01 0.  1.
         13    1    4    4    0    0 -0.46079142215E+02 -0.50695904605E+02 -0.42861577382E+02  0.80811366197E+02  0.00000000000E+00 0. -1.
        -14    1    4    4    0    0 -0.14764105194E+02  0.27499734653E+02 -0.50744243963E+02  0.59575099694E+02  0.00000000000E+00 0.  1.
</event>
<event>
12    1  0.8461994E-002  0.1928694E+03  0.7818608E-02  0.1155980E+00
         21   -1    0    0  503  502  0.00000000000E+00  0.00000000000E+00  0.56021400377E+02  0.56021400377E+02  0.00000000000E+00 0. -1.
         21   -1    0    0  501  503 -0.00000000000E+00 -0.00000000000E+00 -0.66660603976E+03  0.66660603976E+03  0.00000000000E+00 0. -1.
          6    2    1    2  501    0 -0.49682743538E+02  0.70723095787E+02 -0.27803986511E+03  0.33838555699E+03  0.17241950966E+03 0.  0.
         24    2    3    3    0    0  0.25343078869E+02  0.14523162488E+02 -0.19556510541E+03  0.21343963862E+03  0.80359037983E+02 0.  0.
         -6    2    1    2    0  502  0.49682743538E+02 -0.70723095787E+02 -0.33254477428E+03  0.38424188314E+03  0.17200484464E+03 0.  0.
        -24    2    5    5    0    0  0.69382663711E+02 -0.36285246283E+00 -0.24849338270E+03  0.27277270749E+03  0.88554520034E+02 0.  0.
          5    1    3    3  501    0 -0.75025822407E+02  0.56199933299E+02 -0.82474759695E+02  0.12494591837E+03  0.47000000000E+01 0. -1.
        -13    1    4    4    0    0  0.70580484961E+01 -0.15828244983E+02 -0.29346120429E+01  0.17577296028E+02  0.00000000000E+00 0.  1.
         14    1    4    4    0    0  0.18285030373E+02  0.30351407471E+02 -0.19263049337E+03  0.19586234259E+03  0.00000000000E+00 0. -1.
         -5    1    5    5    0  502 -0.19699920173E+02 -0.70360243325E+02 -0.84051391572E+02  0.11146917565E+03  0.47000000000E+01 0.  1.
         13    1    6    6    0    0  0.19946026535E+02 -0.39192064148E+02 -0.62325311105E+02  0.76277822931E+02  0.00000000000E+00 0. -1.
        -14    1    6    6    0    0  0.49436637177E+02  0.38829211685E+02 -0.18616807160E+03  0.19649488456E+03  0.00000000000E+00 0.  1.
</event>
<event>
12    1  0.8461994E-002  0.1983614E+03  0.7818608E-02  0.1151347E+00
         21   -1    0    0  501  502  0.00000000000E+00  0.00000000000E+00  0.52445352734E+03  0.52445352734E+03  0.00000000000E+00 0.  1.
         21   -1    0    0  502  503 -0.00000000000E+00 -0.00000000000E+00 -0.78796423445E+02  0.78796423445E+02  0.00000000000E+00 0.  1.
         -6    2    1    2    0  503  0.84738206989E+02 -0.53398971512E+02  0.15409442660E+03  0.25118185185E+03  0.17121686982E+03 0.  0.
        -24    2    3    3    0    0  0.66690157637E+02 -0.63872545154E+02  0.31312172743E+02  0.12655039639E+03  0.80667660892E+02 0.  0.
          6    2    1    2  501    0 -0.84738206989E+02  0.53398971512E+02  0.29156267730E+03  0.35206809893E+03  0.17003275452E+03 0.  0.
         24    2    5    5    0    0 -0.10827798136E+03  0.44172646637E+02  0.29383326621E+03  0.32625159990E+03  0.80167163752E+02 0.  0.
          5    1    5    5  501    0  0.23539774375E+02  0.92263248748E+01 -0.22705889153E+01  0.25816499033E+02  0.47000000000E+01 0. -1.
        -11    1    6    6    0    0 -0.36526538667E+02  0.18038113355E+02  0.27409854846E+02  0.49100526505E+02  0.00000000000E+00 0.  1.
         12    1    6    6    0    0 -0.71751442697E+02  0.26134533282E+02  0.26642341137E+03  0.27715107339E+03  0.00000000000E+00 0. -1.
         -5    1    3    3    0  503  0.18048049353E+02  0.10473573642E+02  0.12278225385E+03  0.12463145546E+03  0.47000000000E+01 0.  1.
         13    1    4    4    0    0 -0.14332681901E+02  0.37624452514E+00  0.16873220945E+02  0.22142107295E+02  0.00000000000E+00 0. -1.
        -14    1    4    4    0    0  0.81022839538E+02 -0.64248789679E+02  0.14438951799E+02  0.10440828909E+03  0.00000000000E+00 0.  1.
</event>
<event>
12    1  0.8461994E-002  0.1769867E+03  0.7818608E-02  0.1170787E+00
         21   -1    0    0  501  502  0.00000000000E+00  0.00000000000E+00  0.49130881897E+03  0.49130881897E+03  0.00000000000E+00 0.  1.
         21   -1    0    0  502  503 -0.00000000000E+00 -0.00000000000E+00 -0.99351317325E+02  0.99351317325E+02  0.00000000000E+00 0.  1.
         -6    2    1    2    0  503 -0.21762933322E+02 -0.38556171680E+02  0.19131000469E+02  0.17801762854E+03  0.17135949711E+03 0.  0.
        -24    2    3    3    0    0 -0.93549410530E+00 -0.80606868590E+02  0.46180606850E+02  0.12365022525E+03  0.81598942045E+02 0.  0.
          6    2    1    2  501    0  0.21762933322E+02  0.38556171680E+02  0.37282650118E+03  0.41264250776E+03  0.17121342116E+03 0.  0.
         24    2    5    5    0    0  0.69119849522E+02  0.64249232686E+02  0.25933025733E+03  0.28691940620E+03  0.78517805569E+02 0.  0.
          5    1    5    5  501    0 -0.47356916200E+02 -0.25693061006E+02  0.11349624385E+03  0.12572310155E+03  0.47000000000E+01 0. -1.
        -11    1    6    6    0    0  0.78189810029E+01  0.34332025415E+02  0.17474425617E+03  0.17825649918E+03  0.00000000000E+00 0.  1.
         12    1    6    6    0    0  0.61300868519E+02  0.29917207271E+02  0.84586001153E+02  0.10866290702E+03  0.00000000000E+00 0. -1.
         -5    1    3    3    0  503 -0.20827439217E+02  0.42050696910E+02 -0.27049606381E+02  0.54367403289E+02  0.47000000000E+01 0.  1.
         13    1    4    4    0    0  0.16981145301E+02 -0.30227434186E+02  0.59211053187E+02  0.68614910134E+02  0.00000000000E+00 0. -1.
        -14    1    4    4    0    0 -0.17916639406E+02 -0.50379434404E+02 -0.13030446337E+02  0.55035315119E+02  0.00000000000E+00 0.  1.
</event>
<event>
12    1  0.8461994E-002  0.2282308E+03  0.7818608E-02  0.1127934E+00
         21   -1    0    0  501  502  0.00000000000E+00  0.00000000000E+00  0.88134065499E+02  0.88134065499E+02  0.00000000000E+00 0.  1.
         21   -1    0    0  502  503 -0.00000000000E+00 -0.00000000000E+00 -0.62870861191E+03  0.62870861191E+03  0.00000000000E+00 0. -1.
         -6    2    1    2    0  503 -0.11021786467E+03  0.10148108739E+03 -0.35862222435E+03  0.42495920777E+03  0.17185470514E+03 0.  0.
        -24    2    3    3    0    0 -0.11647314932E+03  0.13126522357E+03 -0.27235544555E+03  0.33336078814E+03  0.78456184698E+02 0.  0.
          6    2    1    2  501    0  0.11021786467E+03 -0.10148108739E+03 -0.18195232206E+03  0.29188346964E+03  0.17217120419E+03 0.  0.
         24    2    5    5    0    0 -0.67840336386E+01 -0.13728386518E+02 -0.73762701387E+02  0.10990252354E+03  0.80019602951E+02 0.  0.
          5    1    5    5  501    0  0.11700189831E+03 -0.87752700877E+02 -0.10818962068E+03  0.18198094610E+03  0.47000000000E+01 0. -1.
        -11    1    6    6    0    0  0.23119296678E+02  0.38708315427E+01  0.48815981064E+01  0.23944001667E+02  0.00000000000E+00 0.  1.
         12    1    6    6    0    0 -0.29903330317E+02 -0.17599218060E+02 -0.78644299493E+02  0.85958521876E+02  0.00000000000E+00 0. -1.
         -5    1    3    3    0  503  0.62552846490E+01 -0.29784136178E+02 -0.86266778804E+02  0.91598419633E+02  0.47000000000E+01 0.  1.
         11    1    4    4    0    0 -0.69483929791E+02  0.74509144142E+02 -0.22157137657E+03  0.24387190075E+03  0.00000000000E+00 0. -1.
        -12    1    4    4    0    0 -0.46989219532E+02  0.56756079430E+02 -0.50784068977E+02  0.89488887390E+02  0.00000000000E+00 0.  1.
</event>
<event>
12    1  0.8461994E-002  0.2070144E+03  0.7818608E-02  0.1144315E+00
         21   -1    0    0  503  502  0.00000000000E+00  0.00000000000E+00  0.23102016721E+02  0.23102016721E+02  0.00000000000E+00 0. -1.
         21   -1    0    0  501  503 -0.00000000000E+00 -0.00000000000E+00 -0.24676857340E+04  0.24676857340E+04  0.00000000000E+00 0. -1.
          6    2    1    2  501    0  0.11209454104E+03 -0.13519527496E+02 -0.18469288924E+04  0.18582956668E+04  0.17137236668E+03 0.  0.
         24    2    3    3    0    0  0.76581078499E+02 -0.58256111627E+02 -0.79053069548E+03  0.80034396263E+03  0.79707226144E+02 0.  0.
         -6    2    1    2    0  502 -0.11209454104E+03  0.13519527496E+02 -0.59765482491E+03  0.63249208391E+03  0.17351363842E+03 0.  0.
        -24    2    5    5    0    0 -0.10523237358E+02  0.30161652596E+02 -0.12366627995E+03  0.14743443701E+03  0.73641704278E+02 0.  0.
          5    1    3    3  501    0  0.35513462545E+02  0.44736584131E+02 -0.10563981969E+04  0.10579517042E+04  0.47000000000E+01 0. -1.
        -11    1    4    4    0    0 -0.23067651302E+01 -0.12012386202E+02 -0.14613790783E+02  0.19057320606E+02  0.00000000000E+00 0.  1.
         12    1    4    4    0    0  0.78887843629E+02 -0.46243725425E+02 -0.77591690469E+03  0.78128664202E+03  0.00000000000E+00 0. -1.
         -5    1    5    5    0  502 -0.10157130369E+03 -0.16642125101E+02 -0.47398854496E+03  0.48505764690E+03  0.47000000000E+01 0.  1.
         13    1    6    6    0    0 -0.30777512459E+02  0.64728489181E+01 -0.15879977526E+02  0.35232467023E+02  0.00000000000E+00 0. -1.
        -14    1    6    6    0    0  0.20254275102E+02  0.23688803678E+02 -0.10778630242E+03  0.11220196999E+03  0.00000000000E+00 0.  1.
</event>
<event>
12    1  0.8461994E-002  0.2294787E+03  0.7818608E-02  0.1127119E+00
         21   -1    0    0  501  502  0.00000000000E+00  0.00000000000E+00  0.77966622407E+02  0.77966622407E+02  0.00000000000E+00 0.  1.
         21   -1    0    0  502  503 -0.00000000000E+00 -0.00000000000E+00 -0.86325794939E+03  0.86325794939E+03  0.00000000000E+00 0.  1.
         -6    2    1    2    0  503  0.14312321566E+02 -0.15088150196E+03 -0.61367449258E+03  0.65517695824E+03  0.17230900612E+03 0.  0.
        -24    2    3    3    0    0 -0.22451892555E+02 -0.36505307100E+02 -0.14901687977E+03  0.17521622179E+03  0.81596378588E+02 0.  0.
          6    2    1    2  501    0 -0.14312321566E+02  0.15088150196E+03 -0.17161683441E+03  0.28604761355E+03  0.17146669994E+03 0.  0.
         24    2    5    5    0    0 -0.29681604505E+02  0.16692389352E+03 -0.18210989514E+03  0.26103226809E+03  0.78925580159E+02 0.  0.
          5    1    5    5  501    0  0.15369282939E+02 -0.16042391560E+02  0.10493060736E+02  0.25015345463E+02  0.47000000000E+01 0. -1.
        -11    1    6    6    0    0  0.98910152796E+01  0.86150136028E+01  0.38093341353E+01  0.13658757967E+02  0.00000000000E+00 0.  1.
         12    1    6    6    0    0 -0.39572619784E+02  0.15830887991E+03 -0.18591922928E+03  0.24737351012E+03  0.00000000000E+00 0. -1.
         -5    1    3    3    0  503  0.36764214121E+02 -0.11437619485E+03 -0.46465761281E+03  0.47996073645E+03  0.47000000000E+01 0.  1.
         13    1    4    4    0    0 -0.27932564438E+02  0.68790874986E+01 -0.11837391638E+03  0.12181926810E+03  0.00000000000E+00 0. -1.
        -14    1    4    4    0    0  0.54806718828E+01 -0.43384394599E+02 -0.30642963390E+02  0.53396953699E+02  0.00000000000E+00 0.  1.
</event>
<event>
12    1  0.8461994E-002  0.1824692E+03  0.7818608E-02  0.1165528E+00
         21   -1    0    0  501  502  0.00000000000E+00  0.00000000000E+00  0.28781881398E+03  0.28781881398E+03  0.00000000000E+00 0.  1.
         21   -1    0    0  502  503 -0.00000000000E+00 -0.00000000000E+00 -0.15726040647E+03  0.15726040647E+03  0.00000000000E+00 0.  1.
         -6    2    1    2    0  503 -0.49397400241E+02  0.34310633137E+02  0.18000021148E+03  0.25603023915E+03  0.17185483564E+03 0.  0.
        -24    2    3    3    0    0 -0.27943584781E+02  0.50113483515E+02  0.27872578548E+02  0.10151518170E+03  0.78969907690E+02 0.  0.
          6    2    1    2  501    0  0.49397400241E+02 -0.34310633137E+02 -0.49441803975E+02  0.18904898130E+03  0.17227217609E+03 0.  0.
         24    2    5    5    0    0  0.50748634367E+02 -0.85001477162E+02 -0.17328165182E+02  0.12884297414E+03  0.80619921031E+02 0.  0.
          5    1    5    5  501    0 -0.13512341254E+01  0.50690844025E+02 -0.32113638792E+02  0.60206007160E+02  0.47000000000E+01 0. -1.
        -11    1    6    6    0    0 -0.20648034921E+02 -0.33273965845E+02 -0.96684709129E+00  0.39171838640E+02  0.00000000000E+00 0.  1.
         12    1    6    6    0    0  0.71396669287E+02 -0.51727511317E+02 -0.16361318091E+02  0.89671135501E+02  0.00000000000E+00 0. -1.
         -5    1    3    3    0  503 -0.21453815460E+02 -0.15802850378E+02  0.15212763293E+03  0.15451505745E+03  0.47000000000E+01 0.  1.
         11    1    4    4    0    0 -0.43591080692E+00 -0.18022722436E+02  0.21057430184E+02  0.27720460101E+02  0.00000000000E+00 0. -1.
        -12    1    4    4    0    0 -0.27507673974E+02  0.68136205952E+02  0.68151483640E+01  0.73794721601E+02  0.00000000000E+00 0.  1.
</event>
<event>
12    1  0.8461994E-002  0.1829887E+03  0.7818608E-02  0.1165950E+00
         21   -1    0    0  501  502  0.00000000000E+00  0.00000000000E+00  0.15477494328E+03  0.15477494328E+03  0.00000000000E+00 0.  1.
         21   -1    0    0  502  503 -0.00000000000E+00 -0.00000000000E+00 -0.22632511905E+03  0.22632511905E+03  0.00000000000E+00 0.  1.
         -6    2    1    2    0  503 -0.48657866229E+02 -0.27026472659E+02 -0.85087324922E+02  0.20180369696E+03  0.17431827521E+03 0.  0.
        -24    2    3    3    0    0 -0.24455539434E+02  0.51188238972E+02 -0.25907973011E+02  0.10067220122E+03  0.79027588947E+02 0.  0.
          6    2    1    2  501    0  0.48657866229E+02  0.27026472659E+02  0.13537149153E+02  0.17929636537E+03  0.16989971764E+03 0.  0.
         24    2    5    5    0    0 -0.13753525672E+02  0.56409424615E+02  0.36559133443E+02  0.10642221724E+03  0.81350694096E+02 0.  0.
          5    1    5    5  501    0  0.62411391901E+02 -0.29382951956E+02 -0.23021984290E+02  0.72874148128E+02  0.47000000000E+01 0. -1.
        -13    1    6    6    0    0  0.35312287344E+01  0.61447225480E+02 -0.43747973076E+01  0.61703889238E+02  0.00000000000E+00 0.  1.
         14    1    6    6    0    0 -0.17284754406E+02 -0.50378008653E+01  0.40933930750E+02  0.44718328000E+02  0.00000000000E+00 0. -1.
         -5    1    3    3    0  503 -0.24202326795E+02 -0.78214711630E+02 -0.59179351911E+02  0.10113149574E+03  0.47000000000E+01 0.  1.
         11    1    4    4    0    0 -0.19202285866E+02  0.56330858177E+02  0.13132581715E+02  0.60945533618E+02  0.00000000000E+00 0. -1.
        -12    1    4    4    0    0 -0.52532535684E+01 -0.51426192057E+01 -0.39040554727E+02  0.39726667601E+02  0.00000000000E+00 0.  1.
</event>
<event>
12    1  0.8461994E-002  0.1802951E+03  0.7818608E-02  0.1167659E+00
         21   -1    0    0  501  502  0.00000000000E+00  0.00000000000E+00  0.39831901813E+02  0.39831901813E+02  0.00000000000E+00 0. -1.
         21   -1    0    0  502  503 -0.00000000000E+00 -0.00000000000E+00 -0.12336027786E+04  0.12336027786E+04  0.00000000000E+00 0. -1.
         -6    2    1    2    0  503  0.14716950764E+02  0.48899059950E+02 -0.96911937786E+03  0.98574778243E+03  0.17291216073E+03 0.  0.
        -24    2    3    3    0    0  0.48225050091E+02  0.83803647625E+02 -0.55876425731E+03  0.57252322130E+03  0.78845652212E+02 0.  0.
          6    2    1    2  501    0 -0.14716950764E+02 -0.48899059950E+02 -0.22465149889E+03  0.28768689794E+03  0.17230133078E+03 0.  0.
         24    2    5    5    0    0  0.31603603405E+02 -0.36360171664E+02 -0.21997212087E+03  0.23924307443E+03  0.80800153907E+02 0.  0.
          5    1    5    5  501    0 -0.46320554169E+02 -0.12538888286E+02 -0.46793780256E+01  0.48443823514E+02  0.47000000000E+01 0. -1.
        -11    1    6    6    0    0  0.37339005212E+02 -0.32420154792E+02 -0.54366716148E+02  0.73491547621E+02  0.00000000000E+00 0.  1.
         12    1    6    6    0    0 -0.57354018069E+01 -0.39400168717E+01 -0.16560540472E+03  0.16575152681E+03  0.00000000000E+00 0. -1.
         -5    1    3    3    0  503 -0.33508099327E+02 -0.34904587675E+02 -0.41035512055E+03  0.41322456113E+03  0.47000000000E+01 0.  1.
         11    1    4    4    0    0 -0.13073288012E+02  0.53612506591E+02 -0.29039557622E+03  0.29559229085E+03  0.00000000000E+00 0. -1.
        -12    1    4    4    0    0  0.61298338103E+02  0.30191141034E+02 -0.26836868109E+03  0.27693093045E+03  0.00000000000E+00 0.  1.
</event>
<event>
12    1  0.8461994E-002  0.1761617E+03  0.7818608E-02  0.1171586E+00
         21   -1    0    0  503  502  0.00000000000E+00  0.00000000000E+00  0.17470821562E+03  0.17470821562E+03  0.00000000000E+00 0.  1.
         21   -1    0    0  501  503 -0.00000000000E+00 -0.00000000000E+00 -0.19659764998E+03  0.19659764998E+03  0.00000000000E+00 0.  1.
          6    2    1    2  501    0  0.33634559504E+02  0.46352498356E+01 -0.68713052108E+02  0.18908839082E+03  0.17285880620E+03 0.  0.
         24    2    3    3    0    0  0.39669819597E+02  0.52519126010E+02 -0.89158361840E+02  0.13646339057E+03  0.79630963169E+02 0.  0.
         -6    2    1    2    0  502 -0.33634559504E+02 -0.46352498356E+01  0.46823617748E+02  0.18221747477E+03  0.17279464054E+03 0.  0.
        -24    2    5    5    0    0 -0.57858214237E+02  0.39590313141E+02  0.69404430399E+02  0.12676777712E+03  0.79612364038E+02 0.  0.
          5    1    3    3  501    0 -0.60352600937E+01 -0.47883876175E+02  0.20445309732E+02  0.52625000256E+02  0.47000000000E+01 0. -1.
        -13    1    4    4    0    0  0.52301042196E+02  0.17518844666E+02 -0.21405322909E+02  0.59164996257E+02  0.00000000000E+00 0.  1.
         14    1    4    4    0    0 -0.12631222599E+02  0.35000281345E+02 -0.67753038931E+02  0.77298394310E+02  0.00000000000E+00 0. -1.
         -5    1    5    5    0  502  0.24223654733E+02 -0.44225562977E+02 -0.22580812652E+02  0.55449697648E+02  0.47000000000E+01 0.  1.
         11    1    6    6    0    0 -0.46440611327E+02  0.63031848947E+02  0.61385431039E+02  0.99488268183E+02  0.00000000000E+00 0. -1.
        -12    1    6    6    0    0 -0.11417602911E+02 -0.23441535806E+02  0.80189993600E+01  0.27279508938E+02  0.00000000000E+00 0.  1.
</event>
<event>
12    1  0.8461994E-002  0.1821157E+03  0.7818608E-02  0.1166342E+00
         21   -1    0    0  503  502  0.00000000000E+00  0.00000000000E+00  0.40597298562E+02  0.40597298562E+02  0.00000000000E+00 0. -1.
         21   -1    0    0  501  503 -0.00000000000E+00 -0.00000000000E+00 -0.89873668383E+03  0.89873668383E+03  0.00000000000E+00 0. -1.
          6    2    1    2  501    0  0.53572003235E+02  0.30268066695E+02 -0.58221679298E+03  0.61003485270E+03  0.17140598613E+03 0.  0.
         24    2    3    3    0    0  0.84850770865E+02  0.85793322940E+01 -0.54001047467E+03  0.55300656314E+03  0.83256758667E+02 0.  0.
         -6    2    1    2    0  502 -0.53572003235E+02 -0.30268066695E+02 -0.27592259229E+03  0.32929912970E+03  0.16887428606E+03 0.  0.
        -24    2    5    5    0    0 -0.43626208024E+02 -0.32461472875E+02 -0.29332970878E+03  0.30859097726E+03  0.78924520563E+02 0.  0.
          5    1    3    3  501    0 -0.31278767630E+02  0.21688734401E+02 -0.42206318312E+02  0.57028289557E+02  0.47000000000E+01 0. -1.
        -13    1    4    4    0    0 -0.96224734260E+01  0.21252788986E+02 -0.86786535196E+02  0.89867545453E+02  0.00000000000E+00 0.  1.
         14    1    4    4    0    0  0.94473244291E+02 -0.12673456692E+02 -0.45322393947E+03  0.46313901768E+03  0.00000000000E+00 0. -1.
         -5    1    5    5    0  502 -0.99457952114E+01  0.21934061804E+01  0.17407116487E+02  0.20708152440E+02  0.47000000000E+01 0.  1.
         11    1    6    6    0    0 -0.37419793073E+02  0.36576955111E+01 -0.50222539550E+02  0.62736935922E+02  0.00000000000E+00 0. -1.
        -12    1    6    6    0    0 -0.62064149509E+01 -0.36119168386E+02 -0.24310716923E+03  0.24585404134E+03  0.00000000000E+00 0.  1.
</event>
<event>
12    1  0.8461994E-002  0.2035198E+03  0.7818608E-02  0.1146957E+00
         21   -1    0    0  503  502  0.00000000000E+00  0.00000000000E+00  0.73716130745E+02  0.73716130745E+02  0.00000000000E+00 0. -1.
         21   -1    0    0  501  503 -0.00000000000E+00 -0.00000000000E+00 -0.59246252033E+03  0.59246252033E+03  0.00000000000E+00 0. -1.
          6    2    1    2  501    0 -0.10767428444E+03 -0.22653687350E+00 -0.33709119837E+03  0.39338032674E+03  0.17182491846E+03 0.  0.
         24    2    3    3    0    0 -0.63769779849E+02 -0.47017554883E+02 -0.29786876240E+03  0.31803117696E+03  0.78363222354E+02 0.  0.
         -6    2    1    2    0  502  0.10767428444E+03  0.22653687350E+00 -0.18165519122E+03  0.27279832433E+03  0.17270354488E+03 0.  0.
        -24    2    5    5    0    0  0.13916225075E+03  0.16488676489E+01 -0.10358977195E+03  0.18847860699E+03  0.73651161854E+02 0.  0.
          5    1    3    3  501    0 -0.43904504587E+02  0.46791018009E+02 -0.39222435968E+02  0.75349149780E+02  0.47000000000E+01 0. -1.
        -11    1    4    4    0    0 -0.25317558735E+02 -0.54348480719E+02 -0.10222945481E+03  0.11851412391E+03  0.00000000000E+00 0.  1.
         12    1    4    4    0    0 -0.38452221113E+02  0.73309258358E+01 -0.19563930759E+03  0.19951705305E+03  0.00000000000E+00 0. -1.
         -5    1    5    5    0  502 -0.31487966310E+02 -0.14223307754E+01 -0.78065419272E+02  0.84319717346E+02  0.47000000000E+01 0.  1.
         13    1    6    6    0    0  0.44531818361E+02  0.35432417710E+02 -0.40183674655E+02  0.69665391552E+02  0.00000000000E+00 0. -1.
        -14    1    6    6    0    0  0.94630432385E+02 -0.33783550061E+02 -0.63406097291E+02  0.11881321543E+03  0.00000000000E+00 0.  1.
</event>
<event>
12    1  0.8461994E-002  0.2486882E+03  0.7818608E-02  0.1114247E+00
         21   -1    0    0  503  502  0.00000000000E+00  0.00000000000E+00  0.15757333956E+03  0.15757333956E+03  0.00000000000E+00 0. -1.
         21   -1    0    0  501  503 -0.00000000000E+00 -0.00000000000E+00 -0.97223850533E+03  0.97223850533E+03  0.00000000000E+00 0.  1.
          6    2    1    2  501    0  0.63620255810E+02  0.16683910087E+03 -0.84419456530E+03  0.88006264631E+03  0.17309816523E+03 0.  0.
         24    2    3    3    0    0 -0.60977373697E+01  0.45464395895E+02 -0.17706412112E+03  0.19839004370E+03  0.76829113997E+02 0.  0.
         -6    2    1    2    0  502 -0.63620255810E+02 -0.16683910087E+03  0.29529399542E+02  0.24974919858E+03  0.17210419584E+03 0.  0.
        -24    2    5    5    0    0  0.21787943024E+02 -0.13188018843E+03  0.14666820895E+02  0.15615607794E+03  0.79388327110E+02 0.  0.
          5    1    3    3  501    0  0.69717993180E+02  0.12137470498E+03 -0.66713044419E+03  0.68167260261E+03  0.47000000000E+01 0. -1.
        -13    1    4    4    0    0  0.23056931460E+02 -0.85864101085E+01 -0.78441132383E+02  0.82209243863E+02  0.00000000000E+00 0.  1.
         14    1    4    4    0    0 -0.29154668830E+02  0.54050806003E+02 -0.98622988733E+02  0.11618079984E+03  0.00000000000E+00 0. -1.
         -5    1    5    5    0  502 -0.85408198835E+02 -0.34958912439E+02  0.14862578647E+02  0.93593120640E+02  0.47000000000E+01 0.  1.
         13    1    6    6    0    0 -0.12413279245E+02 -0.11783452532E+03  0.10585128475E+02  0.11895843729E+03  0.00000000000E+00 0. -1.
        -14    1    6    6    0    0  0.34201222269E+02 -0.14045663117E+02  0.40816924202E+01  0.37197640653E+02  0.00000000000E+00 0.  1.
</event>
<event>
12    1  0.8461994E-002  0.1791861E+03  0.7818608E-02  0.1168733E+00
         21   -1    0    0  503  502  0.00000000000E+00  0.00000000000E+00  0.12250322999E+04  0.12250322999E+04  0.00000000000E+00 0.  1.
         21   -1    0    0  501  503 -0.00000000000E+00 -0.00000000000E+00 -0.12054006091E+03  0.12054006091E+03  0.00000000000E+00 0.  1.
          6    2    1    2  501    0 -0.34065837155E+02  0.30017718177E+02 -0.42990959291E+02  0.18427121569E+03  0.17333814838E+03 0.  0.
         24    2    3    3    0    0 -0.87138062497E+02  0.17130399374E+02 -0.48797782409E+02  0.12914814172E+03  0.80072007743E+02 0.  0.
         -6    2    1    2    0  502  0.34065837155E+02 -0.30017718177E+02  0.11474831983E+04  0.11613011451E+04  0.17274580938E+03 0.  0.
        -24    2    5    5    0    0  0.82366640811E+02  0.10274571314E+02  0.66906737739E+03  0.67874521685E+03  0.78447967349E+02 0.  0.
          5    1    3    3  501    0  0.53072225342E+02  0.12887318804E+02  0.58068231181E+01  0.55123073966E+02  0.47000000000E+01 0. -1.
        -11    1    4    4    0    0  0.18042338476E+01 -0.24391156794E+01 -0.37222246820E+02  0.37345685205E+02  0.00000000000E+00 0.  1.
         12    1    4    4    0    0 -0.88942296345E+02  0.19569515053E+02 -0.11575535588E+02  0.91802456517E+02  0.00000000000E+00 0. -1.
         -5    1    5    5    0  502 -0.48300803657E+02 -0.40292289491E+02  0.47841582091E+03  0.48255592829E+03  0.47000000000E+01 0.  1.
         13    1    6    6    0    0  0.62534200675E+01 -0.27416709525E+02  0.21156103526E+03  0.21342177224E+03  0.00000000000E+00 0. -1.
        -14    1    6    6    0    0  0.76113220744E+02  0.37691280839E+02  0.45750634212E+03  0.46532344461E+03  0.00000000000E+00 0.  1.
</event>
<event>
12    1  0.8461994E-002  0.1885568E+03  0.7818608E-02  0.1159782E+00
         21   -1    0    0  501  502  0.00000000000E+00  0.00000000000E+00  0.41609883546E+03  0.41609883546E+03  0.00000000000E+00 0.  1.
         21   -1    0    0  502  503 -0.00000000000E+00 -0.00000000000E+00 -0.87535177298E+02  0.87535177298E+02  0.00000000000E+00 0. -1.
         -6    2    1    2    0  503  0.13818642369E+02  0.76774536087E+02  0.12512074227E+03  0.22624859549E+03  0.17160402835E+03 0.  0.
        -24    2    3    3    0    0  0.64268594913E+02  0.21505408960E+02  0.10340449439E+03  0.14818734040E+03  0.81694941631E+02 0.  0.
          6    2    1    2  501    0 -0.13818642369E+02 -0.76774536087E+02  0.20344291588E+03  0.27738541726E+03  0.17166352384E+03 0.  0.
         24    2    5    5    0    0 -0.26208861368E+01  0.21799273650E+02  0.61506387377E+02  0.10415073876E+03  0.81131148890E+02 0.  0.
          5    1    5    5  501    0 -0.11197756232E+02 -0.98573809737E+02  0.14193652851E+03  0.17323467850E+03  0.47000000000E+01 0. -1.
        -13    1    6    6    0    0 -0.34962513977E+02 -0.11299357276E+02  0.35383813950E+02  0.51010461164E+02  0.00000000000E+00 0.  1.
         14    1    6    6    0    0  0.32341627840E+02  0.33098630927E+02  0.26122573426E+02  0.53140277596E+02  0.00000000000E+00 0. -1.
         -5    1    3    3    0  503 -0.50449952544E+02  0.55269127127E+02  0.21716247889E+02  0.78061255098E+02  0.47000000000E+01 0.  1.
         13    1    4    4    0    0  0.39385881989E+02  0.18024448057E+02  0.16166583544E+01  0.43344457686E+02  0.00000000000E+00 0. -1.
        -14    1    4    4    0    0  0.24882712924E+02  0.34809609027E+01  0.10178783603E+03  0.10484288271E+03  0.00000000000E+00 0.  1.
</event>
<event>
12    1  0.8461994E-002  0.2019283E+03  0.7818608E-02  0.1149219E+00
         21   -1    0    0  501  502  0.00000000000E+00  0.00000000000E+00  0.19508481481E+02  0.19508481481E+02  0.00000000000E+00 0.  1.
         21   -1    0    0  502  503 -0.00000000000E+00 -0.00000000000E+00 -0.21445920265E+04  0.21445920265E+04  0.00000000000E+00 0.  1.
         -6    2    1    2    0  503  0.90786455345E+02 -0.51492266768E+02 -0.83303990955E+03  0.85716424067E+03  0.17286240360E+03 0.  0.
        -24    2    3    3    0    0  0.27474173778E+02  0.28750813338E+02 -0.25275866548E+03  0.26793100237E+03  0.79489870827E+02 0.  0.
          6    2    1    2  501    0 -0.90786455345E+02  0.51492266768E+02 -0.12920436355E+04  0.13069362674E+04  0.16676935220E+03 0.  0.
         24    2    5    5    0    0 -0.94042956622E+01  0.24624645755E+01 -0.89643083661E+03  0.90004739546E+03  0.80016027941E+02 0.  0.
          5    1    5    5  501    0 -0.81382159683E+02  0.49029802192E+02 -0.39561279890E+03  0.40688887190E+03  0.47000000000E+01 0. -1.
        -13    1    6    6    0    0 -0.12394208661E+01  0.40591499798E+02 -0.52776754835E+03  0.52932767839E+03  0.00000000000E+00 0.  1.
         14    1    6    6    0    0 -0.81648747961E+01 -0.38129035222E+02 -0.36866328826E+03  0.37071971706E+03  0.00000000000E+00 0. -1.
         -5    1    3    3    0  503  0.63312281567E+02 -0.80243080106E+02 -0.58028124407E+03  0.58923323830E+03  0.47000000000E+01 0.  1.
         13    1    4    4    0    0 -0.24763124830E+01  0.40327086455E+02 -0.21313275479E+03  0.21692850710E+03  0.00000000000E+00 0. -1.
        -14    1    4    4    0    0  0.29950486261E+02 -0.11576273117E+02 -0.39625910690E+02  0.51002495278E+02  0.00000000000E+00 0.  1.
</event>
<event>
12    1  0.8461994E-002  0.2537029E+03  0.7818608E-02  0.1111985E+00
         21   -1    0    0  501  502  0.00000000000E+00  0.00000000000E+00  0.33615885545E+03  0.33615885545E+03  0.00000000000E+00 0. -1.
         21   -1    0    0  502  503 -0.00000000000E+00 -0.00000000000E+00 -0.18744768953E+03  0.18744768953E+03  0.00000000000E+00 0. -1.
         -6    2    1    2    0  503  0.13439545012E+03 -0.12749473215E+03  0.89837255514E+02  0.26316211476E+03  0.16391010472E+03 0.  0.
        -24    2    3    3    0    0  0.84320056168E+02 -0.30150415762E+02 -0.30691959296E+01  0.11950572009E+03  0.79077668953E+02 0.  0.
          6    2    1    2  501    0 -0.13439545012E+03  0.12749473215E+03  0.58873910402E+02  0.26044443022E+03  0.17334393606E+03 0.  0.
         24    2    5    5    0    0 -0.10883313100E+03  0.52002921837E+02  0.91921941518E+02  0.17403431540E+03  0.85377662890E+02 0.  0.
          5    1    5    5  501    0 -0.25562319116E+02  0.75491810309E+02 -0.33048031115E+02  0.86410114819E+02  0.47000000000E+01 0. -1.
        -13    1    6    6    0    0 -0.30838468718E+01  0.32245712124E+02  0.47837415008E+02  0.57772955062E+02  0.00000000000E+00 0.  1.
         14    1    6    6    0    0 -0.10574928413E+03  0.19757209713E+02  0.44084526510E+02  0.11626136034E+03  0.00000000000E+00 0. -1.
         -5    1    3    3    0  503  0.50075393951E+02 -0.97344316384E+02  0.92906451443E+02  0.14365639468E+03  0.47000000000E+01 0.  1.
         13    1    4    4    0    0  0.75572637619E+02 -0.20146149392E+02  0.30076277966E+02  0.83795425819E+02  0.00000000000E+00 0. -1.
        -14    1    4    4    0    0  0.87474185495E+01 -0.10004266370E+02 -0.33145473896E+02  0.35710294267E+02  0.00000000000E+00 0.  1.
</event>
<event>
12    1  0.8461994E-002  0.2402652E+03  0.7818608E-02  0.1119659E+00
         21   -1    0    0  503  502  0.00000000000E+00  0.00000000000E+00  0.28134543301E+03  0.28134543301E+03  0.00000000000E+00 0. -1.
         21   -1    0    0  501  503 -0.00000000000E+00 -0.00000000000E+00 -0.28813947045E+03  0.28813947045E+03  0.00000000000E+00 0.  1.
          6    2    1    2  501    0 -0.16540596096E+03  0.28012310907E+02 -0.15637913920E+03  0.28646006897E+03  0.17164240284E+03 0.  0.
         24    2    3    3    0    0 -0.17825232935E+03 -0.13774092617E+02 -0.12137743425E+03  0.23026094042E+03  0.79523585109E+02 0.  0.
         -6    2    1    2    0  502  0.16540596096E+03 -0.28012310907E+02  0.14958510176E+03  0.28302483449E+03  0.17199864182E+03 0.  0.
        -24    2    5    5    0    0  0.13678472228E+03 -0.14774414526E+02  0.17909694367E+03  0.23957997269E+03  0.79965645793E+02 0.  0.
          5    1    3    3  501    0  0.12846368397E+02  0.41786403523E+02 -0.35001704952E+02  0.56199128552E+02  0.47000000000E+01 0. -1.
        -11    1    4    4    0    0 -0.98127681154E+02 -0.37577235666E+02 -0.97471217190E+02  0.14332385925E+03  0.00000000000E+00 0.  1.
         12    1    4    4    0    0 -0.80124648199E+02  0.23803143049E+02 -0.23906217062E+02  0.86937081169E+02  0.00000000000E+00 0. -1.
         -5    1    5    5    0  502  0.28621238676E+02 -0.13237896380E+02 -0.29511841914E+02  0.43444861802E+02  0.47000000000E+01 0.  1.
         11    1    6    6    0    0  0.10844681094E+03 -0.33326937568E+02  0.91793709721E+02  0.14593656401E+03  0.00000000000E+00 0. -1.
        -12    1    6    6    0    0  0.28337911336E+02  0.18552523042E+02  0.87303233950E+02  0.93643408675E+02  0.00000000000E+00 0.  1.
</event>
<event>
12    1  0.8461994E-002  0.2236829E+03  0.7818608E-02  0.1131432E+00
         21   -1    0    0  501  502  0.00000000000E+00  0.00000000000E+00  0.48201586830E+03  0.48201586830E+03  0.00000000000E+00 0.  1.
         21   -1    0    0  502  503 -0.00000000000E+00 -0.00000000000E+00 -0.21985433619E+03  0.21985433619E+03  0.00000000000E+00 0. -1.
         -6    2    1    2    0  503  0.11387274343E+03  0.81685796085E+02 -0.12442487298E+03  0.25596009747E+03  0.17434004560E+03 0.  0.
        -24    2    3    3    0    0  0.12952278724E+02  0.54344827254E+02 -0.11797567275E+03  0.15109756385E+03  0.76099229087E+02 0.  0.
          6    2    1    2  501    0 -0.11387274343E+03 -0.81685796085E+02  0.38658640509E+03  0.44591010702E+03  0.17247377761E+03 0.  0.
         24    2    5    5    0    0 -0.85765946498E+02 -0.12455694998E+03  0.29642140635E+03  0.34208455685E+03  0.79284062247E+02 0.  0.
          5    1    5    5  501    0 -0.28106796935E+02  0.42871153894E+02  0.90164998745E+02  0.10382555017E+03  0.47000000000E+01 0. -1.
        -11    1    6    6    0    0 -0.20167491149E+02 -0.13235106075E+02  0.12561637318E+03  0.12791156689E+03  0.00000000000E+00 0.  1.
         12    1    6    6    0    0 -0.65598455349E+02 -0.11132184390E+03  0.17080503316E+03  0.21417298996E+03  0.00000000000E+00 0. -1.
         -5    1    3    3    0  503  0.10092046471E+03  0.27340968831E+02 -0.64492002366E+01  0.10486253362E+03  0.47000000000E+01 0.  1.
         13    1    4    4    0    0  0.23751236006E+02  0.56709675335E+02 -0.12407422715E+03  0.13847209947E+03  0.00000000000E+00 0. -1.
        -14    1    4    4    0    0 -0.10798957282E+02 -0.23648480810E+01  0.60985544086E+01  0.12625464376E+02  0.00000000000E+00 0.  1.
</event>
<event>
12    1  0.8461994E-002  0.2737412E+03  0.7818608E-02  0.1099446E+00
         21   -1    0    0  501  502  0.00000000000E+00  0.00000000000E+00  0.26642639679E+04  0.26642639679E+04  0.00000000000E+00 0. -1.
         21   -1    0    0  502  503 -0.00000000000E+00 -0.00000000000E+00 -0.43284757437E+02  0.43284757437E+02  0.00000000000E+00 0. -1.
         -6    2    1    2    0  503 -0.12733197464E+03  0.16990431566E+03  0.50698774737E+03  0.57616909119E+03  0.17278118363E+03 0.  0.
        -24    2    3    3    0    0 -0.14070777988E+03  0.18934263734E+03  0.44854908666E+03  0.51297156291E+03  0.79336168131E+02 0.  0.
          6    2    1    2  501    0  0.12733197464E+03 -0.16990431566E+03  0.21139914631E+04  0.21313796341E+04  0.16952383483E+03 0.  0.
         24    2    5    5    0    0  0.29828749886E+01 -0.71048386432E+02  0.63212298597E+03  0.64101341512E+03  0.79132535736E+02 0.  0.
          5    1    5    5  501    0  0.12434909965E+03 -0.98855929225E+02  0.14818684771E+04  0.14903662190E+04  0.47000000000E+01 0. -1.
        -13    1    6    6    0    0 -0.37932808699E+01 -0.78939183091E+02  0.35479286317E+03  0.36348832081E+03  0.00000000000E+00 0.  1.
         14    1    6    6    0    0  0.67761558585E+01  0.78907966585E+01  0.27733012280E+03  0.27752509431E+03  0.00000000000E+00 0. -1.
         -5    1    3    3    0  503  0.13375805240E+02 -0.19438321685E+02  0.58438660709E+02  0.63197528284E+02  0.47000000000E+01 0.  1.
         13    1    4    4    0    0 -0.12396541775E+03  0.12197429568E+03  0.26742339392E+03  0.31899909909E+03  0.00000000000E+00 0. -1.
        -14    1    4    4    0    0 -0.16742362122E+02  0.67368341663E+02  0.18112569274E+03  0.19397246381E+03  0.00000000000E+00 0.  1.
</event>
<event>
12    1  0.8461994E-002  0.2631218E+03  0.7818608E-02  0.1105332E+00
         21   -1    0    0  503  502  0.00000000000E+00  0.00000000000E+00  0.10611445632E+03  0.10611445632E+03  0.00000000000E+00 0. -1.
         21   -1    0    0  501  503 -0.00000000000E+00 -0.00000000000E+00 -0.67275941727E+03  0.67275941727E+03  0.00000000000E+00 0.  1.
          6    2    1    2  501    0  0.19509616481E+03  0.38461491537E+02 -0.21409210942E+03  0.33895730861E+03  0.17179879478E+03 0.  0.
         24    2    3    3    0    0  0.36599088967E+02  0.24752386425E+02 -0.13093438184E+03  0.15938403590E+03  0.79418414777E+02 0.  0.
         -6    2    1    2    0  502 -0.19509616481E+03 -0.38461491537E+02 -0.35255285152E+03  0.43991656498E+03  0.17231155265E+03 0.  0.
        -24    2    5    5    0    0 -0.77800019733E+02  0.18862668274E+01 -0.26646812879E+03  0.28885698488E+03  0.79854198239E+02 0.  0.
          5    1    3    3  501    0  0.15849707584E+03  0.13709105112E+02 -0.83157727583E+02  0.17957327270E+03  0.47000000000E+01 0. -1.
        -11    1    4    4    0    0  0.57979954824E+02  0.33520040660E+02 -0.10603055458E+03  0.12541031373E+03  0.00000000000E+00 0.  1.
         12    1    4    4    0    0 -0.21380865857E+02 -0.87676542350E+01 -0.24903827264E+02  0.33973722168E+02  0.00000000000E+00 0. -1.
         -5    1    5    5    0  502 -0.11729614507E+03 -0.40347758364E+02 -0.86084722727E+02  0.15105958010E+03  0.47000000000E+01 0.  1.
         13    1    6    6    0    0  0.93268969671E+00  0.95966210055E+01  0.12248706114E+01  0.97193288250E+01  0.00000000000E+00 0. -1.
        -14    1    6    6    0    0 -0.78732709430E+02 -0.77103541781E+01 -0.26769299941E+03  0.27913765605E+03  0.00000000000E+00 0.  1.
</event>
<event>
12    1  0.8461994E-002  0.2686994E+03  0.7818608E-02  0.1102095E+00
         21   -1    0    0  501  502  0.00000000000E+00  0.00000000000E+00  0.19377319011E+03  0.19377319011E+03  0.00000000000E+00 0.  1.
         21   -1    0    0  502  503 -0.00000000000E+00 -0.00000000000E+00 -0.41558794956E+03  0.41558794956E+03  0.00000000000E+00 0.  1.
         -6    2    1    2    0  503 -0.18778447698E+03  0.86249049440E+02 -0.20956182760E+03  0.34038251915E+03  0.17100348368E+03 0.  0.
        -24    2    3    3    0    0 -0.18194528709E+03  0.41136294028E+02 -0.10970775970E+03  0.23055455497E+03  0.79519356748E+02 0.  0.
          6    2    1    2  501    0  0.18778447698E+03 -0.86249049440E+02 -0.12252931860E+02  0.26897862052E+03  0.17174823328E+03 0.  0.
         24    2    5    5    0    0  0.13341396607E+03 -0.11325121857E+03  0.30384359427E+02  0.19464627089E+03  0.79616811175E+02 0.  0.
          5    1    5    5  501    0  0.54370510907E+02  0.27002169127E+02 -0.42637291287E+02  0.74332349634E+02  0.47000000000E+01 0. -1.
        -11    1    6    6    0    0  0.65270872989E+02 -0.80873223179E+02 -0.17356060434E+02  0.10536601882E+03  0.00000000000E+00 0.  1.
         12    1    6    6    0    0  0.68143093086E+02 -0.32377995387E+02  0.47740419861E+02  0.89280252066E+02  0.00000000000E+00 0. -1.
         -5    1    3    3    0  503 -0.58391898866E+01  0.45112755412E+02 -0.99854067894E+02  0.10982796417E+03  0.47000000000E+01 0.  1.
         11    1    4    4    0    0 -0.29175509873E+02  0.12741906685E+02  0.11116184673E+02  0.33721449020E+02  0.00000000000E+00 0. -1.
        -12    1    4    4    0    0 -0.15276977722E+03  0.28394387343E+02 -0.12082394437E+03  0.19683310595E+03  0.00000000000E+00 0.  1.
</event>
<event>
12    1  0.8461994E-002  0.2997489E+03  0.7818608E-02  0.1085388E+00
         21   -1    0    0  503  502  0.00000000000E+00  0.00000000000E+00  0.80039733539E+02  0.80039733539E+02  0.00000000000E+00 0. -1.
         21   -1    0    0  501  503 -0.00000000000E+00 -0.00000000000E+00 -0.11920651720E+04  0.11920651720E+04  0.00000000000E+00 0.  1.
          6    2    1    2  501    0  0.24588236150E+03 -0.18382535646E+00 -0.71046665513E+03  0.77111107467E+03  0.17143877022E+03 0.  0.
         24    2    3    3    0    0  0.24536161877E+03  0.28566391421E+02 -0.68530118100E+03  0.73261124056E+03  0.77866285638E+02 0.  0.
         -6    2    1    2    0  502 -0.24588236150E+03  0.18382535646E+00 -0.40155878338E+03  0.50099383092E+03  0.17113501285E+03 0.  0.
        -24    2    5    5    0    0 -0.14536640393E+03  0.64098106906E+02 -0.21385960870E+03  0.27863924183E+03  0.81632935490E+02 0.  0.
          5    1    3    3  501    0  0.52074272717E+00 -0.28750216778E+02 -0.25165474135E+02  0.38499834106E+02  0.47000000000E+01 0. -1.
        -11    1    4    4    0    0  0.58877521893E+02 -0.75260444812E+01 -0.26211749344E+03  0.26875413355E+03  0.00000000000E+00 0.  1.
         12    1    4    4    0    0  0.18648409688E+03  0.36092435902E+02 -0.42318368755E+03  0.46385710701E+03  0.00000000000E+00 0. -1.
         -5    1    5    5    0  502 -0.10051595757E+03 -0.63914281549E+02 -0.18769917468E+03  0.22235458908E+03  0.47000000000E+01 0.  1.
         13    1    6    6    0    0 -0.12303899883E+03  0.42760898939E+02 -0.21054167546E+03  0.24757804187E+03  0.00000000000E+00 0. -1.
        -14    1    6    6    0    0 -0.22327405097E+02  0.21337207967E+02 -0.33179332408E+01  0.31061199963E+02  0.00000000000E+00 0.  1.
</event>
<event>
12    1  0.8461994E-002  0.2522623E+03  0.7818608E-02  0.1112012E+00
         21   -1    0    0  503  502  0.00000000000E+00  0.00000000000E+00  0.27114168886E+03  0.27114168886E+03  0.00000000000E+00 0. -1.
         21   -1    0    0  501  503 -0.00000000000E+00 -0.00000000000E+00 -0.68001901978E+03  0.68001901978E+03  0.00000000000E+00 0. -1.
          6    2    1    2  501    0 -0.12872948138E+03  0.13173535764E+03 -0.58951129492E+03  0.64089481960E+03  0.17116401234E+03 0.  0.
         24    2    3    3    0    0 -0.10480518579E+03  0.36240306252E+02 -0.25888289247E+03  0.29588915694E+03  0.90733425027E+02 0.  0.
         -6    2    1    2    0  502  0.12872948138E+03 -0.13173535764E+03  0.18063396401E+03  0.31026588904E+03  0.17236823697E+03 0.  0.
        -24    2    5    5    0    0  0.12861986160E+03 -0.41833947288E+02  0.14344506958E+03  0.21286270907E+03  0.80255199097E+02 0.  0.
          5    1    3    3  501    0 -0.23924295599E+02  0.95495051385E+02 -0.33062840246E+03  0.34500566266E+03  0.47000000000E+01 0. -1.
        -11    1    4    4    0    0 -0.93361473769E+02  0.10448686278E+02 -0.11136653949E+03  0.14569847613E+03  0.00000000000E+00 0.  1.
         12    1    4    4    0    0 -0.11443712017E+02  0.25791619973E+02 -0.14751635298E+03  0.15019068081E+03  0.00000000000E+00 0. -1.
         -5    1    5    5    0  502  0.10961978746E+00 -0.89901410348E+02  0.37188894434E+02  0.97403179970E+02  0.47000000000E+01 0.  1.
         11    1    6    6    0    0  0.63343850492E+02 -0.53268688889E+02  0.45048087978E+02  0.94230180099E+02  0.00000000000E+00 0. -1.
        -12    1    6    6    0    0  0.65276011106E+02  0.11434741601E+02  0.98396981597E+02  0.11863252897E+03  0.00000000000E+00 0.  1.
</event>
<event>
12    1  0.8461994E-002  0.2588435E+03  0.7818608E-02  0.1107881E+00
         21   -1    0    0  503  502  0.00000000000E+00  0.00000000000E+00  0.59512118759E+02  0.59512118759E+02  0.00000000000E+00 0. -1.
         21   -1    0    0  501  503 -0.00000000000E+00 -0.00000000000E+00 -0.11789160678E+04  0.11789160678E+04  0.00000000000E+00 0.  1.
          6    2    1    2  501    0  0.15420105005E+03 -0.11604921097E+03 -0.69282152048E+03  0.73959557456E+03  0.17249513461E+03 0.  0.
         24    2    3    3    0    0  0.14599363707E+03 -0.70187150734E+02 -0.65513581900E+03  0.67948740296E+03  0.79118969002E+02 0.  0.
         -6    2    1    2    0  502 -0.15420105005E+03  0.11604921097E+03 -0.42658242855E+03  0.49883261198E+03  0.17209306560E+03 0.  0.
        -24    2    5    5    0    0 -0.14147859226E+03  0.22261187086E+02 -0.28247037654E+03  0.32635528626E+03  0.78781385658E+02 0.  0.
          5    1    3    3  501    0  0.82074129818E+01 -0.45862060236E+02 -0.37685701485E+02  0.60108171602E+02  0.47000000000E+01 0. -1.
        -11    1    4    4    0    0  0.28558869850E+02 -0.31578597533E+02 -0.30940453857E+03  0.31232032492E+03  0.00000000000E+00 0.  1.
         12    1    4    4    0    0  0.11743476722E+03 -0.38608553201E+02 -0.34573128043E+03  0.36716707804E+03  0.00000000000E+00 0. -1.
         -5    1    5    5    0  502 -0.12722457793E+02  0.93788023884E+02 -0.14411205201E+03  0.17247732573E+03  0.47000000000E+01 0.  1.
         11    1    6    6    0    0 -0.44825020480E+01  0.10567597726E+02  0.77174939094E+00  0.11504892152E+02  0.00000000000E+00 0. -1.
        -12    1    6    6    0    0 -0.13699609021E+03  0.11693589360E+02 -0.28324212593E+03  0.31485039411E+03  0.00000000000E+00 0.  1.
</event>
<event>
12    1  0.8461994E-002  0.2121088E+03  0.7818608E-02  0.1141907E+00
         21   -1    0    0  503  502  0.00000000000E+00  0.00000000000E+00  0.28107933780E+03  0.28107933780E+03  0.00000000000E+00 0.  1.
         21   -1    0    0  501  503 -0.00000000000E+00 -0.00000000000E+00 -0.15614005240E+03  0.15614005240E+03  0.00000000000E+00 0. -1.
          6    2    1    2  501    0 -0.92878873976E+02  0.84769459881E+02  0.93803652776E+02  0.22283760094E+03  0.15825651506E+03 0.  0.
         24    2    3    3    0    0 -0.11972420805E+03  0.58717916966E+02  0.98827418825E+02  0.18480231370E+03  0.81261040308E+02 0.  0.
         -6    2    1    2    0  502  0.92878873976E+02 -0.84769459881E+02  0.31135632618E+02  0.21438178926E+03  0.17081503853E+03 0.  0.
        -24    2    5    5    0    0  0.12441423113E+03 -0.83713073499E+02  0.21462852787E+01  0.17127648840E+03  0.82729978588E+02 0.  0.
          5    1    3    3  501    0  0.26845334075E+02  0.26051542915E+02 -0.50237660494E+01  0.38035287237E+02  0.47000000000E+01 0. -1.
        -13    1    4    4    0    0 -0.52911145549E+02  0.31981758237E+02  0.94216781532E+02  0.11269083417E+03  0.00000000000E+00 0.  1.
         14    1    4    4    0    0 -0.66813062501E+02  0.26736158729E+02  0.46106372936E+01  0.72111479535E+02  0.00000000000E+00 0. -1.
         -5    1    5    5    0  502 -0.31535357153E+02 -0.10563863825E+01  0.28989347340E+02  0.43105300859E+02  0.47000000000E+01 0.  1.
         11    1    6    6    0    0  0.61652359220E+02 -0.54811672594E+02 -0.38580690041E+02  0.91070316207E+02  0.00000000000E+00 0. -1.
        -12    1    6    6    0    0  0.62761871909E+02 -0.28901400904E+02  0.40726975319E+02  0.80206172196E+02  0.00000000000E+00 0.  1.
</event>
<event>
12    1  0.8461994E-002  0.2005794E+03  0.7818608E-02  0.1149277E+00
         21   -1    0    0  503  502  0.00000000000E+00  0.00000000000E+00  0.96401383309E+02  0.96401383309E+02  0.00000000000E+00 0. -1.
         21   -1    0    0  501  503 -0.00000000000E+00 -0.00000000000E+00 -0.42903329689E+03  0.42903329689E+03  0.00000000000E+00 0.  1.
          6    2    1    2  501    0 -0.10045985914E+03  0.24126051092E+02 -0.12241956025E+03  0.23488116928E+03  0.17177999101E+03 0.  0.
         24    2    3    3    0    0 -0.20990890373E+02  0.50773146707E+02 -0.13393448332E+02  0.97279687522E+02  0.79154426541E+02 0.  0.
         -6    2    1    2    0  502  0.10045985914E+03 -0.24126051092E+02 -0.21021235333E+03  0.29055351092E+03  0.17192399360E+03 0.  0.
        -24    2    5    5    0    0  0.13970814906E+02  0.36164726704E+02 -0.11517277437E+03  0.14853258207E+03  0.85405438094E+02 0.  0.
          5    1    3    3  501    0 -0.79468968768E+02 -0.26647095615E+02 -0.10902611192E+03  0.13760148176E+03  0.47000000000E+01 0. -1.
        -13    1    4    4    0    0  0.51416361930E+01  0.61388995765E+02 -0.25386120126E+02  0.66629575406E+02  0.00000000000E+00 0.  1.
         14    1    4    4    0    0 -0.26132526566E+02 -0.10615849058E+02  0.11992671794E+02  0.30650112116E+02  0.00000000000E+00 0. -1.
         -5    1    5    5    0  502  0.86489044235E+02 -0.60290777796E+02 -0.95039578965E+02  0.14202092884E+03  0.47000000000E+01 0.  1.
         13    1    6    6    0    0 -0.35548964706E+02  0.69699357376E+01 -0.47572949999E+02  0.59795438517E+02  0.00000000000E+00 0. -1.
        -14    1    6    6    0    0  0.49519779612E+02  0.29194790966E+02 -0.67599824366E+02  0.88737143557E+02  0.00000000000E+00 0.  1.
</event>
<event>
12    1  0.8461994E-002  0.1835099E+03  0.7818608E-02  0.1164877E+00
         21   -1    0    0  503  502  0.00000000000E+00  0.00000000000E+00  0.30563385380E+03  0.30563385380E+03  0.00000000000E+00 0.  1.
         21   -1    0    0  501  503 -0.00000000000E+00 -0.00000000000E+00 -0.14244690761E+03  0.14244690761E+03  0.00000000000E+00 0. -1.
          6    2    1    2  501    0 -0.33072156699E+02  0.52692340286E+02 -0.26492814668E+02  0.18541239252E+03  0.17264308790E+03 0.  0.
         24    2    3    3    0    0  0.42391635867E+02  0.46243619412E+02 -0.11050715019E+02  0.10797261960E+03  0.87180531956E+02 0.  0.
         -6    2    1    2    0  502  0.33072156699E+02 -0.52692340286E+02  0.18967976085E+03  0.26266836888E+03  0.17072202570E+03 0.  0.
        -24    2    5    5    0    0  0.37907285166E+02 -0.57628831147E+02  0.40456482700E+02  0.11321127085E+03  0.80137509363E+02 0.  0.
          5    1    3    3  501    0 -0.75463792566E+02  0.64487208737E+01 -0.15442099649E+02  0.77439772926E+02  0.47000000000E+01 0. -1.
        -13    1    4    4    0    0 -0.17915144635E+02 -0.11473838916E+02  0.73213457333E+01  0.22498966423E+02  0.00000000000E+00 0.  1.
         14    1    4    4    0    0  0.60306780502E+02  0.57717458328E+02 -0.18372060752E+02  0.85473653173E+02  0.00000000000E+00 0. -1.
         -5    1    5    5    0  502 -0.48351284673E+01  0.49364908610E+01  0.14922327816E+03  0.14945709803E+03  0.47000000000E+01 0.  1.
         11    1    6    6    0    0  0.43912900878E+02 -0.16994688212E+00  0.33062428014E+02  0.54968135239E+02  0.00000000000E+00 0. -1.
        -12    1    6    6    0    0 -0.60056157121E+01 -0.57458884265E+02  0.73940546860E+01  0.58243135611E+02  0.00000000000E+00 0.  1.
</event>
<event>
12    1  0.8461994E-002  0.2159142E+03  0.7818608E-02  0.1137282E+00
         21   -1    0    0  501  502  0.00000000000E+00  0.00000000000E+00  0.28070888896E+03  0.28070888896E+03  0.00000000000E+00 0.  1.
         21   -1    0    0  502  503 -0.00000000000E+00 -0.00000000000E+00 -0.24494274736E+03  0.24494274736E+03  0.00000000000E+00 0.  1.
         -6    2    1    2    0  503  0.78282674329E+02  0.10124860622E+03 -0.13239517141E+03  0.25327339360E+03  0.17389500607E+03 0.  0.
        -24    2    3    3    0    0  0.71347781483E+01  0.23287188314E+02 -0.12080263788E+03  0.14698848101E+03  0.80119523411E+02 0.  0.
          6    2    1    2  501    0 -0.78282674329E+02 -0.10124860622E+03  0.16816131300E+03  0.27237824272E+03  0.17184941825E+03 0.  0.
         24    2    5    5    0    0 -0.54581880290E+02 -0.42981656076E-01  0.12919434936E+03  0.16127099571E+03  0.79611372608E+02 0.  0.
          5    1    5    5  501    0 -0.23700794039E+02 -0.10120562456E+03  0.38966963644E+02  0.11110724700E+03  0.47000000000E+01 0. -1.
        -11    1    6    6    0    0 -0.75178694849E+02  0.13025083166E+01  0.92873115775E+02  0.11949455352E+03  0.00000000000E+00 0.  1.
         12    1    6    6    0    0  0.20596814559E+02 -0.13454899726E+01  0.36321233585E+02  0.41776442194E+02  0.00000000000E+00 0. -1.
         -5    1    3    3    0  503  0.71147896181E+02  0.77961417902E+02 -0.11592533531E+02  0.10628491260E+03  0.47000000000E+01 0.  1.
         11    1    4    4    0    0  0.27752973680E+02 -0.18300800673E+02 -0.73733197978E+02  0.80880970182E+02  0.00000000000E+00 0. -1.
        -12    1    4    4    0    0 -0.20618195532E+02  0.41587988988E+02 -0.47069439900E+02  0.66107510825E+02  0.00000000000E+00 0.  1.
</event>
<event>
12    1  0.8461994E-002  0.1816653E+03  0.7818608E-02  0.1168389E+00
         21   -1    0    0  501  502  0.00000000000E+00  0.00000000000E+00  0.11449971893E+04  0.11449971893E+04  0.00000000000E+00 0. -1.
         21   -1    0    0  502  503 -0.00000000000E+00 -0.00000000000E+00 -0.32744125178E+02  0.32744125178E+02  0.00000000000E+00 0. -1.
         -6    2    1    2    0  503  0.31004347854E+02 -0.51057589994E+02  0.33059646452E+03  0.37722184133E+03  0.17156383109E+03 0.  0.
        -24    2    3    3    0    0  0.53750247849E+02 -0.93364177709E+02  0.23708184458E+03  0.27198735328E+03  0.78507072896E+02 0.  0.
          6    2    1    2  501    0 -0.31004347854E+02  0.51057589994E+02  0.78165659960E+03  0.80051947315E+03  0.16209947598E+03 0.  0.
         24    2    5    5    0    0 -0.85732044622E+01  0.29326514736E+02  0.19773399039E+03  0.21574336268E+03  0.80702684496E+02 0.  0.
          5    1    5    5  501    0 -0.22431143391E+02  0.21731075258E+02  0.58392260922E+03  0.58477611047E+03  0.47000000000E+01 0. -1.
        -11    1    6    6    0    0  0.28529545124E+02  0.80122419260E+01  0.14418388866E+03  0.14719757034E+03  0.00000000000E+00 0.  1.
         12    1    6    6    0    0 -0.37102749587E+02  0.21314272810E+02  0.53550101730E+02  0.68545792341E+02  0.00000000000E+00 0. -1.
         -5    1    3    3    0  503 -0.22745899996E+02  0.42306587716E+02  0.93514619945E+02  0.10523448805E+03  0.47000000000E+01 0.  1.
         11    1    4    4    0    0  0.25149145936E+02  0.56256259393E+01  0.80670008172E+02  0.84686347348E+02  0.00000000000E+00 0. -1.
        -12    1    4    4    0    0  0.28601101913E+02 -0.98989803649E+02  0.15641183640E+03  0.18730100593E+03  0.00000000000E+00 0.  1.
</event>
<event>
12    1  0.8461994E-002  0.1795457E+03  0.7818608E-02  0.1168539E+00
         21   -1    0    0  501  502  0.00000000000E+00  0.00000000000E+00  0.17799769504E+04  0.17799769504E+04  0.00000000000E+00 0.  1.
         21   -1    0    0  502  503 -0.00000000000E+00 -0.00000000000E+00 -0.19771863172E+02  0.19771863172E+02  0.00000000000E+00 0.  1.
         -6    2    1    2    0  503  0.45765861638E+02 -0.26788379979E+02  0.61257358234E+03  0.63834398875E+03  0.17153577702E+03 0.  0.
        -24    2    3    3    0    0  0.25115660330E+02  0.25225666077E+02  0.53725043648E+03  0.54438890318E+03  0.80337511714E+02 0.  0.
          6    2    1    2  501    0 -0.45765861638E+02  0.26788379979E+02  0.11476315049E+04  0.11614048248E+04  0.17026733309E+03 0.  0.
         24    2    5    5    0    0 -0.54138899611E+02  0.31625375613E+02  0.36890573283E+03  0.38260483615E+03  0.79773655404E+02 0.  0.
          5    1    5    5  501    0  0.83730379727E+01 -0.48369956337E+01  0.77872577204E+03  0.77879998866E+03  0.47000000000E+01 0. -1.
        -11    1    6    6    0    0 -0.31315859159E+02  0.85953790318E+00  0.36936409039E+02  0.48432635206E+02  0.00000000000E+00 0.  1.
         12    1    6    6    0    0 -0.22823040452E+02  0.30765837710E+02  0.33196932379E+03  0.33417220094E+03  0.00000000000E+00 0. -1.
         -5    1    3    3    0  503  0.20650201308E+02 -0.52014046057E+02  0.75323145859E+02  0.93955085564E+02  0.47000000000E+01 0.  1.
         13    1    4    4    0    0 -0.11307139244E+02  0.39555263151E+02  0.16356891970E+03  0.16866316056E+03  0.00000000000E+00 0. -1.
        -14    1    4    4    0    0  0.36422799574E+02 -0.14329597074E+02  0.37368151678E+03  0.37572574262E+03  0.00000000000E+00 0.  1.
</event>
<event>
12    1  0.8461994E-002  0.2137964E+03  0.7818608E-02  0.1139045E+00
         21   -1    0    0  501  502  0.00000000000E+00  0.00000000000E+00  0.56055846881E+02  0.56055846881E+02  0.00000000000E+00 0. -1.
         21   -1    0    0  502  503 -0.00000000000E+00 -0.00000000000E+00 -0.10179032164E+04  0.10179032164E+04  0.00000000000E+00 0.  1.
         -6    2    1    2    0  503 -0.84902965075E+02 -0.92144954641E+02 -0.72764560944E+03  0.75840426403E+03  0.17323304713E+03 0.  0.
        -24    2    3    3    0    0 -0.10105010855E+03 -0.10071897471E+03 -0.42632962857E+03  0.45649756587E+03  0.79231553995E+02 0.  0.
          6    2    1    2  501    0  0.84902965075E+02  0.92144954641E+02 -0.23420176010E+03  0.31555479927E+03  0.17036772219E+03 0.  0.
         24    2    5    5    0    0  0.16206485521E+02  0.95427699235E+02 -0.88984464851E+02  0.15480612726E+03  0.81716620692E+02 0.  0.
          5    1    5    5  501    0  0.68696479554E+02 -0.32827445934E+01 -0.14521729525E+03  0.16074867202E+03  0.47000000000E+01 0. -1.
        -13    1    6    6    0    0  0.26139299007E+02  0.20681409535E+02 -0.69263933266E+02  0.76866612417E+02  0.00000000000E+00 0.  1.
         14    1    6    6    0    0 -0.99328134860E+01  0.74746289699E+02 -0.19720531585E+02  0.77939514841E+02  0.00000000000E+00 0. -1.
         -5    1    3    3    0  503  0.16147143474E+02  0.85740200709E+01 -0.30131598088E+03  0.30190669816E+03  0.47000000000E+01 0.  1.
         13    1    4    4    0    0 -0.31288869073E+02  0.78149850665E+01 -0.60103304646E+02  0.68209050344E+02  0.00000000000E+00 0. -1.
        -14    1    4    4    0    0 -0.69761239475E+02 -0.10853395978E+03 -0.36622632392E+03  0.38828851553E+03  0.00000000000E+00 0.  1.
</event>
<event>
12    1  0.8461994E-002  0.2300752E+03  0.7818608E-02  0.1126657E+00
         21   -1    0    0  501  502  0.00000000000E+00  0.00000000000E+00  0.22278337810E+03  0.22278337810E+03  0.00000000000E+00 0.  1.
         21   -1    0    0  502  503 -0.00000000000E+00 -0.00000000000E+00 -0.31769375925E+03  0.31769375925E+03  0.00000000000E+00 0. -1.
         -6    2    1    2    0  503 -0.14710801138E+03  0.38598599600E+02  0.88547060100E+02  0.24652626746E+03  0.17263834971E+03 0.  0.
        -24    2    3    3    0    0 -0.31866589724E+02 -0.35099505870E+02  0.34219445850E+02  0.99266036280E+02  0.80220450208E+02 0.  0.
          6    2    1    2  501    0  0.14710801138E+03 -0.38598599600E+02 -0.18345744125E+03  0.29395086989E+03  0.17210421917E+03 0.  0.
         24    2    5    5    0    0  0.42296908009E+02  0.12442567643E+02 -0.15890333231E+03  0.17472183647E+03  0.57737381339E+02 0.  0.
          5    1    5    5  501    0  0.10481110338E+03 -0.51041167243E+02 -0.24554108932E+02  0.11922903342E+03  0.47000000000E+01 0. -1.
        -13    1    6    6    0    0 -0.12852516780E+02 -0.56884883031E+01 -0.40128976097E+02  0.42519181664E+02  0.00000000000E+00 0.  1.
         14    1    6    6    0    0  0.55149424789E+02  0.18131055946E+02 -0.11877435622E+03  0.13220265481E+03  0.00000000000E+00 0. -1.
         -5    1    3    3    0  503 -0.11524142166E+03  0.73698105470E+02  0.54327614250E+02  0.14726023118E+03  0.47000000000E+01 0.  1.
         13    1    4    4    0    0  0.16271720337E+02 -0.56785222538E+01 -0.16162566985E+02  0.23627168033E+02  0.00000000000E+00 0. -1.
        -14    1    4    4    0    0 -0.48138310061E+02 -0.29420983616E+02  0.50382012835E+02  0.75638868247E+02  0.00000000000E+00 0.  1.
</event>
<event>
12    1  0.8461994E-002  0.1737174E+03  0.7818608E-02  0.1174259E+00
         21   -1    0    0  503  502  0.00000000000E+00  0.00000000000E+00  0.59577407731E+03  0.59577407731E+03  0.00000000000E+00 0. -1.
         21   -1    0    0  501  503 -0.00000000000E+00 -0.00000000000E+00 -0.61129298663E+02  0.61129298663E+02  0.00000000000E+00 0. -1.
          6    2    1    2  501    0  0.76830128610E+01 -0.13588746487E+01  0.13020992958E+03  0.21709985098E+03  0.17354205342E+03 0.  0.
         24    2    3    3    0    0 -0.74812311269E+01 -0.35708235775E+02  0.15357954064E+03  0.17262444624E+03  0.69867569112E+02 0.  0.
         -6    2    1    2    0  502 -0.76830128610E+01  0.13588746487E+01  0.40443484907E+03  0.43980352499E+03  0.17262305243E+03 0.  0.
        -24    2    5    5    0    0 -0.65034700487E+02 -0.13141784973E+02  0.31489031366E+03  0.33238006841E+03  0.83176808431E+02 0.  0.
          5    1    3    3  501    0  0.15164243988E+02  0.34349361126E+02 -0.23369611064E+02  0.44475404740E+02  0.47000000000E+01 0. -1.
        -13    1    4    4    0    0 -0.14259397796E+02 -0.20063555094E+01  0.13033169811E+03  0.13112477806E+03  0.00000000000E+00 0.  1.
         14    1    4    4    0    0  0.67781666695E+01 -0.33701880265E+02  0.23247842533E+02  0.41499668183E+02  0.00000000000E+00 0. -1.
         -5    1    5    5    0  502  0.57351687626E+02  0.14500659622E+02  0.89544535408E+02  0.10742345658E+03  0.47000000000E+01 0.  1.
         11    1    6    6    0    0 -0.50514931439E+02  0.68479020753E+01  0.29829013262E+03  0.30261469772E+03  0.00000000000E+00 0. -1.
        -12    1    6    6    0    0 -0.14519769049E+02 -0.19989687048E+02  0.16600181039E+02  0.29765370685E+02  0.00000000000E+00 0.  1.
</event>
<event>
12    1  0.8461994E-002  0.1813461E+03  0.7818608E-02  0.1167344E+00
         21   -1    0    0  503  502  0.00000000000E+00  0.00000000000E+00  0.10618601079E+03  0.10618601079E+03  0.00000000000E+00 0. -1.
         21   -1    0    0  501  503 -0.00000000000E+00 -0.00000000000E+00 -0.35066090224E+03  0.35066090224E+03  0.00000000000E+00 0. -1.
          6    2    1    2  501    0  0.27045017068E+02 -0.34599259017E+02 -0.20469446799E+03  0.27118891007E+03  0.17238056169E+03 0.  0.
         24    2    3    3    0    0  0.45138268434E+02 -0.52138004872E+02 -0.21794108751E+03  0.24233520528E+03  0.80449979893E+02 0.  0.
         -6    2    1    2    0  502 -0.27045017068E+02  0.34599259017E+02 -0.39780423470E+02  0.18565800295E+03  0.17594848762E+03 0.  0.
        -24    2    5    5    0    0  0.53728675908E+02  0.15215785437E+02 -0.84276940045E+01  0.96746855341E+02  0.78553403814E+02 0.  0.
          5    1    3    3  501    0 -0.18093251366E+02  0.17538745855E+02  0.13246619526E+02  0.28853704788E+02  0.47000000000E+01 0. -1.
        -13    1    4    4    0    0  0.63718080200E+02 -0.16587625153E+02 -0.13400292643E+03  0.14930481353E+03  0.00000000000E+00 0.  1.
         14    1    4    4    0    0 -0.18579811766E+02 -0.35550379718E+02 -0.83938161084E+02  0.93030391752E+02  0.00000000000E+00 0. -1.
         -5    1    5    5    0  502 -0.80773692976E+02  0.19383473580E+02 -0.31352729465E+02  0.88911147613E+02  0.47000000000E+01 0.  1.
         13    1    6    6    0    0  0.61056231031E+02  0.38357342420E+02 -0.63224083381E+01  0.72381778870E+02  0.00000000000E+00 0. -1.
        -14    1    6    6    0    0 -0.73275551229E+01 -0.23141556983E+02 -0.21052856664E+01  0.24365076471E+02  0.00000000000E+00 0.  1.
</event>
<event>
12    1  0.8461994E-002  0.1996419E+03  0.7818608E-02  0.1151841E+00
         21   -1    0    0  503  502  0.00000000000E+00  0.00000000000E+00  0.26689894390E+02  0.26689894390E+02  0.00000000000E+00 0.  1.
         21   -1    0    0  501  503 -0.00000000000E+00 -0.00000000000E+00 -0.14507806291E+04  0.14507806291E+04  0.00000000000E+00 0. -1.
          6    2    1    2  501    0  0.52513039596E+02 -0.66847921619E+02 -0.78171123145E+03  0.80478315102E+03  0.17139780287E+03 0.  0.
         24    2    3    3    0    0  0.26404197750E+02 -0.45800117859E+02 -0.19740445580E+03  0.21949588844E+03  0.80094278299E+02 0.  0.
         -6    2    1    2    0  502 -0.52513039596E+02  0.66847921619E+02 -0.64237950325E+03  0.67268737247E+03  0.18063945008E+03 0.  0.
        -24    2    5    5    0    0 -0.42028213651E+01  0.77534232795E+02 -0.58617885246E+03  0.59766285926E+03  0.86982902397E+02 0.  0.
          5    1    3    3  501    0  0.26108841846E+02 -0.21047803760E+02 -0.58430677565E+03  0.58528726258E+03  0.47000000000E+01 0. -1.
        -13    1    4    4    0    0  0.51924759432E+02 -0.41379376015E+02 -0.16601667086E+03  0.17880147764E+03  0.00000000000E+00 0.  1.
         14    1    4    4    0    0 -0.25520561682E+02 -0.44207418444E+01 -0.31387784942E+02  0.40694410803E+02  0.00000000000E+00 0. -1.
         -5    1    5    5    0  502 -0.48310218231E+02 -0.10686311176E+02 -0.56200650797E+02  0.75024513208E+02  0.47000000000E+01 0.  1.
         11    1    6    6    0    0 -0.44727489898E+02  0.50164526121E+02 -0.36589898716E+03  0.37202029090E+03  0.00000000000E+00 0. -1.
        -12    1    6    6    0    0  0.40524668533E+02  0.27369706674E+02 -0.22027986530E+03  0.22564256836E+03  0.00000000000E+00 0.  1.
</event>
<event>
12    1  0.8461994E-002  0.2165791E+03  0.7818608E-02  0.1136511E+00
         21   -1    0    0  503  502  0.00000000000E+00  0.00000000000E+00  0.67108645009E+03  0.67108645009E+03  0.00000000000E+00 0.  1.
         21   -1    0    0  501  503 -0.00000000000E+00 -0.00000000000E+00 -0.10423981558E+03  0.10423981558E+03  0.00000000000E+00 0.  1.
          6    2    1    2  501    0 -0.10637783711E+03  0.76698833433E+02  0.60744393119E+02  0.22493644589E+03  0.17235883533E+03 0.  0.
         24    2    3    3    0    0  0.74493742084E+01  0.54246171035E+00  0.20171848796E+02  0.82021616908E+02  0.79150835217E+02 0.  0.
         -6    2    1    2    0  502  0.10637783711E+03 -0.76698833433E+02  0.50610224140E+03  0.55038981978E+03  0.17201895156E+03 0.  0.
        -24    2    5    5    0    0  0.40105011601E+02  0.19634852860E+02  0.31217332852E+03  0.32388865033E+03  0.73876460179E+02 0.  0.
          5    1    3    3  501    0 -0.11382721132E+03  0.76156371723E+02  0.40572544322E+02  0.14291482898E+03  0.47000000000E+01 0. -1.
        -11    1    4    4    0    0 -0.47597959134E+01  0.38862384542E+02  0.75910155109E+01  0.39881876911E+02  0.00000000000E+00 0.  1.
         12    1    4    4    0    0  0.12209170122E+02 -0.38319922832E+02  0.12580833286E+02  0.42139739997E+02  0.00000000000E+00 0. -1.
         -5    1    5    5    0  502  0.66272825509E+02 -0.96333686293E+02  0.19392891287E+03  0.22650116945E+03  0.47000000000E+01 0.  1.
         13    1    6    6    0    0 -0.90142867251E+01  0.23858707540E+02  0.41114136315E+02  0.48382512291E+02  0.00000000000E+00 0. -1.
        -14    1    6    6    0    0  0.49119298326E+02 -0.42238546800E+01  0.27105919221E+03  0.27550613804E+03  0.00000000000E+00 0.  1.
</event>
<event>
12    1  0.8461994E-002  0.2359263E+03  0.7818608E-02  0.1122574E+00
         21   -1    0    0  503  502  0.00000000000E+00  0.00000000000E+00  0.20474503238E+03  0.20474503238E+03  0.00000000000E+00 0.  1.
         21   -1    0    0  501  503 -0.00000000000E+00 -0.00000000000E+00 -0.35257465874E+03  0.35257465874E+03  0.00000000000E+00 0.  1.
          6    2    1    2  501    0 -0.67724447625E+02 -0.14601855011E+03  0.59654527735E+02  0.24313678791E+03  0.17218831893E+03 0.  0.
         24    2    3    3    0    0 -0.93435347839E+01 -0.61136073452E+02 -0.26612796247E+02  0.10868416795E+03  0.85317561615E+02 0.  0.
         -6    2    1    2    0  502  0.67724447625E+02  0.14601855011E+03 -0.20748415409E+03  0.31418290321E+03  0.17249117279E+03 0.  0.
        -24    2    5    5    0    0  0.38761066434E+02  0.11448718671E+03 -0.22516545690E+03  0.26762301923E+03  0.79453516295E+02 0.  0.
          5    1    3    3  501    0 -0.58380912841E+02 -0.84882476654E+02  0.86267323982E+02  0.13445261996E+03  0.47000000000E+01 0. -1.
        -13    1    4    4    0    0  0.12531372934E+02 -0.71310237550E+02 -0.38264790053E+02  0.81892487109E+02  0.00000000000E+00 0.  1.
         14    1    4    4    0    0 -0.21874907717E+02  0.10174164098E+02  0.11651993806E+02  0.26791680843E+02  0.00000000000E+00 0. -1.
         -5    1    5    5    0  502  0.28963381191E+02  0.31531363397E+02  0.17681302802E+02  0.46559883983E+02  0.47000000000E+01 0.  1.
         11    1    6    6    0    0 -0.14413721052E+02  0.22083059443E+02 -0.11364642181E+02  0.28715361060E+02  0.00000000000E+00 0. -1.
        -12    1    6    6    0    0  0.53174787486E+02  0.92404127266E+02 -0.21380081472E+03  0.23890765817E+03  0.00000000000E+00 0.  1.
</event>
<event>
12    1  0.8461994E-002  0.1771354E+03  0.7818608E-02  0.1170853E+00
         21   -1    0    0  503  502  0.00000000000E+00  0.00000000000E+00  0.10785705560E+03  0.10785705560E+03  0.00000000000E+00 0.  1.
         21   -1    0    0  501  503 -0.00000000000E+00 -0.00000000000E+00 -0.29179315608E+03  0.29179315608E+03  0.00000000000E+00 0.  1.
          6    2    1    2  501    0 -0.31975140058E+02 -0.19547451933E+02 -0.73133896799E+02  0.19071461878E+03  0.17210167488E+03 0.  0.
         24    2    3    3    0    0 -0.68397320822E+02 -0.71710426101E+01  0.36626692718E+01  0.10469396243E+03  0.78852985197E+02 0.  0.
         -6    2    1    2    0  502  0.31975140058E+02  0.19547451933E+02 -0.11080220369E+03  0.20893559290E+03  0.17312550701E+03 0.  0.
        -24    2    5    5    0    0  0.61591040498E+02  0.69946142869E+02 -0.74681206051E+02  0.14005928291E+03  0.73166939398E+02 0.  0.
          5    1    3    3  501    0  0.36422180765E+02 -0.12376409323E+02 -0.76796566070E+02  0.86020656354E+02  0.47000000000E+01 0. -1.
        -13    1    4    4    0    0  0.59890212629E+01 -0.23994094954E+02  0.12864029836E+02  0.27875943607E+02  0.00000000000E+00 0.  1.
         14    1    4    4    0    0 -0.74386342085E+02  0.16823052344E+02 -0.92013605645E+01  0.76818018819E+02  0.00000000000E+00 0. -1.
         -5    1    5    5    0  502 -0.29615900440E+02 -0.50398690936E+02 -0.36120997636E+02  0.68876309985E+02  0.47000000000E+01 0.  1.
         13    1    6    6    0    0  0.15609448853E+02 -0.11029802009E+02  0.22842490864E+01  0.19249135559E+02  0.00000000000E+00 0. -1.
        -14    1    6    6    0    0  0.45981591645E+02  0.80975944878E+02 -0.76965455137E+02  0.12081014735E+03  0.00000000000E+00 0.  1.
</event>
<event>
12    1  0.8461994E-002  0.2017671E+03  0.7818608E-02  0.1148257E+00
         21   -1    0    0  503  502  0.00000000000E+00  0.00000000000E+00  0.21315556816E+03  0.21315556816E+03  0.00000000000E+00 0.  1.
         21   -1    0    0  501  503 -0.00000000000E+00 -0.00000000000E+00 -0.25812184174E+03  0.25812184174E+03  0.00000000000E+00 0.  1.
          6    2    1    2  501    0  0.49477188862E+02  0.91328922593E+02 -0.14266017488E+03  0.24710704742E+03  0.17297688593E+03 0.  0.
         24    2    3    3    0    0  0.32721217058E+01  0.67557422232E+02 -0.16086935966E+03  0.19184714450E+03  0.79697326795E+02 0.  0.
         -6    2    1    2    0  502 -0.49477188862E+02 -0.91328922593E+02  0.97693901306E+02  0.22417036249E+03  0.17297193051E+03 0.  0.
        -24    2    5    5    0    0 -0.45991639601E+02 -0.13123008047E+03  0.67126367878E+02  0.17356684923E+03  0.79264979371E+02 0.  0.
          5    1    3    3  501    0  0.46205067156E+02  0.23771500361E+02  0.18209184774E+02  0.55259902917E+02  0.47000000000E+01 0. -1.
        -11    1    4    4    0    0  0.39991107484E+02  0.44897336026E+02 -0.78714241814E+02  0.99050448381E+02  0.00000000000E+00 0.  1.
         12    1    4    4    0    0 -0.36718985778E+02  0.22660086206E+02 -0.82155117841E+02  0.92796696121E+02  0.00000000000E+00 0. -1.
         -5    1    5    5    0  502 -0.34855492608E+01  0.39901157878E+02  0.30567533428E+02  0.50603513253E+02  0.47000000000E+01 0.  1.
         11    1    6    6    0    0  0.14477487239E+02  0.82614018125E+00  0.30507404034E+01  0.14818473651E+02  0.00000000000E+00 0. -1.
        -12    1    6    6    0    0 -0.60469126839E+02 -0.13205622065E+03  0.64075627475E+02  0.15874837558E+03  0.00000000000E+00 0.  1.
</event>
<event>
12    1  0.8461994E-002  0.1800444E+03  0.7818608E-02  0.1168224E+00
         21   -1    0    0  501  502  0.00000000000E+00  0.00000000000E+00  0.30073479740E+03  0.30073479740E+03  0.00000000000E+00 0.  1.
         21   -1    0    0  502  503 -0.00000000000E+00 -0.00000000000E+00 -0.14898248930E+03  0.14898248930E+03  0.00000000000E+00 0.  1.
         -6    2    1    2    0  503  0.16779747069E+02  0.50050908699E+02 -0.44272401674E+02  0.18355629966E+03  0.17013587576E+03 0.  0.
        -24    2    3    3    0    0  0.71171170909E+02  0.50408779994E+02 -0.50449273732E+02  0.12861270305E+03  0.79935708528E+02 0.  0.
          6    2    1    2  501    0 -0.16779747069E+02 -0.50050908699E+02  0.19602470977E+03  0.26616098705E+03  0.17213172517E+03 0.  0.
         24    2    5    5    0    0 -0.21103465242E+02  0.70330246183E+01  0.25203825643E+02  0.85941303225E+02  0.79093963692E+02 0.  0.
          5    1    5    5  501    0  0.43237181732E+01 -0.57083933317E+02  0.17082088413E+03  0.18021968382E+03  0.47000000000E+01 0. -1.
        -13    1    6    6    0    0  0.99834320416E+01  0.33729874563E+02  0.27868232654E+02  0.44877742196E+02  0.00000000000E+00 0.  1.
         14    1    6    6    0    0 -0.31086897283E+02 -0.26696849945E+02 -0.26644070113E+01  0.41063561029E+02  0.00000000000E+00 0. -1.
         -5    1    3    3    0  503 -0.54391423841E+02 -0.35787129486E+00  0.61768720580E+01  0.54943596603E+02  0.47000000000E+01 0.  1.
         11    1    4    4    0    0 -0.11760281032E+02  0.20992319110E+02  0.50394430779E+01  0.24584093599E+02  0.00000000000E+00 0. -1.
        -12    1    4    4    0    0  0.82931451941E+02  0.29416460884E+02 -0.55488716810E+02  0.10402860946E+03  0.00000000000E+00 0.  1.
</event>
<event>
12    1  0.8461994E-002  0.2874948E+03  0.7818608E-02  0.1091884E+00
         21   -1    0    0  501  502  0.00000000000E+00  0.00000000000E+00  0.58580703957E+02  0.58580703957E+02  0.00000000000E+00 0.  1.
         21   -1    0    0  502  503 -0.00000000000E+00 -0.00000000000E+00 -0.17734718894E+04  0.17734718894E+04  0.00000000000E+00 0. -1.
         -6    2    1    2    0  503 -0.14262299629E+03 -0.17985585280E+03 -0.12742596038E+04  0.13059257611E+04  0.17033821881E+03 0.  0.
        -24    2    3    3    0    0 -0.62695996806E+01 -0.47234837065E+02 -0.33460004297E+03  0.34719599582E+03  0.79482281341E+02 0.  0.
          6    2    1    2  501    0  0.14262299629E+03  0.17985585280E+03 -0.44063158158E+03  0.52612683219E+03  0.17310056616E+03 0.  0.
         24    2    5    5    0    0  0.99008509162E+02  0.64836302368E+02 -0.13371163329E+03  0.19544017517E+03  0.79445768944E+02 0.  0.
          5    1    5    5  501    0  0.43614487128E+02  0.11501955043E+03 -0.30691994829E+03  0.33068665702E+03  0.47000000000E+01 0. -1.
        -11    1    6    6    0    0  0.11200760907E+03  0.51963888138E+02 -0.10906238939E+03  0.16474390714E+03  0.00000000000E+00 0.  1.
         12    1    6    6    0    0 -0.12999099905E+02  0.12872414230E+02 -0.24649243897E+02  0.30696268033E+02  0.00000000000E+00 0. -1.
         -5    1    3    3    0  503 -0.13635339661E+03 -0.13262101574E+03 -0.93965956085E+03  0.95872976530E+03  0.47000000000E+01 0.  1.
         11    1    4    4    0    0  0.36667924290E+01 -0.61953609369E+02 -0.15872872815E+03  0.17043035006E+03  0.00000000000E+00 0. -1.
        -12    1    4    4    0    0 -0.99363921096E+01  0.14718772304E+02 -0.17587131482E+03  0.17676564577E+03  0.00000000000E+00 0.  1.
</event>
<event>
12    1  0.8461994E-002  0.2003174E+03  0.7818608E-02  0.1149735E+00
         21   -1    0    0  503  502  0.00000000000E+00  0.00000000000E+00  0.12249080778E+04  0.12249080778E+04  0.00000000000E+00 0.  1.
         21   -1    0    0  501  503 -0.00000000000E+00 -0.00000000000E+00 -0.68994648761E+02  0.68994648761E+02  0.00000000000E+00 0.  1.
          6    2    1    2  501    0 -0.78102458340E+02  0.62807766453E+02  0.10864771548E+03  0.22788458909E+03  0.17344235452E+03 0.  0.
         24    2    3    3    0    0 -0.11233608541E+03  0.55607163141E+02  0.12114582842E+03  0.19044019382E+03  0.76678569366E+02 0.  0.
         -6    2    1    2    0  502  0.78102458340E+02 -0.62807766453E+02  0.10472657136E+04  0.10660181375E+04  0.17200111943E+03 0.  0.
        -24    2    5    5    0    0  0.77624260308E+02 -0.41490544802E+02  0.37704675135E+03  0.39544360774E+03  0.80401511817E+02 0.  0.
          5    1    3    3  501    0  0.34233627072E+02  0.72006033119E+01 -0.12498112939E+02  0.37444395276E+02  0.47000000000E+01 0. -1.
        -13    1    4    4    0    0 -0.52292653624E+02  0.17982455855E+02  0.65196854704E+01  0.55681205449E+02  0.00000000000E+00 0.  1.
         14    1    4    4    0    0 -0.60043431787E+02  0.37624707286E+02  0.11462614295E+03  0.13475898837E+03  0.00000000000E+00 0. -1.
         -5    1    5    5    0  502  0.47819803190E+00 -0.21317221652E+02  0.67021896225E+03  0.67057452976E+03  0.47000000000E+01 0.  1.
         11    1    6    6    0    0  0.76007959451E+02 -0.32146490919E+02  0.37703464184E+03  0.38596078547E+03  0.00000000000E+00 0. -1.
        -12    1    6    6    0    0  0.16163008565E+01 -0.93440538827E+01  0.12109509116E-01  0.94828222624E+01  0.00000000000E+00 0.  1.
</event>
<event>
12    1  0.8461994E-002  0.2305575E+03  0.7818608E-02  0.1126251E+00
         21   -1    0    0  501  502  0.00000000000E+00  0.00000000000E+00  0.42682691543E+03  0.42682691543E+03  0.00000000000E+00 0.  1.
         21   -1    0    0  502  503 -0.00000000000E+00 -0.00000000000E+00 -0.13621496836E+03  0.13621496836E+03  0.00000000000E+00 0.  1.
         -6    2    1    2    0  503 -0.14976458015E+03  0.31687593717E+02  0.62857877422E+02  0.23897258420E+03  0.17240432181E+03 0.  0.
        -24    2    3    3    0    0 -0.50052500338E+02  0.77758691163E+02  0.37365074962E+02  0.12611418682E+03  0.77181425548E+02 0.  0.
          6    2    1    2  501    0  0.14976458015E+03 -0.31687593717E+02  0.22775406965E+03  0.32406929959E+03  0.17238173230E+03 0.  0.
         24    2    5    5    0    0  0.14517433921E+03 -0.21451212060E+02  0.97270665896E+02  0.19302021537E+03  0.79116861861E+02 0.  0.
          5    1    5    5  501    0  0.45902409360E+01 -0.10236381657E+02  0.13048340375E+03  0.13104908422E+03  0.47000000000E+01 0. -1.
        -13    1    6    6    0    0  0.13278450061E+03 -0.16656055871E+02  0.11103473169E+03  0.17389036615E+03  0.00000000000E+00 0.  1.
         14    1    6    6    0    0  0.12389838608E+02 -0.47951561881E+01 -0.13764065798E+02  0.19129849212E+02  0.00000000000E+00 0. -1.
         -5    1    3    3    0  503 -0.99712079812E+02 -0.46071097446E+02  0.25492802460E+02  0.11285839737E+03  0.47000000000E+01 0.  1.
         13    1    4    4    0    0  0.17114566468E+02  0.73915868772E+01  0.19923391662E+02  0.27285261173E+02  0.00000000000E+00 0. -1.
        -14    1    4    4    0    0 -0.67167066806E+02  0.70367104285E+02  0.17441683300E+02  0.98828925650E+02  0.00000000000E+00 0.  1.
</event>
<event>
12    1  0.8461994E-002  0.1970271E+03  0.7818608E-02  0.1152492E+00
         21   -1    0    0  503  502  0.00000000000E+00  0.00000000000E+00  0.46028777418E+03  0.46028777418E+03  0.00000000000E+00 0. -1.
         21   -1    0    0  501  503 -0.00000000000E+00 -0.00000000000E+00 -0.34867112733E+03  0.34867112733E+03  0.00000000000E+00 0.  1.
          6    2    1    2  501    0  0.42287372600E+02 -0.86708135396E+02 -0.29662683396E+03  0.35609992837E+03  0.17179393974E+03 0.  0.
         24    2    3    3    0    0  0.65355852198E+02 -0.84660953047E+02 -0.30331236711E+03  0.33154118125E+03  0.80512722213E+02 0.  0.
         -6    2    1    2    0  502 -0.42287372600E+02  0.86708135396E+02  0.40824348082E+03  0.45285897314E+03  0.17062235287E+03 0.  0.
        -24    2    5    5    0    0  0.15486393467E+02  0.10344773562E+03  0.31429605977E+03  0.34120669962E+03  0.81845808028E+02 0.  0.
          5    1    3    3  501    0 -0.23068479598E+02 -0.20471823494E+01  0.66855331449E+01  0.24558747117E+02  0.47000000000E+01 0. -1.
        -13    1    4    4    0    0 -0.39848006371E+01 -0.22404060099E+02 -0.15301976042E+03  0.15470251330E+03  0.00000000000E+00 0.  1.
         14    1    4    4    0    0  0.69340652835E+02 -0.62256892948E+02 -0.15029260669E+03  0.17683866795E+03  0.00000000000E+00 0. -1.
         -5    1    5    5    0  502 -0.57773766067E+02 -0.16739600220E+02  0.93947421042E+02  0.11165227352E+03  0.47000000000E+01 0.  1.
         11    1    6    6    0    0 -0.30543402681E+02  0.27588285232E+02  0.13534323764E+03  0.14146308672E+03  0.00000000000E+00 0. -1.
        -12    1    6    6    0    0  0.46029796148E+02  0.75859450384E+02  0.17895282213E+03  0.19974361290E+03  0.00000000000E+00 0.  1.
</event>
<event>
12    1  0.8461994E-002  0.1929339E+03  0.7818608E-02  0.1155985E+00
         21   -1    0    0  501  502  0.00000000000E+00  0.00000000000E+00  0.17593618257E+04  0.17593618257E+04  0.00000000000E+00 0. -1.
         21   -1    0    0  502  503 -0.00000000000E+00 -0.00000000000E+00 -0.27606783145E+02  0.27606783145E+02  0.00000000000E+00 0. -1.
         -6    2    1    2    0  503  0.64083968672E+02 -0.57840899157E+02  0.43052775473E+03  0.47151586291E+03  0.17181599672E+03 0.  0.
        -24    2    3    3    0    0  0.10124141186E+03 -0.69934729968E+02  0.37951905062E+03  0.40708827392E+03  0.80904036046E+02 0.  0.
          6    2    1    2  501    0 -0.64083968672E+02  0.57840899157E+02  0.13012272878E+04  0.13154527459E+04  0.17254317589E+03 0.  0.
         24    2    5    5    0    0 -0.36110154039E+01  0.77127763965E+02  0.56908224627E+03  0.58054634842E+03  0.84957214159E+02 0.  0.
          5    1    5    5  501    0 -0.60472953269E+02 -0.19286864808E+02  0.73214504156E+03  0.73490639752E+03  0.47000000000E+01 0. -1.
        -13    1    6    6    0    0 -0.45982288838E+01  0.57775448231E+02  0.55100848887E+03  0.55404828394E+03  0.00000000000E+00 0.  1.
         14    1    6    6    0    0  0.98721347991E+00  0.19352315734E+02  0.18073757397E+02  0.26498064480E+02  0.00000000000E+00 0. -1.
         -5    1    3    3    0  503 -0.37157443192E+02  0.12093830811E+02  0.51008704112E+02  0.64427588993E+02  0.47000000000E+01 0.  1.
         11    1    4    4    0    0  0.64789823733E+02 -0.53834447420E+01  0.24517145245E+03  0.25364491683E+03  0.00000000000E+00 0. -1.
        -12    1    4    4    0    0  0.36451588132E+02 -0.64551285226E+02  0.13434759817E+03  0.15344335709E+03  0.00000000000E+00 0.  1.
</event>
<event>
12    1  0.8461994E-002  0.2193698E+03  0.7818608E-02  0.1134594E+00
         21   -1    0    0  503  502  0.00000000000E+00  0.00000000000E+00  0.43950147456E+03  0.43950147456E+03  0.00000000000E+00 0. -1.
         21   -1    0    0  501  503 -0.00000000000E+00 -0.00000000000E+00 -0.12247433737E+03  0.12247433737E+03  0.00000000000E+00 0. -1.
          6    2    1    2  501    0 -0.28541122957E+02 -0.12498456855E+03  0.65234634463E+02  0.22886385601E+03  0.17800946317E+03 0.  0.
         24    2    3    3    0    0 -0.87348508839E+02 -0.77597097263E+02  0.22613436127E+02  0.14201607183E+03  0.77499197830E+02 0.  0.
         -6    2    1    2    0  502  0.28541122957E+02  0.12498456855E+03  0.25179250273E+03  0.33311195592E+03  0.17643234588E+03 0.  0.
        -24    2    5    5    0    0 -0.44859729191E+02  0.32507455514E+02  0.67068338362E+02  0.11382947045E+03  0.73415641156E+02 0.  0.
          5    1    3    3  501    0  0.58807385882E+02 -0.47387471286E+02  0.42621198336E+02  0.86847784179E+02  0.47000000000E+01 0. -1.
        -11    1    4    4    0    0 -0.80662328393E+02 -0.30898702529E+02  0.35068078099E+02  0.93225056403E+02  0.00000000000E+00 0.  1.
         12    1    4    4    0    0 -0.66861804462E+01 -0.46698394734E+02 -0.12454641972E+02  0.48791015426E+02  0.00000000000E+00 0. -1.
         -5    1    5    5    0  502  0.73400852148E+02  0.92477113036E+02  0.18472416437E+03  0.21928248547E+03  0.47000000000E+01 0.  1.
         11    1    6    6    0    0 -0.11160672343E+02  0.51881239244E+02  0.40225032488E+02  0.66590365905E+02  0.00000000000E+00 0. -1.
        -12    1    6    6    0    0 -0.33699056847E+02 -0.19373783731E+02  0.26843305874E+02  0.47239104550E+02  0.00000000000E+00 0.  1.
</event>
<event>
12    1  0.8461994E-002  0.1835472E+03  0.7818608E-02  0.1165338E+00
         21   -1    0    0  503  502  0.00000000000E+00  0.00000000000E+00  0.35895195133E+02  0.35895195133E+02  0.00000000000E+00 0. -1.
         21   -1    0    0  501  503 -0.00000000000E+00 -0.00000000000E+00 -0.95052829356E+03  0.95052829356E+03  0.00000000000E+00 0. -1.
          6    2    1    2  501    0  0.54417233551E+02  0.35894747409E+01 -0.55206655677E+03  0.58177920359E+03  0.17525820664E+03 0.  0.
         24    2    3    3    0    0 -0.10387153603E+02  0.49840995180E+02 -0.20627976188E+03  0.22691386399E+03  0.79665197830E+02 0.  0.
         -6    2    1    2    0  502 -0.54417233551E+02 -0.35894747409E+01 -0.36256654166E+03  0.40464428510E+03  0.17119690622E+03 0.  0.
        -24    2    5    5    0    0 -0.86697173572E+02 -0.31755017278E+02 -0.32618739910E+03  0.34824548788E+03  0.79698930197E+02 0.  0.
          5    1    3    3  501    0  0.64804387154E+02 -0.46251520440E+02 -0.34578679488E+03  0.35486533960E+03  0.47000000000E+01 0. -1.
        -11    1    4    4    0    0 -0.28282595110E+02 -0.10727311198E+02 -0.51214579233E+02  0.59480362454E+02  0.00000000000E+00 0.  1.
         12    1    4    4    0    0  0.17895441507E+02  0.60568306378E+02 -0.15506518265E+03  0.16743350153E+03  0.00000000000E+00 0. -1.
         -5    1    5    5    0  502  0.32279940021E+02  0.28165542537E+02 -0.36379142564E+02  0.56398797220E+02  0.47000000000E+01 0.  1.
         13    1    6    6    0    0 -0.41192844155E+02  0.25706352501E+02 -0.12256824182E+03  0.13183565857E+03  0.00000000000E+00 0. -1.
        -14    1    6    6    0    0 -0.45504329418E+02 -0.57461369779E+02 -0.20361915727E+03  0.21640982931E+03  0.00000000000E+00 0.  1.
</event>
<event>
12    1  0.8461994E-002  0.1858468E+03  0.7818608E-02  0.1162283E+00
         21   -1    0    0  503  502  0.00000000000E+00  0.00000000000E+00  0.98950741368E+02  0.98950741368E+02  0.00000000000E+00 0. -1.
         21   -1    0    0  501  503 -0.00000000000E+00 -0.00000000000E+00 -0.37297042297E+03  0.37297042297E+03  0.00000000000E+00 0. -1.
          6    2    1    2  501    0 -0.65925310172E+02  0.22128160741E+02 -0.19694984876E+03  0.27072778059E+03  0.17224542443E+03 0.  0.
         24    2    3    3    0    0 -0.38517576693E+01  0.38914270894E+02 -0.18503026321E+03  0.20516051792E+03  0.79532906999E+02 0.  0.
         -6    2    1    2    0  502  0.65925310172E+02 -0.22128160741E+02 -0.77069832836E+02  0.20119338374E+03  0.17234621118E+03 0.  0.
        -24    2    5    5    0    0  0.88628772723E+02  0.34074221117E+02 -0.41990025441E+02  0.13100194676E+03  0.79888897350E+02 0.  0.
          5    1    3    3  501    0 -0.62073552503E+02 -0.16786110153E+02 -0.11919585558E+02  0.65567262672E+02  0.47000000000E+01 0. -1.
        -11    1    4    4    0    0  0.10871175874E+02  0.19927005273E+02 -0.46295010295E+01  0.23166792696E+02  0.00000000000E+00 0.  1.
         12    1    4    4    0    0 -0.14722933543E+02  0.18987265620E+02 -0.18040076218E+03  0.18199372523E+03  0.00000000000E+00 0. -1.
         -5    1    5    5    0  502 -0.22703462551E+02 -0.56202381858E+02 -0.35079807395E+02  0.70191436979E+02  0.47000000000E+01 0.  1.
         13    1    6    6    0    0  0.65018840723E+02  0.11982966458E+02  0.12839220679E+02  0.67348991987E+02  0.00000000000E+00 0. -1.
        -14    1    6    6    0    0  0.23609932001E+02  0.22091254659E+02 -0.54829246120E+02  0.63652954775E+02  0.00000000000E+00 0.  1.
</event>
<event>
12    1  0.8461994E-002  0.2042140E+03  0.7818608E-02  0.1146504E+00
         21   -1    0    0  501  502  0.00000000000E+00  0.00000000000E+00  0.55837390807E+02  0.55837390807E+02  0.00000000000E+00 0. -1.
         21   -1    0    0  502  503 -0.00000000000E+00 -0.00000000000E+00 -0.74380471893E+03  0.74380471893E+03  0.00000000000E+00 0. -1.
         -6    2    1    2    0  503 -0.77169790217E+02  0.75207660057E+02 -0.32564506664E+03  0.38438009084E+03  0.17347038985E+03 0.  0.
        -24    2    3    3    0    0 -0.10505577675E+03  0.16023139313E+02 -0.25797218250E+03  0.29013495840E+03  0.79593906323E+02 0.  0.
          6    2    1    2  501    0  0.77169790217E+02 -0.75207660057E+02 -0.36232226149E+03  0.41526201890E+03  0.17191205460E+03 0.  0.
         24    2    5    5    0    0 -0.11028691407E+02 -0.27185148746E+02 -0.25096253676E+03  0.26523464791E+03  0.80663245968E+02 0.  0.
          5    1    5    5  501    0  0.88198481624E+02 -0.48022511311E+02 -0.11135972473E+03  0.15002737099E+03  0.47000000000E+01 0. -1.
        -11    1    6    6    0    0 -0.60334340586E+01  0.28444539175E+02 -0.10496262080E+03  0.10891577434E+03  0.00000000000E+00 0.  1.
         12    1    6    6    0    0 -0.49952573483E+01 -0.55629687920E+02 -0.14599991596E+03  0.15631887357E+03  0.00000000000E+00 0. -1.
         -5    1    3    3    0  503  0.27885986529E+02  0.59184520744E+02 -0.67672884135E+02  0.94245132434E+02  0.47000000000E+01 0.  1.
         13    1    4    4    0    0 -0.19496537460E+02  0.39432848375E+02 -0.90300667795E+02  0.10044538371E+03  0.00000000000E+00 0. -1.
        -14    1    4    4    0    0 -0.85559239286E+02 -0.23409709062E+02 -0.16767151470E+03  0.18968957470E+03  0.00000000000E+00 0.  1.
</event>
<event>
12    1  0.8461994E-002  0.2543708E+03  0.7818608E-02  0.1110615E+00
         21   -1    0    0  501  502  0.00000000000E+00  0.00000000000E+00  0.33004305167E+03  0.33004305167E+03  0.00000000000E+00 0. -1.
         21   -1    0    0  502  503 -0.00000000000E+00 -0.00000000000E+00 -0.19610556150E+03  0.19610556150E+03  0.00000000000E+00 0.  1.
         -6    2    1    2    0  503 -0.67434605143E+02 -0.17476741415E+03  0.76677252758E+02  0.26567631580E+03  0.17208552719E+03 0.  0.
        -24    2    3    3    0    0 -0.20910623183E+02 -0.11327387187E+02  0.15963428649E+02  0.85162100988E+02  0.80200925980E+02 0.  0.
          6    2    1    2  501    0  0.67434605143E+02  0.17476741415E+03  0.57260237412E+02  0.26047229738E+03  0.17168578245E+03 0.  0.
         24    2    5    5    0    0  0.56536956934E+02  0.28409113575E+02  0.57744381019E+02  0.11363280923E+03  0.74662551268E+02 0.  0.
          5    1    5    5  501    0  0.10897648209E+02  0.14635830057E+03 -0.48414360689E+00  0.14683948814E+03  0.47000000000E+01 0. -1.
        -13    1    6    6    0    0  0.87397940142E+01 -0.23089693195E+02  0.28013038462E+02  0.37339633838E+02  0.00000000000E+00 0.  1.
         14    1    6    6    0    0  0.47797162919E+02  0.51498806770E+02  0.29731342557E+02  0.76293175397E+02  0.00000000000E+00 0. -1.
         -5    1    3    3    0  503 -0.46523981960E+02 -0.16344002696E+03  0.60713824109E+02  0.18051421481E+03  0.47000000000E+01 0.  1.
         13    1    4    4    0    0  0.27434613150E+02 -0.11851895811E+02 -0.83709112385E+01  0.31035424726E+02  0.00000000000E+00 0. -1.
        -14    1    4    4    0    0 -0.48345236333E+02  0.52450862422E+00  0.24334339887E+02  0.54126676262E+02  0.00000000000E+00 0.  1.
</event>
<event>
12    1  0.8461994E-002  0.1908958E+03  0.7818608E-02  0.1157848E+00
         21   -1    0    0  501  502  0.00000000000E+00  0.00000000000E+00  0.77640540518E+02  0.77640540518E+02  0.00000000000E+00 0. -1.
         21   -1    0    0  502  503 -0.00000000000E+00 -0.00000000000E+00 -0.92888543040E+03  0.92888543040E+03  0.00000000000E+00 0.  1.
         -6    2    1    2    0  503  0.83579947691E+02 -0.76266774120E+00 -0.77992209165E+03  0.80274143679E+03  0.17067265740E+03 0.  0.
        -24    2    3    3    0    0  0.45523487270E+02  0.55415243717E+02 -0.62429642185E+03  0.63290124421E+03  0.75330773670E+02 0.  0.
          6    2    1    2  501    0 -0.83579947691E+02  0.76266774120E+00 -0.71322798234E+02  0.20378453412E+03  0.17162460629E+03 0.  0.
         24    2    5    5    0    0 -0.24805786878E+02  0.52469024876E+02 -0.74191495674E+02  0.12530989636E+03  0.82643006124E+02 0.  0.
          5    1    5    5  501    0 -0.58774160813E+02 -0.51706357135E+02  0.28686974395E+01  0.78474637766E+02  0.47000000000E+01 0. -1.
        -13    1    6    6    0    0 -0.31550323792E+02  0.21144942176E+02 -0.83677120727E+02  0.91893373233E+02  0.00000000000E+00 0.  1.
         14    1    6    6    0    0  0.67445369146E+01  0.31324082701E+02  0.94856250531E+01  0.33416523127E+02  0.00000000000E+00 0. -1.
         -5    1    3    3    0  503  0.38056460420E+02 -0.56177911458E+02 -0.15562566980E+03  0.16984019258E+03  0.47000000000E+01 0.  1.
         11    1    4    4    0    0  0.51376372393E+02  0.50795021564E+02 -0.30211150872E+03  0.31063005257E+03  0.00000000000E+00 0. -1.
        -12    1    4    4    0    0 -0.58528851222E+01  0.46202221525E+01 -0.32218491313E+03  0.32227119164E+03  0.00000000000E+00 0.  1.
</event>
<event>
12    1  0.8461994E-002  0.2522721E+03  0.7818608E-02  0.1111881E+00
         21   -1    0    0  503  502  0.00000000000E+00  0.00000000000E+00  0.80623295754E+03  0.80623295754E+03  0.00000000000E+00 0.  1.
         21   -1    0    0  501  503 -0.00000000000E+00 -0.00000000000E+00 -0.98005647497E+02  0.98005647497E+02  0.00000000000E+00 0. -1.
          6    2    1    2  501    0  0.13154446321E+03 -0.13020323877E+03  0.55359506428E+03  0.60836561575E+03  0.17141877973E+03 0.  0.
         24    2    3    3    0    0  0.13400702384E+03 -0.55366962654E+02  0.45653759105E+03  0.48569216492E+03  0.80292739619E+02 0.  0.
         -6    2    1    2    0  502 -0.13154446321E+03  0.13020323877E+03  0.15463224577E+03  0.29587298929E+03  0.17138513696E+03 0.  0.
        -24    2    5    5    0    0 -0.11225515827E+03  0.71832478190E+02  0.17194895621E+03  0.23183252211E+03  0.80117097326E+02 0.  0.
          5    1    3    3  501    0 -0.24625606315E+01 -0.74836276115E+02  0.97057473227E+02  0.12267345082E+03  0.47000000000E+01 0. -1.
        -13    1    4    4    0    0  0.12130228350E+03 -0.52906216502E+02  0.29133416850E+03  0.31998267056E+03  0.00000000000E+00 0.  1.
         14    1    4    4    0    0  0.12704740345E+02 -0.24607461520E+01  0.16520342255E+03  0.16570949436E+03  0.00000000000E+00 0. -1.
         -5    1    5    5    0  502 -0.19289304941E+02  0.58370760579E+02 -0.17316710447E+02  0.64040467178E+02  0.47000000000E+01 0.  1.
         13    1    6    6    0    0 -0.43883782178E+02  0.72929142790E+02  0.76663878460E+02  0.11455041016E+03  0.00000000000E+00 0. -1.
        -14    1    6    6    0    0 -0.68371376094E+02 -0.10966646003E+01  0.95285077753E+02  0.11728211195E+03  0.00000000000E+00 0.  1.
</event>
<event>
12    1  0.8461994E-002  0.1739754E+03  0.7818608E-02  0.1174088E+00
         21   -1    0    0  503  502  0.00000000000E+00  0.00000000000E+00  0.82618411357E+03  0.82618411357E+03  0.00000000000E+00 0. -1.
         21   -1    0    0  501  503 -0.00000000000E+00 -0.00000000000E+00 -0.41075854160E+02  0.41075854160E+02  0.00000000000E+00 0. -1.
          6    2    1    2  501    0 -0.17758115463E+02 -0.19646578730E+02  0.24701829363E+03  0.30213485829E+03  0.17194794702E+03 0.  0.
         24    2    3    3    0    0 -0.73624275463E+02  0.36044692285E+01  0.10929492931E+03  0.15163085786E+03  0.74920019673E+02 0.  0.
         -6    2    1    2    0  502  0.17758115463E+02  0.19646578730E+02  0.53808996578E+03  0.56512510944E+03  0.17065825303E+03 0.  0.
        -24    2    5    5    0    0 -0.18790362578E+02  0.66857684593E+02  0.41307204410E+03  0.42650241828E+03  0.80329144563E+02 0.  0.
          5    1    3    3  501    0  0.55866160001E+02 -0.23251047958E+02  0.13772336432E+03  0.15050400043E+03  0.47000000000E+01 0. -1.
        -13    1    4    4    0    0 -0.25886400313E+02 -0.34736794672E+02  0.37737015900E+02  0.57452876292E+02  0.00000000000E+00 0.  1.
         14    1    4    4    0    0 -0.47737875151E+02  0.38341263900E+02  0.71557913408E+02  0.94177981570E+02  0.00000000000E+00 0. -1.
         -5    1    5    5    0  502  0.36548478041E+02 -0.47211105863E+02  0.12501792169E+03  0.13862269117E+03  0.47000000000E+01 0.  1.
         11    1    6    6    0    0 -0.41747718628E+02  0.12682921137E+02  0.12263879216E+03  0.13016912783E+03  0.00000000000E+00 0. -1.
        -12    1    6    6    0    0  0.22957356050E+02  0.54174763456E+02  0.29043325194E+03  0.29633329044E+03  0.00000000000E+00 0.  1.
</event>
<event>
12    1  0.8461994E-002  0.2268513E+03  0.7818608E-02  0.1129630E+00
         21   -1    0    0  503  502  0.00000000000E+00  0.00000000000E+00  0.48592788059E+03  0.48592788059E+03  0.00000000000E+00 0.  1.
         21   -1    0    0  501  503 -0.00000000000E+00 -0.00000000000E+00 -0.11307841457E+03  0.11307841457E+03  0.00000000000E+00 0. -1.
          6    2    1    2  501    0  0.14108737931E+03 -0.41970747964E+02  0.99817250445E+02  0.24403012526E+03  0.16709286718E+03 0.  0.
         24    2    3    3    0    0  0.40880550829E+02 -0.35060171292E+01 -0.11583357087E+02  0.89262139711E+02  0.78422215170E+02 0.  0.
         -6    2    1    2    0  502 -0.14108737931E+03  0.41970747964E+02  0.27303221557E+03  0.35497616990E+03  0.17261024934E+03 0.  0.
        -24    2    5    5    0    0 -0.34776912503E+02  0.24685102739E+02  0.21322841987E+03  0.23169075770E+03  0.79971621353E+02 0.  0.
          5    1    3    3  501    0  0.10020682848E+03 -0.38464730835E+02  0.11140060753E+03  0.15476798555E+03  0.47000000000E+01 0. -1.
        -11    1    4    4    0    0  0.24011447621E+02  0.36356725568E+02 -0.14392867300E+02  0.45885899141E+02  0.00000000000E+00 0.  1.
         12    1    4    4    0    0  0.16869103208E+02 -0.39862742697E+02  0.28095102124E+01  0.43376240570E+02  0.00000000000E+00 0. -1.
         -5    1    5    5    0  502 -0.10631046680E+03  0.17285645226E+02  0.59803795696E+02  0.12328541220E+03  0.47000000000E+01 0.  1.
         13    1    6    6    0    0  0.25261495852E+02  0.78017899096E-01  0.71021981096E+02  0.75380840127E+02  0.00000000000E+00 0. -1.
        -14    1    6    6    0    0 -0.60038408355E+02  0.24607084840E+02  0.14220643878E+03  0.15630991757E+03  0.00000000000E+00 0.  1.
</event>
<event>
12    1  0.8461994E-002  0.2024116E+03  0.7818608E-02  0.1147974E+00
         21   -1    0    0  503  502  0.00000000000E+00  0.00000000000E+00  0.33811350804E+03  0.33811350804E+03  0.00000000000E+00 0.  1.
         21   -1    0    0  501  503 -0.00000000000E+00 -0.00000000000E+00 -0.13151503187E+03  0.13151503187E+03  0.00000000000E+00 0.  1.
          6    2    1    2  501    0 -0.78450033795E+02 -0.70409031712E+02  0.35461958140E+02  0.20549454348E+03  0.17279646228E+03 0.  0.
         24    2    3    3    0    0 -0.83762017817E+02 -0.64633707145E+02  0.83029392409E+02  0.15705569181E+03  0.81111149656E+02 0.  0.
         -6    2    1    2    0  502  0.78450033795E+02  0.70409031712E+02  0.17113651803E+03  0.26413399643E+03  0.17136866900E+03 0.  0.
        -24    2    5    5    0    0  0.87583093690E+02  0.93804210250E+02  0.84132673230E+02  0.17345596065E+03  0.80861829193E+02 0.  0.
          5    1    3    3  501    0  0.53119840228E+01 -0.57753245668E+01 -0.47567434270E+02  0.48438851670E+02  0.47000000000E+01 0. -1.
        -11    1    4    4    0    0 -0.39665475216E+02 -0.77727566807E+02  0.56423202731E+02  0.10391584274E+03  0.00000000000E+00 0.  1.
         12    1    4    4    0    0 -0.44096542601E+02  0.13093859662E+02  0.26606189678E+02  0.53139849072E+02  0.00000000000E+00 0. -1.
         -5    1    5    5    0  502 -0.91330598957E+01 -0.23395178538E+02  0.87003844799E+02  0.90678035773E+02  0.47000000000E+01 0.  1.
         11    1    6    6    0    0  0.51980723841E+02  0.97251408477E+02  0.41540127155E+02  0.11783638770E+03  0.00000000000E+00 0. -1.
        -12    1    6    6    0    0  0.35602369849E+02 -0.34471982275E+01  0.42592546075E+02  0.55619572955E+02  0.00000000000E+00 0.  1.
</event>
<event>
12    1  0.8461994E-002  0.1718630E+03  0.7818608E-02  0.1176207E+00
         21   -1    0    0  503  502  0.00000000000E+00  0.00000000000E+00  0.42809110697E+03  0.42809110697E+03  0.00000000000E+00 0.  1.
         21   -1    0    0  501  503 -0.00000000000E+00 -0.00000000000E+00 -0.18656376991E+03  0.18656376991E+03  0.00000000000E+00 0.  1.
          6    2    1    2  501    0 -0.15747257076E+02 -0.26560086091E+01 -0.12381117326E+03  0.21091099945E+03  0.16999768404E+03 0.  0.
         24    2    3    3    0    0 -0.59421249041E+02 -0.12030446928E+02 -0.30044310917E+02  0.10694171485E+03  0.82814571574E+02 0.  0.
         -6    2    1    2    0  502  0.15747257076E+02  0.26560086091E+01  0.36533851032E+03  0.40374387743E+03  0.17111943476E+03 0.  0.
        -24    2    5    5    0    0 -0.28325638731E+02  0.23459033183E+02  0.33766587940E+03  0.34750287390E+03  0.73398455102E+02 0.  0.
          5    1    3    3  501    0  0.43673991965E+02  0.93744383190E+01 -0.93766862338E+02  0.10396928460E+03  0.47000000000E+01 0. -1.
        -11    1    4    4    0    0 -0.41656527995E+02 -0.46998386168E+02 -0.24121825415E+02  0.67275382484E+02  0.00000000000E+00 0.  1.
         12    1    4    4    0    0 -0.17764721045E+02  0.34967939240E+02 -0.59224855024E+01  0.39666332362E+02  0.00000000000E+00 0. -1.
         -5    1    5    5    0  502  0.44072895806E+02 -0.20803024574E+02  0.27672630925E+02  0.56241003534E+02  0.47000000000E+01 0.  1.
         13    1    6    6    0    0 -0.44969716802E+02  0.14828291418E+02  0.11959970250E+03  0.12863219851E+03  0.00000000000E+00 0. -1.
        -14    1    6    6    0    0  0.16644078072E+02  0.86307417648E+01  0.21806617689E+03  0.21887067538E+03  0.00000000000E+00 0.  1.
</event>
<event>
12    1  0.8461994E-002  0.3107932E+03  0.7818608E-02  0.1080020E+00
         21   -1    0    0  503  502  0.00000000000E+00  0.00000000000E+00  0.80043496405E+03  0.80043496405E+03  0.00000000000E+00 0.  1.
         21   -1    0    0  501  503 -0.00000000000E+00 -0.00000000000E+00 -0.16900743719E+03  0.16900743719E+03  0.00000000000E+00 0. -1.
          6    2    1    2  501    0 -0.25665552080E+03 -0.29392388469E+02  0.55873035680E+02  0.31533583149E+03  0.17198523671E+03 0.  0.
         24    2    3    3    0    0 -0.21130504438E+03 -0.69192183775E+02  0.52978104514E+01  0.23646484300E+03  0.80312982161E+02 0.  0.
         -6    2    1    2    0  502  0.25665552080E+03  0.29392388469E+02  0.57555449117E+03  0.65410656975E+03  0.17279022954E+03 0.  0.
        -24    2    5    5    0    0  0.18424296949E+03 -0.86956625669E+01  0.26287989012E+03  0.33087016499E+03  0.79675235161E+02 0.  0.
          5    1    3    3  501    0 -0.45350476426E+02  0.39799795305E+02  0.50575225228E+02  0.78870988489E+02  0.47000000000E+01 0. -1.
        -11    1    4    4    0    0 -0.88443178677E+02 -0.25777036599E+02  0.41769406115E+02  0.10115006059E+03  0.00000000000E+00 0.  1.
         12    1    4    4    0    0 -0.12286186570E+03 -0.43415147175E+02 -0.36471595664E+02  0.13531478241E+03  0.00000000000E+00 0. -1.
         -5    1    5    5    0  502  0.72412551313E+02  0.38088051036E+02  0.31267460105E+03  0.32323640476E+03  0.47000000000E+01 0.  1.
         11    1    6    6    0    0  0.11559492970E+03 -0.32193659032E+02  0.20709152295E+03  0.23934393315E+03  0.00000000000E+00 0. -1.
        -12    1    6    6    0    0  0.68648039790E+02  0.23497996465E+02  0.55788367167E+02  0.91526231846E+02  0.00000000000E+00 0.  1.
</event>
<event>
12    1  0.8461994E-002  0.2516932E+03  0.7818608E-02  0.1114390E+00
         21   -1    0    0  503  502  0.00000000000E+00  0.00000000000E+00  0.19881214864E+03  0.19881214864E+03  0.00000000000E+00 0. -1.
         21   -1    0    0  501  503 -0.00000000000E+00 -0.00000000000E+00 -0.32927157060E+03  0.32927157060E+03  0.00000000000E+00 0.  1.
          6    2    1    2  501    0  0.16127420338E+03 -0.35787406449E+02 -0.13959717006E+03  0.27622466163E+03  0.17182138013E+03 0.  0.
         24    2    3    3    0    0  0.42470779214E+02 -0.62441729020E+02 -0.36224647523E+02  0.11643519101E+03  0.80883817964E+02 0.  0.
         -6    2    1    2    0  502 -0.16127420338E+03  0.35787406449E+02  0.91377480988E+01  0.25185905761E+03  0.18989307340E+03 0.  0.
        -24    2    5    5    0    0  0.19086578421E+02  0.64342149258E+01  0.34583841311E+01  0.68976672894E+02  0.65879620409E+02 0.  0.
          5    1    3    3  501    0  0.11880342416E+03  0.26654322571E+02 -0.10337252254E+03  0.15978947062E+03  0.47000000000E+01 0. -1.
        -11    1    4    4    0    0  0.32642518099E+02  0.12418895351E+02 -0.14964418155E+02  0.37996009795E+02  0.00000000000E+00 0.  1.
         12    1    4    4    0    0  0.98282611149E+01 -0.74860624371E+02 -0.21260229367E+02  0.78439181220E+02  0.00000000000E+00 0. -1.
         -5    1    5    5    0  502 -0.18036078180E+03  0.29353191523E+02  0.56793639676E+01  0.18288238471E+03  0.47000000000E+01 0.  1.
         11    1    6    6    0    0 -0.17449087678E+01  0.26474149400E+02  0.22142974133E+02  0.34557728463E+02  0.00000000000E+00 0. -1.
        -12    1    6    6    0    0  0.20831487189E+02 -0.20039934474E+02 -0.18684590002E+02  0.34418944431E+02  0.00000000000E+00 0.  1.
</event>
<event>
12    1  0.8461994E-002  0.4072679E+03  0.7818608E-02  0.1041305E+00
         21   -1    0    0  503  502  0.00000000000E+00  0.00000000000E+00  0.30292493338E+03  0.30292493338E+03  0.00000000000E+00 0.  1.
         21   -1    0    0  501  503 -0.00000000000E+00 -0.00000000000E+00 -0.61524302019E+03  0.61524302019E+03  0.00000000000E+00 0.  1.
          6    2    1    2  501    0 -0.35219554550E+03  0.11081436263E+03 -0.30863865538E+03  0.51088344899E+03  0.17153003708E+03 0.  0.
         24    2    3    3    0    0 -0.21406865383E+03  0.13644260515E+03 -0.18572005148E+03  0.32415659445E+03  0.78381038242E+02 0.  0.
         -6    2    1    2    0  502  0.35219554550E+03 -0.11081436263E+03 -0.36794314187E+01  0.40728450458E+03  0.17188834812E+03 0.  0.
        -24    2    5    5    0    0  0.77762087651E+02 -0.14633639002E+02  0.39894840133E+01  0.11634575390E+03  0.85201718297E+02 0.  0.
          5    1    3    3  501    0 -0.13812689167E+03 -0.25628242524E+02 -0.12291860391E+03  0.18672685454E+03  0.47000000000E+01 0. -1.
        -11    1    4    4    0    0 -0.10529672976E+03  0.22984334630E+02 -0.63860551038E+02  0.12527510094E+03  0.00000000000E+00 0.  1.
         12    1    4    4    0    0 -0.10877192406E+03  0.11345827052E+03 -0.12185950044E+03  0.19888149351E+03  0.00000000000E+00 0. -1.
         -5    1    5    5    0  502  0.27443345785E+03 -0.96180723627E+02 -0.76689154320E+01  0.29093875068E+03  0.47000000000E+01 0.  1.
         11    1    6    6    0    0  0.65335321314E+02 -0.41429946522E+00 -0.34197093445E+02  0.73744945965E+02  0.00000000000E+00 0. -1.
        -12    1    6    6    0    0  0.12426766337E+02 -0.14219339537E+02  0.38186577458E+02  0.42600807932E+02  0.00000000000E+00 0.  1.
</event>
<event>
12    1  0.8461994E-002  0.1870985E+03  0.7818608E-02  0.1162000E+00
         21   -1    0    0  501  502  0.00000000000E+00  0.00000000000E+00  0.12649007763E+04  0.12649007763E+04  0.00000000000E+00 0.  1.
         21   -1    0    0  502  503 -0.00000000000E+00 -0.00000000000E+00 -0.22729071006E+03  0.22729071006E+03  0.00000000000E+00 0.  1.
         -6    2    1    2    0  503  0.55783090758E+02  0.29570842794E+02 -0.18202484340E+03  0.25828907192E+03  0.17202910539E+03 0.  0.
        -24    2    3    3    0    0 -0.65057825370E+01 -0.51027717459E+01 -0.24017416643E+02  0.84880305731E+02  0.80990533477E+02 0.  0.
          6    2    1    2  501    0 -0.55783090758E+02 -0.29570842794E+02  0.12196349097E+04  0.12339024145E+04  0.17612401196E+03 0.  0.
         24    2    5    5    0    0 -0.38414597238E+02 -0.28905782113E+02  0.30256715521E+03  0.31665791972E+03  0.80088258756E+02 0.  0.
          5    1    5    5  501    0 -0.17368493520E+02 -0.66506068091E+00  0.91706775445E+03  0.91724449474E+03  0.47000000000E+01 0. -1.
        -13    1    6    6    0    0 -0.19516675852E+02 -0.46911071646E+02  0.27088189094E+03  0.27560578390E+03  0.00000000000E+00 0.  1.
         14    1    6    6    0    0 -0.18897921386E+02  0.18005289533E+02  0.31685264274E+02  0.41052135828E+02  0.00000000000E+00 0. -1.
         -5    1    3    3    0  503  0.62288873295E+02  0.34673614540E+02 -0.15800742676E+03  0.17340876619E+03  0.47000000000E+01 0.  1.
         13    1    4    4    0    0 -0.20148442267E+02  0.24273396345E+02  0.14360819222E+02  0.34661082277E+02  0.00000000000E+00 0. -1.
        -14    1    4    4    0    0  0.13642659730E+02 -0.29376168091E+02 -0.38378235865E+02  0.50219223454E+02  0.00000000000E+00 0.  1.
</event>
<event>
12    1  0.8461994E-002  0.1788775E+03  0.7818608E-02  0.1170021E+00
         21   -1    0    0  503  502  0.00000000000E+00  0.00000000000E+00  0.80028385176E+02  0.80028385176E+02  0.00000000000E+00 0. -1.
         21   -1    0    0  501  503 -0.00000000000E+00 -0.00000000000E+00 -0.77338779108E+03  0.77338779108E+03  0.00000000000E+00 0. -1.
          6    2    1    2  501    0  0.26926616201E+02 -0.16712440843E+02 -0.64496551839E+03  0.66810796040E+03  0.17141580584E+03 0.  0.
         24    2    3    3    0    0  0.30218671672E+01  0.37634711063E+02 -0.20690317702E+03  0.22601548718E+03  0.82756103256E+02 0.  0.
         -6    2    1    2    0  502 -0.26926616201E+02  0.16712440843E+02 -0.48393887513E+02  0.18530821586E+03  0.17604777243E+03 0.  0.
        -24    2    5    5    0    0  0.49622090552E+02 -0.32498395248E+02 -0.22854683276E+02  0.90673381642E+02  0.64659322810E+02 0.  0.
          5    1    3    3  501    0  0.23904749034E+02 -0.54347151907E+02 -0.43806234137E+03  0.44209247321E+03  0.47000000000E+01 0. -1.
        -11    1    4    4    0    0 -0.20014960472E+02 -0.16163241668E+02 -0.29163594488E+02  0.38889127881E+02  0.00000000000E+00 0.  1.
         12    1    4    4    0    0  0.23036827639E+02  0.53797952731E+02 -0.17773958254E+03  0.18712635930E+03  0.00000000000E+00 0. -1.
         -5    1    5    5    0  502 -0.76548706753E+02  0.49210836091E+02 -0.25539204237E+02  0.94634834218E+02  0.47000000000E+01 0.  1.
         11    1    6    6    0    0 -0.65491909713E+01 -0.22237363395E+02  0.94889464686E+01  0.25048599526E+02  0.00000000000E+00 0. -1.
        -12    1    6    6    0    0  0.56171281524E+02 -0.10261031853E+02 -0.32343629745E+02  0.65624782116E+02  0.00000000000E+00 0.  1.
</event>
<event>
12    1  0.8461994E-002  0.1962040E+03  0.7818608E-02  0.1153220E+00
         21   -1    0    0  501  502  0.00000000000E+00  0.00000000000E+00  0.16354193282E+03  0.16354193282E+03  0.00000000000E+00 0. -1.
         21   -1    0    0  502  503 -0.00000000000E+00 -0.00000000000E+00 -0.24565913098E+03  0.24565913098E+03  0.00000000000E+00 0. -1.
         -6    2    1    2    0  503 -0.28517541637E+02  0.87644967852E+02  0.34838894273E+01  0.19513669110E+03  0.17196307789E+03 0.  0.
        -24    2    3    3    0    0  0.34006895849E+02  0.83195418817E+02 -0.34425843462E+02  0.12173136693E+03  0.74534826209E+02 0.  0.
          6    2    1    2  501    0  0.28517541637E+02 -0.87644967852E+02 -0.85601087583E+02  0.21406437270E+03  0.17320831069E+03 0.  0.
         24    2    5    5    0    0  0.41045545082E+02 -0.25030184458E+01  0.44931315204E+01  0.89384138761E+02  0.79235939818E+02 0.  0.
          5    1    5    5  501    0 -0.12528003445E+02 -0.85141949406E+02 -0.90094219104E+02  0.12468023394E+03  0.47000000000E+01 0. -1.
        -13    1    6    6    0    0  0.16927508960E+02  0.34553167354E+02 -0.14693585948E+02  0.41186932415E+02  0.00000000000E+00 0.  1.
         14    1    6    6    0    0  0.24118036122E+02 -0.37056185799E+02  0.19186717468E+02  0.48197206346E+02  0.00000000000E+00 0. -1.
         -5    1    3    3    0  503 -0.62524437486E+02  0.44495490347E+01  0.37909732889E+02  0.73405324175E+02  0.47000000000E+01 0.  1.
         11    1    4    4    0    0  0.23573104540E+02 -0.37208968671E+01 -0.23532455836E+02  0.33515859065E+02  0.00000000000E+00 0. -1.
        -12    1    4    4    0    0  0.10433791309E+02  0.86916315684E+02 -0.10893387626E+02  0.88215507861E+02  0.00000000000E+00 0.  1.
</event>
<event>
12    1  0.8461994E-002  0.1775870E+03  0.7818608E-02  0.1170532E+00
         21   -1    0    0  501  502  0.00000000000E+00  0.00000000000E+00  0.11616971466E+04  0.11616971466E+04  0.00000000000E+00 0.  1.
         21   -1    0    0  502  503 -0.00000000000E+00 -0.00000000000E+00 -0.60972207114E+02  0.60972207114E+02  0.00000000000E+00 0.  1.
         -6    2    1    2    0  503 -0.34030557756E+02 -0.14562198756E+02  0.94521090008E+02  0.20117499958E+03  0.17368652079E+03 0.  0.
        -24    2    3    3    0    0 -0.78809490504E+01 -0.97274145625E+01 -0.30913769341E+02  0.72866110120E+02  0.64784850985E+02 0.  0.
          6    2    1    2  501    0  0.34030557756E+02  0.14562198756E+02  0.10062038495E+04  0.10214943541E+04  0.17214642702E+03 0.  0.
         24    2    5    5    0    0  0.30269895548E+02  0.22350205336E+02  0.10077060734E+04  0.10115373313E+04  0.79501220798E+02 0.  0.
          5    1    5    5  501    0  0.37606622084E+01 -0.77880065802E+01 -0.15022238861E+01  0.99570228152E+01  0.47000000000E+01 0. -1.
        -11    1    6    6    0    0  0.43601373137E+02  0.44365662585E+02  0.72098316026E+03  0.72366159849E+03  0.00000000000E+00 0.  1.
         12    1    6    6    0    0 -0.13331477589E+02 -0.22015457249E+02  0.28672291311E+03  0.28787573283E+03  0.00000000000E+00 0. -1.
         -5    1    3    3    0  503 -0.26149608706E+02 -0.48347841936E+01  0.12543485935E+03  0.12830888946E+03  0.47000000000E+01 0.  1.
         11    1    4    4    0    0  0.15274920286E+02  0.21323969785E+02 -0.18833071630E+02  0.32291166968E+02  0.00000000000E+00 0. -1.
        -12    1    4    4    0    0 -0.23155869337E+02 -0.31051384347E+02 -0.12080697711E+02  0.40574943152E+02  0.00000000000E+00 0.  1.
</event>
<event>
12    1  0.8461994E-002  0.2144804E+03  0.7818608E-02  0.1138124E+00
         21   -1    0    0  501  502  0.00000000000E+00  0.00000000000E+00  0.18834800194E+03  0.18834800194E+03  0.00000000000E+00 0.  1.
         21   -1    0    0  502  503 -0.00000000000E+00 -0.00000000000E+00 -0.25334219700E+03  0.25334219700E+03  0.00000000000E+00 0. -1.
         -6    2    1    2    0  503  0.47755420040E+02  0.11902200171E+03 -0.75112730604E+02  0.22697126263E+03  0.17154362339E+03 0.  0.
        -24    2    3    3    0    0  0.40406840165E+02  0.10740676548E+03 -0.11777688175E+03  0.18190203663E+03  0.77769088021E+02 0.  0.
          6    2    1    2  501    0 -0.47755420040E+02 -0.11902200171E+03  0.10118535543E+02  0.21471893631E+03  0.17191573463E+03 0.  0.
         24    2    5    5    0    0 -0.16638147850E+02 -0.10601833457E+02  0.48341594276E+02  0.95528711325E+02  0.79997488171E+02 0.  0.
          5    1    5    5  501    0 -0.31117272190E+02 -0.10842016826E+03 -0.38223058733E+02  0.11919022499E+03  0.47000000000E+01 0. -1.
        -11    1    6    6    0    0 -0.47557780200E+02 -0.17121419662E+02  0.26101258129E+02  0.56887266982E+02  0.00000000000E+00 0.  1.
         12    1    6    6    0    0  0.30919632350E+02  0.65195862053E+01  0.22240336147E+02  0.38641444342E+02  0.00000000000E+00 0. -1.
         -5    1    3    3    0  503  0.73485798753E+01  0.11615236236E+02  0.42664151148E+02  0.45069226000E+02  0.47000000000E+01 0.  1.
         11    1    4    4    0    0 -0.15449172970E+02 -0.19532747010E+01 -0.16912639228E+02  0.22989771490E+02  0.00000000000E+00 0. -1.
        -12    1    4    4    0    0  0.55856013135E+02  0.10936004018E+03 -0.10086424252E+03  0.15891226514E+03  0.00000000000E+00 0.  1.
</event>
<event>
12    1  0.8461994E-002  0.4528880E+03  0.7818608E-02  0.1026938E+00
         21   -1    0    0  501  502  0.00000000000E+00  0.00000000000E+00  0.10437972797E+04  0.10437972797E+04  0.00000000000E+00 0. -1.
         21   -1    0    0  502  503 -0.00000000000E+00 -0.00000000000E+00 -0.30065529407E+03  0.30065529407E+03  0.00000000000E+00 0. -1.
         -6    2    1    2    0  503  0.15972374264E+03 -0.38635665992E+03 -0.25172172994E+02  0.45259261300E+03  0.17153219063E+03 0.  0.
        -24    2    3    3    0    0  0.16754902657E+03 -0.28842502698E+03  0.23270371064E+02  0.34295407108E+03  0.76251637422E+02 0.  0.
          6    2    1    2  501    0 -0.15972374264E+03  0.38635665992E+03  0.76831415859E+03  0.89185996073E+03  0.17413902676E+03 0.  0.
         24    2    5    5    0    0 -0.25403445090E+02  0.77855849031E+02  0.23954108910E+03  0.26509226718E+03  0.78658175069E+02 0.  0.
          5    1    5    5  501    0 -0.13432029755E+03  0.30850081089E+03  0.52877306950E+03  0.62676769355E+03  0.47000000000E+01 0. -1.
        -13    1    6    6    0    0 -0.27313953500E+01 -0.10889940847E+02  0.32792722888E+01  0.11696365202E+02  0.00000000000E+00 0.  1.
         14    1    6    6    0    0 -0.22672049740E+02  0.88745789877E+02  0.23626181681E+03  0.25339590198E+03  0.00000000000E+00 0. -1.
         -5    1    3    3    0  503 -0.78252839350E+01 -0.97931632945E+02 -0.48442544058E+02  0.10963854192E+03  0.47000000000E+01 0.  1.
         13    1    4    4    0    0  0.14013347670E+03 -0.18596385065E+03 -0.59819940585E+01  0.23292859269E+03  0.00000000000E+00 0. -1.
        -14    1    4    4    0    0  0.27415549869E+02 -0.10246117633E+03  0.29252365122E+02  0.11002547839E+03  0.00000000000E+00 0.  1.
</event>
<event>
12    1  0.8461994E-002  0.1871066E+03  0.7818608E-02  0.1161687E+00
         21   -1    0    0  503  502  0.00000000000E+00  0.00000000000E+00  0.67379883247E+02  0.67379883247E+02  0.00000000000E+00 0.  1.
         21   -1    0    0  501  503 -0.00000000000E+00 -0.00000000000E+00 -0.59285049508E+03  0.59285049508E+03  0.00000000000E+00 0. -1.
          6    2    1    2  501    0 -0.12248450212E+01  0.67270776191E+02 -0.14278495420E+03  0.23536442100E+03  0.17459097902E+03 0.  0.
         24    2    3    3    0    0 -0.49802221592E+02  0.20971718302E+02 -0.23480927536E+02  0.98401268829E+02  0.78812318233E+02 0.  0.
         -6    2    1    2    0  502  0.12248450212E+01 -0.67270776191E+02 -0.38268565764E+03  0.42486595733E+03  0.17186015116E+03 0.  0.
        -24    2    5    5    0    0 -0.37534426490E+02 -0.66024552206E+02 -0.36720905369E+03  0.38284870525E+03  0.77217662049E+02 0.  0.
          5    1    3    3  501    0  0.48577376570E+02  0.46299057889E+02 -0.11930402666E+03  0.13696315217E+03  0.47000000000E+01 0. -1.
        -11    1    4    4    0    0  0.13876205436E+00  0.11530327096E+02  0.25393613156E+02  0.27889124887E+02  0.00000000000E+00 0.  1.
         12    1    4    4    0    0 -0.49940983646E+02  0.94413912061E+01 -0.48874540692E+02  0.70512143942E+02  0.00000000000E+00 0. -1.
         -5    1    5    5    0  502  0.38759271511E+02 -0.12462239854E+01 -0.15476603947E+02  0.42017252076E+02  0.47000000000E+01 0.  1.
         13    1    6    6    0    0 -0.31951569950E+02 -0.65834252747E+02 -0.16426529258E+03  0.17982807901E+03  0.00000000000E+00 0. -1.
        -14    1    6    6    0    0 -0.55828565401E+01 -0.19029945872E+00 -0.20294376112E+03  0.20302062623E+03  0.00000000000E+00 0.  1.
</event>
<event>
12    1  0.8461994E-002  0.2262999E+03  0.7818608E-02  0.1129776E+00
         21   -1    0    0  501  502  0.00000000000E+00  0.00000000000E+00  0.25981386162E+03  0.25981386162E+03  0.00000000000E+00 0. -1.
         21   -1    0    0  502  503 -0.00000000000E+00 -0.00000000000E+00 -0.24008882793E+03  0.24008882793E+03  0.00000000000E+00 0.  1.
         -6    2    1    2    0  503 -0.13327315499E+03 -0.61039636674E+02 -0.98782312664E+02  0.24692024003E+03  0.17240675322E+03 0.  0.
        -24    2    3    3    0    0 -0.14504867187E+03 -0.89560447401E+02 -0.64115612350E+02  0.20027295123E+03  0.83296172154E+02 0.  0.
          6    2    1    2  501    0  0.13327315499E+03  0.61039636674E+02  0.11850734636E+03  0.25298244952E+03  0.16872627993E+03 0.  0.
         24    2    5    5    0    0  0.88225471820E+02  0.22958740061E+02 -0.34023753711E+00  0.12021842336E+03  0.78367824582E+02 0.  0.
          5    1    5    5  501    0  0.45047683174E+02  0.38080896612E+02  0.11884758389E+03  0.13276402617E+03  0.47000000000E+01 0. -1.
        -13    1    6    6    0    0  0.33887383697E+02  0.48639998939E+02 -0.72453475968E+01  0.59721849708E+02  0.00000000000E+00 0.  1.
         14    1    6    6    0    0  0.54338088122E+02 -0.25681258878E+02  0.69051100597E+01  0.60496573649E+02  0.00000000000E+00 0. -1.
         -5    1    3    3    0  503  0.11775516877E+02  0.28520810728E+02 -0.34666700314E+02  0.46647288806E+02  0.47000000000E+01 0.  1.
         13    1    4    4    0    0 -0.15317386983E+02 -0.52342642188E+02 -0.14016989947E+02  0.56310305827E+02  0.00000000000E+00 0. -1.
        -14    1    4    4    0    0 -0.12973128489E+03 -0.37217805214E+02 -0.50098622403E+02  0.14396264540E+03  0.00000000000E+00 0.  1.
</event>
<event>
12    1  0.8461994E-002  0.2604263E+03  0.7818608E-02  0.1107252E+00
         21   -1    0    0  501  502  0.00000000000E+00  0.00000000000E+00  0.12030280737E+03  0.12030280737E+03  0.00000000000E+00 0.  1.
         21   -1    0    0  502  503 -0.00000000000E+00 -0.00000000000E+00 -0.56854595121E+03  0.56854595121E+03  0.00000000000E+00 0. -1.
         -6    2    1    2    0  503  0.18245081463E+03  0.60341298762E+02 -0.17942988194E+03  0.31625453219E+03  0.17576255148E+03 0.  0.
        -24    2    3    3    0    0  0.26038625054E+02 -0.96730985727E+01 -0.25263189694E+02  0.85698144556E+02  0.77034825866E+02 0.  0.
          6    2    1    2  501    0 -0.18245081463E+03 -0.60341298762E+02 -0.26881326190E+03  0.37259422639E+03  0.17215259415E+03 0.  0.
         24    2    5    5    0    0 -0.61695893354E+02 -0.24815256185E+02 -0.38239530180E+02  0.10985826297E+03  0.78640931321E+02 0.  0.
          5    1    5    5  501    0 -0.12075492127E+03 -0.35526042577E+02 -0.23057373172E+03  0.26273596342E+03  0.47000000000E+01 0. -1.
        -11    1    6    6    0    0 -0.53808239229E+02  0.15663994011E+02 -0.38730775706E+01  0.56175511098E+02  0.00000000000E+00 0.  1.
         12    1    6    6    0    0 -0.78876541252E+01 -0.40479250196E+02 -0.34366452609E+02  0.53682751875E+02  0.00000000000E+00 0. -1.
         -5    1    3    3    0  503  0.15641218957E+03  0.70014397334E+02 -0.15416669225E+03  0.23055638764E+03  0.47000000000E+01 0.  1.
         13    1    4    4    0    0 -0.19068486760E+01 -0.17509696521E+02 -0.46507066901E+02  0.49730602408E+02  0.00000000000E+00 0. -1.
        -14    1    4    4    0    0  0.27945473730E+02  0.78365979483E+01  0.21243877207E+02  0.35967542148E+02  0.00000000000E+00 0.  1.
</event>
<event>
12    1  0.8461994E-002  0.2214850E+03  0.7818608E-02  0.1133084E+00
         21   -1    0    0  503  502  0.00000000000E+00  0.00000000000E+00  0.51144775207E+03  0.51144775207E+03  0.00000000000E+00 0.  1.
         21   -1    0    0  501  503 -0.00000000000E+00 -0.00000000000E+00 -0.11806193190E+03  0.11806193190E+03  0.00000000000E+00 0.  1.
          6    2    1    2  501    0  0.81635098931E+02 -0.11155463054E+03  0.58798004842E+02  0.22915675254E+03  0.17305168849E+03 0.  0.
         24    2    3    3    0    0  0.10908087021E+03 -0.44286537978E+02  0.63667171941E+02  0.15619055882E+03  0.80511168091E+02 0.  0.
         -6    2    1    2    0  502 -0.81635098931E+02  0.11155463054E+03  0.33458781534E+03  0.40035293143E+03  0.17095244533E+03 0.  0.
        -24    2    5    5    0    0 -0.35767208631E+02  0.10512785573E+03  0.12259636927E+03  0.18331000941E+03  0.79003357702E+02 0.  0.
          5    1    3    3  501    0 -0.27445771283E+02 -0.67268092559E+02 -0.48691670992E+01  0.72966193721E+02  0.47000000000E+01 0. -1.
        -13    1    4    4    0    0  0.41299318782E+02 -0.60030240857E+02  0.28701499332E+02  0.78313725573E+02  0.00000000000E+00 0.  1.
         14    1    4    4    0    0  0.67781551432E+02  0.15743702879E+02  0.34965672608E+02  0.77876833242E+02  0.00000000000E+00 0. -1.
         -5    1    5    5    0  502 -0.45867890300E+02  0.64267748081E+01  0.21199144607E+03  0.21704292202E+03  0.47000000000E+01 0.  1.
         11    1    6    6    0    0  0.24523531647E+02  0.43689812791E+02  0.48525032051E+02  0.69748706667E+02  0.00000000000E+00 0. -1.
        -12    1    6    6    0    0 -0.60290740278E+02  0.61438042938E+02  0.74071337220E+02  0.11356130274E+03  0.00000000000E+00 0.  1.
</event>
<event>
12    1  0.8461994E-002  0.1771638E+03  0.7818608E-02  0.1170829E+00
         21   -1    0    0  503  502  0.00000000000E+00  0.00000000000E+00  0.10561008816E+03  0.10561008816E+03  0.00000000000E+00 0. -1.
         21   -1    0    0  501  503 -0.00000000000E+00 -0.00000000000E+00 -0.42453575939E+03  0.42453575939E+03  0.00000000000E+00 0. -1.
          6    2    1    2  501    0 -0.38251027921E+02  0.88603549674E+01 -0.30592672018E+03  0.35352252658E+03  0.17275813051E+03 0.  0.
         24    2    3    3    0    0 -0.84023771140E+02  0.46742168400E+00 -0.11102136611E+03  0.15308357729E+03  0.63628808750E+02 0.  0.
         -6    2    1    2    0  502  0.38251027921E+02 -0.88603549674E+01 -0.12998951057E+02  0.17662332096E+03  0.17171248572E+03 0.  0.
        -24    2    5    5    0    0  0.86432389332E+02  0.18144595566E+02 -0.24785294695E+02  0.11995129226E+03  0.77293061836E+02 0.  0.
          5    1    3    3  501    0  0.45772743218E+02  0.83929332834E+01 -0.19490535406E+03  0.20043894929E+03  0.47000000000E+01 0. -1.
        -11    1    4    4    0    0 -0.55897504264E+02  0.29795069249E+02 -0.55076770304E+02  0.83938833454E+02  0.00000000000E+00 0.  1.
         12    1    4    4    0    0 -0.28126266875E+02 -0.29327647565E+02 -0.55944595809E+02  0.69144743837E+02  0.00000000000E+00 0. -1.
         -5    1    5    5    0  502 -0.48181361411E+02 -0.27004950534E+02  0.11786343638E+02  0.56672028701E+02  0.47000000000E+01 0.  1.
         13    1    6    6    0    0  0.69145303868E+02  0.79761628339E+01 -0.51472086408E+02  0.86568284607E+02  0.00000000000E+00 0. -1.
        -14    1    6    6    0    0  0.17287085464E+02  0.10168432733E+02  0.26686791713E+02  0.33383007654E+02  0.00000000000E+00 0.  1.
</event>
<event>
12    1  0.8461994E-002  0.1914021E+03  0.7818608E-02  0.1157280E+00
         21   -1    0    0  503  502  0.00000000000E+00  0.00000000000E+00  0.63216253987E+02  0.63216253987E+02  0.00000000000E+00 0. -1.
         21   -1    0    0  501  503 -0.00000000000E+00 -0.00000000000E+00 -0.63178273908E+03  0.63178273908E+03  0.00000000000E+00 0. -1.
          6    2    1    2  501    0 -0.61888786509E+02  0.54175581448E+02 -0.18357441150E+03  0.26520617210E+03  0.17282804646E+03 0.  0.
         24    2    3    3    0    0 -0.60472598523E+02 -0.18461115825E+02 -0.15795458441E+03  0.18802741259E+03  0.80043170727E+02 0.  0.
         -6    2    1    2    0  502  0.61888786509E+02 -0.54175581448E+02 -0.38499207359E+03  0.42979282097E+03  0.17244638792E+03 0.  0.
        -24    2    5    5    0    0  0.30484518366E+02 -0.87759610773E+02 -0.35237414160E+03  0.37322308903E+03  0.80603246710E+02 0.  0.
          5    1    3    3  501    0 -0.14161879856E+01  0.72636697272E+02 -0.25619827090E+02  0.77178759508E+02  0.47000000000E+01 0. -1.
        -13    1    4    4    0    0 -0.70447849345E+02 -0.37827815936E+02 -0.12938601802E+03  0.15210057460E+03  0.00000000000E+00 0.  1.
         14    1    4    4    0    0  0.99752508217E+01  0.19366700112E+02 -0.28568566394E+02  0.35926837990E+02  0.00000000000E+00 0. -1.
         -5    1    5    5    0  502  0.31404268143E+02  0.33584029325E+02 -0.32617931997E+02  0.56569731933E+02  0.47000000000E+01 0.  1.
         13    1    6    6    0    0 -0.14241570052E+02 -0.38401582700E+00 -0.10948574024E+02  0.17967778351E+02  0.00000000000E+00 0. -1.
        -14    1    6    6    0    0  0.44726088418E+02 -0.87375594946E+02 -0.34142556757E+03  0.35525531068E+03  0.00000000000E+00 0.  1.
</event>
<event>
12    1  0.8461994E-002  0.2075018E+03  0.7818608E-02  0.1143642E+00
         21   -1    0    0  501  502  0.00000000000E+00  0.00000000000E+00  0.27549574664E+03  0.27549574664E+03  0.00000000000E+00 0. -1.
         21   -1    0    0  502  503 -0.00000000000E+00 -0.00000000000E+00 -0.20022654530E+03  0.20022654530E+03  0.00000000000E+00 0. -1.
         -6    2    1    2    0  503 -0.11484213628E+02 -0.11536843543E+03  0.14941804983E+03  0.25537021925E+03  0.17159962765E+03 0.  0.
        -24    2    3    3    0    0  0.35710836771E+02 -0.32733010391E+02  0.11856349022E+03  0.15521993167E+03  0.87688152808E+02 0.  0.
          6    2    1    2  501    0  0.11484213628E+02  0.11536843543E+03 -0.74148848487E+02  0.22035207269E+03  0.17209073522E+03 0.  0.
         24    2    5    5    0    0  0.66540738421E+02  0.92063741085E+02 -0.79474592750E+02  0.16014589981E+03  0.80169171384E+02 0.  0.
          5    1    5    5  501    0 -0.55056524793E+02  0.23304694343E+02  0.53257442636E+01  0.60206172878E+02  0.47000000000E+01 0. -1.
        -11    1    6    6    0    0  0.24959652474E+02  0.40490711956E+02 -0.80940327282E+02  0.93881939620E+02  0.00000000000E+00 0.  1.
         12    1    6    6    0    0  0.41581085947E+02  0.51573029129E+02  0.14657345317E+01  0.66263960188E+02  0.00000000000E+00 0. -1.
         -5    1    3    3    0  503 -0.47195050400E+02 -0.82635425037E+02  0.30854559614E+02  0.10015028758E+03  0.47000000000E+01 0.  1.
         13    1    4    4    0    0  0.48966106772E+02 -0.55334815779E+02  0.90340115147E+02  0.11670885937E+03  0.00000000000E+00 0. -1.
        -14    1    4    4    0    0 -0.13255270001E+02  0.22601805388E+02  0.28223375070E+02  0.38511072303E+02  0.00000000000E+00 0.  1.
</event>
<event>
12    1  0.8461994E-002  0.1820269E+03  0.7818608E-02  0.1166891E+00
         21   -1    0    0  501  502  0.00000000000E+00  0.00000000000E+00  0.81939084877E+02  0.81939084877E+02  0.00000000000E+00 0. -1.
         21   -1    0    0  502  503 -0.00000000000E+00 -0.00000000000E+00 -0.39498152730E+03  0.39498152730E+03  0.00000000000E+00 0. -1.
         -6    2    1    2    0  503  0.56056422511E+02  0.14250302147E+02 -0.15801817968E+03  0.23782581967E+03  0.16806540922E+03 0.  0.
        -24    2    3    3    0    0  0.53085904725E+02  0.62415376237E+02 -0.15064896734E+03  0.18878406574E+03  0.78933640774E+02 0.  0.
          6    2    1    2  501    0 -0.56056422511E+02 -0.14250302147E+02 -0.15502426274E+03  0.23909479250E+03  0.17259317526E+03 0.  0.
         24    2    5    5    0    0 -0.73894781944E+02 -0.28123753210E+02 -0.39631028777E+02  0.12141570279E+03  0.83185155819E+02 0.  0.
          5    1    5    5  501    0  0.17838359433E+02  0.13873451062E+02 -0.11539323396E+03  0.11767908971E+03  0.47000000000E+01 0. -1.
        -11    1    6    6    0    0 -0.19445128982E+02 -0.51806830184E+02 -0.17282236153E+02  0.57971858529E+02  0.00000000000E+00 0.  1.
         12    1    6    6    0    0 -0.54449652963E+02  0.23683076975E+02 -0.22348792623E+02  0.63443844260E+02  0.00000000000E+00 0. -1.
         -5    1    3    3    0  503  0.29705177855E+01 -0.48165074090E+02 -0.73692123415E+01  0.49041753930E+02  0.47000000000E+01 0.  1.
         11    1    4    4    0    0  0.35339851418E+02  0.19866083852E+02 -0.11416648227E+02  0.42117766354E+02  0.00000000000E+00 0. -1.
        -12    1    4    4    0    0  0.17746053307E+02  0.42549292385E+02 -0.13923231911E+03  0.14666629939E+03  0.00000000000E+00 0.  1.
</event>
<event>
12    1  0.8461994E-002  0.2094723E+03  0.7818608E-02  0.1142084E+00
         21   -1    0    0  501  502  0.00000000000E+00  0.00000000000E+00  0.40805033509E+03  0.40805033509E+03  0.00000000000E+00 0.  1.
         21   -1    0    0  502  503 -0.00000000000E+00 -0.00000000000E+00 -0.10849447296E+03  0.10849447296E+03  0.00000000000E+00 0. -1.
         -6    2    1    2    0  503 -0.10367701228E+03 -0.59754493014E+02  0.17696249967E+03  0.27383559953E+03  0.17132042193E+03 0.  0.
        -24    2    3    3    0    0 -0.76517588085E+02 -0.10292226090E+03  0.96935867999E+02  0.17882274628E+03  0.78313977088E+02 0.  0.
          6    2    1    2  501    0  0.10367701228E+03  0.59754493014E+02  0.12259336246E+03  0.24270920852E+03  0.17192761578E+03 0.  0.
         24    2    5    5    0    0  0.95455782587E+01  0.77226223757E+02  0.78625928536E+02  0.13725204427E+03  0.81247026513E+02 0.  0.
          5    1    5    5  501    0  0.94131434017E+02 -0.17471730743E+02  0.43967433929E+02  0.10545716425E+03  0.47000000000E+01 0. -1.
        -11    1    6    6    0    0 -0.28166754543E+02  0.51688868992E+01  0.34107485530E+02  0.44535424355E+02  0.00000000000E+00 0.  1.
         12    1    6    6    0    0  0.37712332801E+02  0.72057336858E+02  0.44518443005E+02  0.92716619912E+02  0.00000000000E+00 0. -1.
         -5    1    3    3    0  503 -0.27159424191E+02  0.43167767883E+02  0.80026631669E+02  0.95012853250E+02  0.47000000000E+01 0.  1.
         11    1    4    4    0    0 -0.51862231828E+01 -0.53216127067E+02  0.73262341707E+01  0.53967831141E+02  0.00000000000E+00 0. -1.
        -12    1    4    4    0    0 -0.71331364902E+02 -0.49706133829E+02  0.89609633829E+02  0.12485491514E+03  0.00000000000E+00 0.  1.
</event>
<event>
12    1  0.8461994E-002  0.1778502E+03  0.7818608E-02  0.1170031E+00
         21   -1    0    0  503  502  0.00000000000E+00  0.00000000000E+00  0.17473756598E+03  0.17473756598E+03  0.00000000000E+00 0. -1.
         21   -1    0    0  501  503 -0.00000000000E+00 -0.00000000000E+00 -0.21347323458E+03  0.21347323458E+03  0.00000000000E+00 0. -1.
          6    2    1    2  501    0 -0.47851729492E+01 -0.43377977270E+02 -0.95656267795E+02  0.20147393404E+03  0.17186354394E+03 0.  0.
         24    2    3    3    0    0 -0.46318235701E+02 -0.58167317609E+02 -0.10799601825E+03  0.15545133817E+03  0.83505465592E+02 0.  0.
         -6    2    1    2    0  502  0.47851729492E+01  0.43377977270E+02  0.56920599190E+02  0.18673686652E+03  0.17241274870E+03 0.  0.
        -24    2    5    5    0    0  0.16636671340E+02  0.22260080711E+02  0.10271034390E+03  0.13472519196E+03  0.82638807945E+02 0.  0.
          5    1    3    3  501    0  0.41533062752E+02  0.14789340339E+02  0.12339750456E+02  0.46022595869E+02  0.47000000000E+01 0. -1.
        -11    1    4    4    0    0  0.23522435387E+02 -0.13414548224E+02 -0.15466064312E+02  0.31184198177E+02  0.00000000000E+00 0.  1.
         12    1    4    4    0    0 -0.69840671088E+02 -0.44752769385E+02 -0.92529953938E+02  0.12426713999E+03  0.00000000000E+00 0. -1.
         -5    1    5    5    0  502 -0.11851498391E+02  0.21117896558E+02 -0.45789744713E+02  0.52011674555E+02  0.47000000000E+01 0.  1.
         11    1    6    6    0    0 -0.61020064426E+01  0.26033367898E+01  0.10440945587E+03  0.10462000918E+03  0.00000000000E+00 0. -1.
        -12    1    6    6    0    0  0.22738677783E+02  0.19656743921E+02 -0.16991119715E+01  0.30105182783E+02  0.00000000000E+00 0.  1.
</event>
<event>
12    1  0.8461994E-002  0.3103710E+03  0.7818608E-02  0.1080198E+00
         21   -1    0    0  501  502  0.00000000000E+00  0.00000000000E+00  0.32742237735E+03  0.32742237735E+03  0.00000000000E+00 0. -1.
         21   -1    0    0  502  503 -0.00000000000E+00 -0.00000000000E+00 -0.31667478766E+03  0.31667478766E+03  0.00000000000E+00 0.  1.
         -6    2    1    2    0  503  0.14648387512E+03 -0.21268538114E+03  0.91604861882E+02  0.32336665564E+03  0.17170307580E+03 0.  0.
        -24    2    3    3    0    0  0.54714142222E+02 -0.54128653866E+02  0.80848284970E+02  0.13979183823E+03  0.84153219336E+02 0.  0.
          6    2    1    2  501    0 -0.14648387512E+03  0.21268538114E+03 -0.80857272190E+02  0.32073050936E+03  0.17215563931E+03 0.  0.
         24    2    5    5    0    0 -0.44580379445E+02  0.46372368544E+02 -0.72041061659E+02  0.12542521973E+03  0.80023523934E+02 0.  0.
          5    1    5    5  501    0 -0.10190349568E+03  0.16631301260E+03 -0.88162105311E+01  0.19530528963E+03  0.47000000000E+01 0. -1.
        -11    1    6    6    0    0 -0.31109799321E+00  0.28372988257E+02 -0.72265104472E+02  0.77636129275E+02  0.00000000000E+00 0.  1.
         12    1    6    6    0    0 -0.44269281452E+02  0.17999380287E+02  0.22404281297E+00  0.47789090452E+02  0.00000000000E+00 0. -1.
         -5    1    3    3    0  503  0.91769732901E+02 -0.15855672728E+03  0.10756576912E+02  0.18357481741E+03  0.47000000000E+01 0.  1.
         13    1    4    4    0    0 -0.13085829153E+02 -0.41360823501E+02  0.19873571942E+02  0.47717035816E+02  0.00000000000E+00 0. -1.
        -14    1    4    4    0    0  0.67799971375E+02 -0.12767830365E+02  0.60974713028E+02  0.92074802414E+02  0.00000000000E+00 0.  1.
</event>
<event>
12    1  0.8461994E-002  0.1759159E+03  0.7818608E-02  0.1171976E+00
         21   -1    0    0  501  502  0.00000000000E+00  0.00000000000E+00  0.12363001734E+03  0.12363001734E+03  0.00000000000E+00 0.  1.
         21   -1    0    0  502  503 -0.00000000000E+00 -0.00000000000E+00 -0.54914353275E+03  0.54914353275E+03  0.00000000000E+00 0.  1.
         -6    2    1    2    0  503  0.61939473954E+01  0.34378007818E+02 -0.46146074625E+03  0.49385467086E+03  0.17241288582E+03 0.  0.
        -24    2    3    3    0    0  0.20926963050E+02  0.53983465071E+01 -0.13600376289E+03  0.16674426055E+03  0.94018854372E+02 0.  0.
          6    2    1    2  501    0 -0.61939473954E+01 -0.34378007818E+02  0.35947230844E+02  0.17891887923E+03  0.17175432901E+03 0.  0.
         24    2    5    5    0    0  0.58808976986E+02 -0.42550524352E+02  0.18217447058E+02  0.11088502414E+03  0.81820353859E+02 0.  0.
          5    1    5    5  501    0 -0.65002924381E+02  0.81725165348E+01  0.17729783786E+02  0.68033855085E+02  0.47000000000E+01 0. -1.
        -13    1    6    6    0    0  0.29600996058E+02 -0.21345209017E+02  0.50604260308E+02  0.62390929444E+02  0.00000000000E+00 0.  1.
         14    1    6    6    0    0  0.29207980928E+02 -0.21205315335E+02 -0.32386813250E+02  0.48494094701E+02  0.00000000000E+00 0. -1.
         -5    1    3    3    0  503 -0.14733015655E+02  0.28979661310E+02 -0.32545698336E+03  0.32711041031E+03  0.47000000000E+01 0.  1.
         11    1    4    4    0    0 -0.30575923321E+02 -0.22119700734E+02 -0.60317451715E+02  0.71150286218E+02  0.00000000000E+00 0. -1.
        -12    1    4    4    0    0  0.51502886372E+02  0.27518047241E+02 -0.75686311176E+02  0.95593974329E+02  0.00000000000E+00 0.  1.
</event>
<event>
12    1  0.8461994E-002  0.1724689E+03  0.7818608E-02  0.1176657E+00
         21   -1    0    0  503  502  0.00000000000E+00  0.00000000000E+00  0.58733479383E+02  0.58733479383E+02  0.00000000000E+00 0. -1.
         21   -1    0    0  501  503 -0.00000000000E+00 -0.00000000000E+00 -0.51042176250E+03  0.51042176250E+03  0.00000000000E+00 0. -1.
          6    2    1    2  501    0 -0.15928502287E+02  0.11473456992E+01 -0.16731225645E+03  0.23656653876E+03  0.16647913538E+03 0.  0.
         24    2    3    3    0    0  0.32229876334E+02  0.23150748786E+02 -0.37939245005E+02  0.96699297177E+02  0.79603050602E+02 0.  0.
         -6    2    1    2    0  502  0.15928502287E+02 -0.11473456992E+01 -0.28437602666E+03  0.33258870312E+03  0.17172794563E+03 0.  0.
        -24    2    5    5    0    0  0.54884407627E+02  0.37673026848E+02 -0.24158556057E+03  0.26274818569E+03  0.79002980043E+02 0.  0.
          5    1    3    3  501    0 -0.48158378621E+02 -0.22003403086E+02 -0.12937301144E+03  0.13986724159E+03  0.47000000000E+01 0. -1.
        -11    1    4    4    0    0 -0.26177676334E+02  0.16566197388E+00 -0.11075027036E+02  0.28424538800E+02  0.00000000000E+00 0.  1.
         12    1    4    4    0    0  0.58407552668E+02  0.22985086812E+02 -0.26864217969E+02  0.68274758377E+02  0.00000000000E+00 0. -1.
         -5    1    5    5    0  502 -0.38955905340E+02 -0.38820372547E+02 -0.42790466095E+02  0.69840517425E+02  0.47000000000E+01 0.  1.
         13    1    6    6    0    0 -0.17140633027E+02  0.18140147175E+02 -0.95472508612E+02  0.98680626978E+02  0.00000000000E+00 0. -1.
        -14    1    6    6    0    0  0.72025040655E+02  0.19532879674E+02 -0.14611305196E+03  0.16406755871E+03  0.00000000000E+00 0.  1.
</event>
<event>
12    1  0.8461994E-002  0.3291367E+03  0.7818608E-02  0.1071551E+00
         21   -1    0    0  501  502  0.00000000000E+00  0.00000000000E+00  0.49502739665E+03  0.49502739665E+03  0.00000000000E+00 0.  1.
         21   -1    0    0  502  503 -0.00000000000E+00 -0.00000000000E+00 -0.22958627188E+03  0.22958627188E+03  0.00000000000E+00 0.  1.
         -6    2    1    2    0  503 -0.26702140510E+03  0.54419116764E+02  0.53597260858E+02  0.33319473024E+03  0.18407658959E+03 0.  0.
        -24    2    3    3    0    0 -0.22445430625E+03 -0.23611530501E+02  0.32292762231E+02  0.24167035382E+03  0.80152962877E+02 0.  0.
          6    2    1    2  501    0  0.26702140510E+03 -0.54419116764E+02  0.21184386391E+03  0.39141893828E+03  0.18457814474E+03 0.  0.
         24    2    5    5    0    0  0.18666211782E+03 -0.89662572072E+02  0.20672787290E+03  0.30339633006E+03  0.80192247744E+02 0.  0.
          5    1    5    5  501    0  0.80359287286E+02  0.35243455308E+02  0.51159910136E+01  0.88022608228E+02  0.47000000000E+01 0. -1.
        -11    1    6    6    0    0  0.43062707939E+02 -0.53667726543E+02  0.97879765436E+02  0.11964560238E+03  0.00000000000E+00 0.  1.
         12    1    6    6    0    0  0.14359940988E+03 -0.35994845529E+02  0.10884810747E+03  0.18375072767E+03  0.00000000000E+00 0. -1.
         -5    1    3    3    0  503 -0.42567098857E+02  0.78030647265E+02  0.21304498627E+02  0.91524376422E+02  0.47000000000E+01 0.  1.
         13    1    4    4    0    0  0.91923972810E+00  0.23892505687E+01 -0.10494626497E+02  0.10802347212E+02  0.00000000000E+00 0. -1.
        -14    1    4    4    0    0 -0.22537354597E+03 -0.26000781070E+02  0.42787388729E+02  0.23086800661E+03  0.00000000000E+00 0.  1.
</event>
<event>
12    1  0.8461994E-002  0.2048527E+03  0.7818608E-02  0.1145952E+00
         21   -1    0    0  503  502  0.00000000000E+00  0.00000000000E+00  0.88853695574E+02  0.88853695574E+02  0.00000000000E+00 0. -1.
         21   -1    0    0  501  503 -0.00000000000E+00 -0.00000000000E+00 -0.54246941194E+03  0.54246941194E+03  0.00000000000E+00 0. -1.
          6    2    1    2  501    0 -0.42884695390E+02  0.10070767124E+03 -0.34196627965E+03  0.39802024901E+03  0.17174996378E+03 0.  0.
         24    2    3    3    0    0 -0.48637459460E+02  0.55959086099E+02 -0.33531489937E+03  0.35217419109E+03  0.78061241032E+02 0.  0.
         -6    2    1    2    0  502  0.42884695390E+02 -0.10070767124E+03 -0.11164943672E+03  0.23330285850E+03  0.17315742814E+03 0.  0.
        -24    2    5    5    0    0  0.43643942352E+02 -0.12318769159E+03 -0.13227120644E+03  0.20242770414E+03  0.80008138873E+02 0.  0.
          5    1    3    3  501    0  0.57527640699E+01  0.44748585146E+02 -0.66513802766E+01  0.45846057917E+02  0.47000000000E+01 0. -1.
        -13    1    4    4    0    0 -0.28197869801E+02  0.61683410823E+00 -0.22777514069E+03  0.22951473822E+03  0.00000000000E+00 0.  1.
         14    1    4    4    0    0 -0.20439589660E+02  0.55342251991E+02 -0.10753975868E+03  0.12265945287E+03  0.00000000000E+00 0. -1.
         -5    1    5    5    0  502 -0.75924696168E+00  0.22480020342E+02  0.20621769725E+02  0.30875154366E+02  0.47000000000E+01 0.  1.
         11    1    6    6    0    0 -0.11306050199E+02 -0.66520242456E+02 -0.31618850409E+02  0.74515240915E+02  0.00000000000E+00 0. -1.
        -12    1    6    6    0    0  0.54949992551E+02 -0.56667449132E+02 -0.10065235603E+03  0.12791246322E+03  0.00000000000E+00 0.  1.
</event>
<event>
12    1  0.8461994E-002  0.4268259E+03  0.7818608E-02  0.1034935E+00
         21   -1    0    0  503  502  0.00000000000E+00  0.00000000000E+00  0.22684836727E+03  0.22684836727E+03  0.00000000000E+00 0. -1.
         21   -1    0    0  501  503 -0.00000000000E+00 -0.00000000000E+00 -0.80157985494E+03  0.80157985494E+03  0.00000000000E+00 0.  1.
          6    2    1    2  501    0 -0.38866272154E+03  0.28524781264E+02 -0.28277612264E+03  0.51199874096E+03  0.17409193246E+03 0.  0.
         24    2    3    3    0    0 -0.35959933469E+03 -0.19872175898E+02 -0.25926239725E+03  0.45066415692E+03  0.78578666429E+02 0.  0.
         -6    2    1    2    0  502  0.38866272154E+03 -0.28524781264E+02 -0.29195536503E+03  0.51642948125E+03  0.17201482400E+03 0.  0.
        -24    2    5    5    0    0  0.39845773534E+03 -0.25458070683E+02 -0.26187682064E+03  0.48430229897E+03  0.80947930060E+02 0.  0.
          5    1    3    3  501    0 -0.29063386852E+02  0.48396957162E+02 -0.23513725382E+02  0.61334584039E+02  0.47000000000E+01 0. -1.
        -13    1    4    4    0    0 -0.27893238049E+03  0.11019397719E+02 -0.17203281383E+03  0.32790240781E+03  0.00000000000E+00 0.  1.
         14    1    4    4    0    0 -0.80666954198E+02 -0.30891573617E+02 -0.87229583426E+02  0.12276174911E+03  0.00000000000E+00 0. -1.
         -5    1    5    5    0  502 -0.97950137957E+01 -0.30667105813E+01 -0.30078544393E+02  0.32127182289E+02  0.47000000000E+01 0.  1.
         11    1    6    6    0    0  0.34570179339E+03 -0.32736049866E+02 -0.25452948616E+03  0.43054226068E+03  0.00000000000E+00 0. -1.
        -12    1    6    6    0    0  0.52755941951E+02  0.72779791836E+01 -0.73473344865E+01  0.53760038283E+02  0.00000000000E+00 0.  1.
</event>
<event>
12    1  0.8461994E-002  0.1823895E+03  0.7818608E-02  0.1165521E+00
         21   -1    0    0  501  502  0.00000000000E+00  0.00000000000E+00  0.53741383407E+03  0.53741383407E+03  0.00000000000E+00 0.  1.
         21   -1    0    0  502  503 -0.00000000000E+00 -0.00000000000E+00 -0.62632526884E+02  0.62632526884E+02  0.00000000000E+00 0.  1.
         -6    2    1    2    0  503  0.38164784591E+02 -0.47752526100E+02  0.20464013795E+03  0.27412315671E+03  0.17184022943E+03 0.  0.
        -24    2    3    3    0    0 -0.32269803921E+02 -0.55192784491E+02  0.13625557575E+03  0.17555882720E+03  0.90375528658E+02 0.  0.
          6    2    1    2  501    0 -0.38164784591E+02  0.47752526100E+02  0.27014116923E+03  0.32592320424E+03  0.17179298361E+03 0.  0.
         24    2    5    5    0    0 -0.53247852694E+02  0.31327465665E+02  0.64697621404E+02  0.11921949625E+03  0.78808388825E+02 0.  0.
          5    1    5    5  501    0  0.15083068103E+02  0.16425060436E+02  0.20544354783E+03  0.20670370799E+03  0.47000000000E+01 0. -1.
        -11    1    6    6    0    0 -0.13312566652E+02  0.50471761757E+02  0.50714172308E+02  0.72777403352E+02  0.00000000000E+00 0.  1.
         12    1    6    6    0    0 -0.39935286042E+02 -0.19144296092E+02  0.13983449096E+02  0.46442092898E+02  0.00000000000E+00 0. -1.
         -5    1    3    3    0  503  0.70434588512E+02  0.74402583910E+01  0.68384562197E+02  0.98564329504E+02  0.47000000000E+01 0.  1.
         11    1    4    4    0    0  0.73922545251E+00 -0.37516721979E+02  0.13274974914E+03  0.13795124783E+03  0.00000000000E+00 0. -1.
        -12    1    4    4    0    0 -0.33009029374E+02 -0.17676062512E+02  0.35058266187E+01  0.37607579374E+02  0.00000000000E+00 0.  1.
</event>
<event>
12    1  0.8461994E-002  0.1790318E+03  0.7818608E-02  0.1168848E+00
         21   -1    0    0  503  502  0.00000000000E+00  0.00000000000E+00  0.22237365161E+04  0.22237365161E+04  0.00000000000E+00 0. -1.
         21   -1    0    0  501  503 -0.00000000000E+00 -0.00000000000E+00 -0.24905009032E+02  0.24905009032E+02  0.00000000000E+00 0. -1.
          6    2    1    2  501    0  0.47230158587E+02 -0.19410783207E+02  0.36925059473E+03  0.41036372519E+03  0.17159521805E+03 0.  0.
         24    2    3    3    0    0  0.37738408321E+02 -0.61691472398E+02  0.33982540306E+03  0.35777397422E+03  0.85386690067E+02 0.  0.
         -6    2    1    2    0  502 -0.47230158587E+02  0.19410783207E+02  0.18295809124E+04  0.18382778000E+04  0.17114756379E+03 0.  0.
        -24    2    5    5    0    0 -0.39812331270E+02  0.72981060608E+02  0.15047221655E+04  0.15089146354E+04  0.75652657275E+02 0.  0.
          5    1    3    3  501    0  0.94917502662E+01  0.42280689191E+02  0.29425191677E+02  0.52589750967E+02  0.47000000000E+01 0. -1.
        -13    1    4    4    0    0  0.36053605179E+02 -0.48101612364E+02  0.94067010444E+02  0.11163435857E+03  0.00000000000E+00 0.  1.
         14    1    4    4    0    0  0.16848031420E+01 -0.13589860034E+02  0.24575839261E+03  0.24613961566E+03  0.00000000000E+00 0. -1.
         -5    1    5    5    0  502 -0.74178273171E+01 -0.53570277401E+02  0.32485874688E+03  0.32936316462E+03  0.47000000000E+01 0.  1.
         11    1    6    6    0    0  0.12547330716E+02  0.43627503521E+02  0.92003411669E+03  0.92115339138E+03  0.00000000000E+00 0. -1.
        -12    1    6    6    0    0 -0.52359661986E+02  0.29353557087E+02  0.58468804881E+03  0.58776124399E+03  0.00000000000E+00 0.  1.
</event>
<event>
12    1  0.8461994E-002  0.1906626E+03  0.7818608E-02  0.1160922E+00
         21   -1    0    0  501  502  0.00000000000E+00  0.00000000000E+00  0.47021167604E+02  0.47021167604E+02  0.00000000000E+00 0.  1.
         21   -1    0    0  502  503 -0.00000000000E+00 -0.00000000000E+00 -0.80620123482E+03  0.80620123482E+03  0.00000000000E+00 0.  1.
         -6    2    1    2    0  503  0.64807278960E+02 -0.49602248397E+02 -0.50622431582E+03  0.53645933778E+03  0.15768702139E+03 0.  0.
        -24    2    3    3    0    0  0.40872604477E+02  0.26171669864E+02 -0.33372561108E+03  0.34647921127E+03  0.79495498330E+02 0.  0.
          6    2    1    2  501    0 -0.64807278960E+02  0.49602248397E+02 -0.25295575140E+03  0.31676306464E+03  0.17231326270E+03 0.  0.
         24    2    5    5    0    0 -0.57036171099E+02 -0.29562109306E+01 -0.56551697968E+02  0.11324543895E+03  0.79778260841E+02 0.  0.
          5    1    5    5  501    0 -0.77711078611E+01  0.52558459328E+02 -0.19640405343E+03  0.20351762569E+03  0.47000000000E+01 0. -1.
        -13    1    6    6    0    0  0.17604597460E+02  0.57476384711E-01  0.28129378989E+01  0.17828005353E+02  0.00000000000E+00 0.  1.
         14    1    6    6    0    0 -0.74640768558E+02 -0.30136873153E+01 -0.59364635867E+02  0.95417433595E+02  0.00000000000E+00 0. -1.
         -5    1    3    3    0  503  0.23934674482E+02 -0.75773918261E+02 -0.17249870474E+03  0.18998012651E+03  0.47000000000E+01 0.  1.
         13    1    4    4    0    0  0.25847274144E+02  0.33676254136E+02 -0.32460136485E+03  0.32736557201E+03  0.00000000000E+00 0. -1.
        -14    1    4    4    0    0  0.15025330334E+02 -0.75045842726E+01 -0.91242462282E+01  0.19113639266E+02  0.00000000000E+00 0.  1.
</event>
<event>
12    1  0.8461994E-002  0.2532993E+03  0.7818608E-02  0.1112288E+00
         21   -1    0    0  503  502  0.00000000000E+00  0.00000000000E+00  0.17400956244E+03  0.17400956244E+03  0.00000000000E+00 0. -1.
         21   -1    0    0  501  503 -0.00000000000E+00 -0.00000000000E+00 -0.82007733862E+03  0.82007733862E+03  0.00000000000E+00 0.  1.
          6    2    1    2  501    0  0.15827397282E+03 -0.77862699064E+02 -0.69379809281E+03  0.73632977716E+03  0.17237313241E+03 0.  0.
         24    2    3    3    0    0  0.43544027829E+02 -0.86790702357E+01 -0.14940942387E+03  0.17567797110E+03  0.81044216134E+02 0.  0.
         -6    2    1    2    0  502 -0.15827397282E+03  0.77862699064E+02  0.47730316632E+02  0.25775712390E+03  0.18178916749E+03 0.  0.
        -24    2    5    5    0    0 -0.92451417224E+02  0.10499075248E+03  0.65696189549E+02  0.18418129433E+03  0.10018202038E+03 0.  0.
          5    1    3    3  501    0  0.11472994499E+03 -0.69183628829E+02 -0.54438866894E+03  0.56065180607E+03  0.47000000000E+01 0. -1.
        -13    1    4    4    0    0  0.45548626874E+02  0.25385014687E+02 -0.11918978059E+03  0.13009719512E+03  0.00000000000E+00 0.  1.
         14    1    4    4    0    0 -0.20045990450E+01 -0.34064084923E+02 -0.30219643277E+02  0.45580775978E+02  0.00000000000E+00 0. -1.
         -5    1    5    5    0  502 -0.65822555592E+02 -0.27128053417E+02 -0.17965872917E+02  0.73575829568E+02  0.47000000000E+01 0.  1.
         13    1    6    6    0    0 -0.31654655707E+02  0.56324808990E+02  0.82223133570E+02  0.10457124380E+03  0.00000000000E+00 0. -1.
        -14    1    6    6    0    0 -0.60796761517E+02  0.48665943492E+02 -0.16526944021E+02  0.79610050531E+02  0.00000000000E+00 0.  1.
</event>
<event>
12    1  0.8461994E-002  0.1725861E+03  0.7818608E-02  0.1175354E+00
         21   -1    0    0  503  502  0.00000000000E+00  0.00000000000E+00  0.34280652700E+03  0.34280652700E+03  0.00000000000E+00 0. -1.
         21   -1    0    0  501  503 -0.00000000000E+00 -0.00000000000E+00 -0.16226395024E+03  0.16226395024E+03  0.00000000000E+00 0. -1.
          6    2    1    2  501    0  0.10510212715E+02  0.67045054031E+01 -0.82337038150E+02  0.19060003436E+03  0.17144553153E+03 0.  0.
         24    2    3    3    0    0  0.70358960217E+02  0.22583543317E+02 -0.57174317489E+02  0.12359802742E+03  0.80914585154E+02 0.  0.
         -6    2    1    2    0  502 -0.10510212715E+02 -0.67045054031E+01  0.26287961491E+03  0.31447044288E+03  0.17213527398E+03 0.  0.
        -24    2    5    5    0    0 -0.48664692237E+02  0.37521264004E+02  0.21771781086E+03  0.24048827251E+03  0.81593299531E+02 0.  0.
          5    1    3    3  501    0 -0.59848747502E+02 -0.15879037914E+02 -0.25162720661E+02  0.67002006937E+02  0.47000000000E+01 0. -1.
        -11    1    4    4    0    0  0.37158121041E+02  0.14942410032E+02  0.15806907908E+02  0.43056473549E+02  0.00000000000E+00 0.  1.
         12    1    4    4    0    0  0.33200839176E+02  0.76411332849E+01 -0.72981225397E+02  0.80541553873E+02  0.00000000000E+00 0. -1.
         -5    1    5    5    0  502  0.38154479521E+02 -0.44225769408E+02  0.45161804045E+02  0.73982170365E+02  0.47000000000E+01 0.  1.
         13    1    6    6    0    0 -0.20433504403E+02  0.42375862053E+02  0.20281147006E+03  0.20819638368E+03  0.00000000000E+00 0. -1.
        -14    1    6    6    0    0 -0.28231187834E+02 -0.48545980486E+01  0.14906340796E+02  0.32291888837E+02  0.00000000000E+00 0.  1.
</event>
<event>
12    1  0.8461994E-002  0.2161006E+03  0.7818608E-02  0.1137695E+00
         21   -1    0    0  503  502  0.00000000000E+00  0.00000000000E+00  0.30936059478E+03  0.30936059478E+03  0.00000000000E+00 0.  1.
         21   -1    0    0  501  503 -0.00000000000E+00 -0.00000000000E+00 -0.52291820703E+03  0.52291820703E+03  0.00000000000E+00 0.  1.
          6    2    1    2  501    0  0.10576092728E+03  0.64199952332E+02 -0.45954064071E+03  0.50781597659E+03  0.17717916919E+03 0.  0.
         24    2    3    3    0    0  0.12570111119E+03  0.78351942961E+02 -0.45192924353E+03  0.48177921142E+03  0.77015395076E+02 0.  0.
         -6    2    1    2    0  502 -0.10576092728E+03 -0.64199952332E+02  0.24598302846E+03  0.32446282522E+03  0.17164342994E+03 0.  0.
        -24    2    5    5    0    0  0.81991415704E+01 -0.58313496675E+02  0.70518111262E+02  0.11510290829E+03  0.69341082074E+02 0.  0.
          5    1    3    3  501    0 -0.19940183914E+02 -0.14151990628E+02 -0.76113971789E+01  0.26036765166E+02  0.47000000000E+01 0. -1.
        -11    1    4    4    0    0  0.69429743067E+02  0.43593604834E+01 -0.14061391172E+03  0.15688137370E+03  0.00000000000E+00 0.  1.
         12    1    4    4    0    0  0.56271368123E+02  0.73992582477E+02 -0.31131533182E+03  0.32489783772E+03  0.00000000000E+00 0. -1.
         -5    1    5    5    0  502 -0.11396006885E+03 -0.58864556576E+01  0.17546491720E+03  0.20935991694E+03  0.47000000000E+01 0.  1.
         13    1    6    6    0    0  0.62025495766E+00  0.15339138349E+02  0.47503453560E+01  0.16069837041E+02  0.00000000000E+00 0. -1.
        -14    1    6    6    0    0  0.75788866127E+01 -0.73652635024E+02  0.65767765906E+02  0.99033071247E+02  0.00000000000E+00 0.  1.
</event>
<event>
12    1  0.8461994E-002  0.2209393E+03  0.7818608E-02  0.1133253E+00
         21   -1    0    0  501  502  0.00000000000E+00  0.00000000000E+00  0.62212295843E+03  0.62212295843E+03  0.00000000000E+00 0. -1.
         21   -1    0    0  502  503 -0.00000000000E+00 -0.00000000000E+00 -0.11440953751E+03  0.11440953751E+03  0.00000000000E+00 0. -1.
         -6    2    1    2    0  503  0.39287366604E+02 -0.13247047584E+03  0.47204788924E+02  0.22592576980E+03  0.17240138403E+03 0.  0.
        -24    2    3    3    0    0  0.85981191434E+02 -0.12663821628E+03  0.28954937316E+02  0.17523577460E+03  0.80244533784E+02 0.  0.
          6    2    1    2  501    0 -0.39287366604E+02  0.13247047584E+03  0.46050863199E+03  0.51060672615E+03  0.17192761414E+03 0.  0.
         24    2    5    5    0    0 -0.24093448218E+02  0.13841983643E+03  0.23801940057E+03  0.28747044907E+03  0.79028340977E+02 0.  0.
          5    1    5    5  501    0 -0.15193918385E+02 -0.59493605896E+01  0.22248923142E+03  0.22313627707E+03  0.47000000000E+01 0. -1.
        -11    1    6    6    0    0 -0.13842566562E+02  0.55462659848E+01  0.26710141072E+00  0.14914726231E+02  0.00000000000E+00 0.  1.
         12    1    6    6    0    0 -0.10250881656E+02  0.13287357045E+03  0.23775229916E+03  0.27255572284E+03  0.00000000000E+00 0. -1.
         -5    1    3    3    0  503 -0.46693824830E+02 -0.58322595605E+01  0.18249851608E+02  0.50689995192E+02  0.47000000000E+01 0.  1.
         11    1    4    4    0    0  0.55119112307E+02 -0.12272580672E+03  0.27545281240E+01  0.13456347053E+03  0.00000000000E+00 0. -1.
        -12    1    4    4    0    0  0.30862079127E+02 -0.39124095636E+01  0.26200409192E+02  0.40672304071E+02  0.00000000000E+00 0.  1.
</event>
<event>
12    1  0.8461994E-002  0.1742366E+03  0.7818608E-02  0.1175251E+00
         21   -1    0    0  501  502  0.00000000000E+00  0.00000000000E+00  0.19871000393E+02  0.19871000393E+02  0.00000000000E+00 0. -1.
         21   -1    0    0  502  503 -0.00000000000E+00 -0.00000000000E+00 -0.15191172658E+04  0.15191172658E+04  0.00000000000E+00 0. -1.
         -6    2    1    2    0  503 -0.24469708216E+02  0.23301919104E+02 -0.90398689225E+03  0.92062515630E+03  0.17092873077E+03 0.  0.
        -24    2    3    3    0    0 -0.14031036415E+02 -0.14164491545E+02 -0.84952558589E+03  0.85353699277E+03  0.80213303999E+02 0.  0.
          6    2    1    2  501    0  0.24469708216E+02 -0.23301919104E+02 -0.59525937320E+03  0.61836310993E+03  0.16400447643E+03 0.  0.
         24    2    5    5    0    0 -0.29550687479E+02  0.29491522160E+02 -0.28114343525E+03  0.29525900432E+03  0.79957835368E+02 0.  0.
          5    1    5    5  501    0  0.54020395695E+02 -0.52793441264E+02 -0.31411593795E+03  0.32310410561E+03  0.47000000000E+01 0. -1.
        -13    1    6    6    0    0 -0.32910921500E+02 -0.56958056467E+01 -0.23381051828E+03  0.23618410068E+03  0.00000000000E+00 0.  1.
         14    1    6    6    0    0  0.33602340215E+01  0.35187327807E+02 -0.47332916971E+02  0.59074903638E+02  0.00000000000E+00 0. -1.
         -5    1    3    3    0  503 -0.10438671801E+02  0.37466410649E+02 -0.54461306360E+02  0.67088163534E+02  0.47000000000E+01 0.  1.
         13    1    4    4    0    0 -0.35637987781E+02 -0.32505772208E+02 -0.36359800845E+03  0.36678359172E+03  0.00000000000E+00 0. -1.
        -14    1    4    4    0    0  0.21606951366E+02  0.18341280663E+02 -0.48592757743E+03  0.48675340105E+03  0.00000000000E+00 0.  1.
</event>
<event>
12    1  0.8461994E-002  0.2176907E+03  0.7818608E-02  0.1135840E+00
         21   -1    0    0  503  502  0.00000000000E+00  0.00000000000E+00  0.11971794464E+03  0.11971794464E+03  0.00000000000E+00 0. -1.
         21   -1    0    0  501  503 -0.00000000000E+00 -0.00000000000E+00 -0.39402819556E+03  0.39402819556E+03  0.00000000000E+00 0. -1.
          6    2    1    2  501    0  0.98285672123E+02  0.86586615774E+02 -0.14499576526E+03  0.26155879031E+03  0.17387326841E+03 0.  0.
         24    2    3    3    0    0  0.12541166550E+03  0.45696676792E+02 -0.14414067665E+03  0.21225739273E+03  0.80376576126E+02 0.  0.
         -6    2    1    2    0  502 -0.98285672123E+02 -0.86586615774E+02 -0.12931448566E+03  0.25218734989E+03  0.17239172795E+03 0.  0.
        -24    2    5    5    0    0 -0.93534512182E+02 -0.11273405393E+03 -0.14431405999E+03  0.22131115723E+03  0.81819365191E+02 0.  0.
          5    1    3    3  501    0 -0.27125993381E+02  0.40889938982E+02 -0.85508861415E+00  0.49301397581E+02  0.47000000000E+01 0. -1.
        -11    1    4    4    0    0  0.10983038293E+02  0.22311678244E+02 -0.69088727786E+02  0.73428131008E+02  0.00000000000E+00 0.  1.
         12    1    4    4    0    0  0.11442862721E+03  0.23384998548E+02 -0.75051948863E+02  0.13882926172E+03  0.00000000000E+00 0. -1.
         -5    1    5    5    0  502 -0.47511599412E+01  0.26147438154E+02  0.14999574327E+02  0.30876192654E+02  0.47000000000E+01 0.  1.
         11    1    6    6    0    0  0.95107369880E+01 -0.40657009020E+02 -0.41623614850E+02  0.58957372853E+02  0.00000000000E+00 0. -1.
        -12    1    6    6    0    0 -0.10304524917E+03 -0.72077044908E+02 -0.10269044514E+03  0.16235378438E+03  0.00000000000E+00 0.  1.
</event>
<event>
12    1  0.8461994E-002  0.1750941E+03  0.7818608E-02  0.1172775E+00
         21   -1    0    0  501  502  0.00000000000E+00  0.00000000000E+00  0.10952617080E+03  0.10952617080E+03  0.00000000000E+00 0.  1.
         21   -1    0    0  502  503 -0.00000000000E+00 -0.00000000000E+00 -0.32166179420E+03  0.32166179420E+03  0.00000000000E+00 0.  1.
         -6    2    1    2    0  503 -0.22017869285E+01 -0.29222369968E+02 -0.18469401804E+03  0.25449914041E+03  0.17262426654E+03 0.  0.
        -24    2    3    3    0    0  0.26790892479E+02  0.29249044763E+02 -0.46656796994E+02  0.10173839220E+03  0.81243985637E+02 0.  0.
          6    2    1    2  501    0  0.22017869285E+01  0.29222369968E+02 -0.27441605369E+02  0.17668882459E+03  0.17206715043E+03 0.  0.
         24    2    5    5    0    0  0.40839491185E+02 -0.33526103605E+02  0.47875827744E+01  0.96121748845E+02  0.80153639898E+02 0.  0.
          5    1    5    5  501    0 -0.38637704257E+02  0.62748473573E+02 -0.32229188143E+02  0.80567075746E+02  0.47000000000E+01 0. -1.
        -11    1    6    6    0    0  0.92494583436E+01 -0.26648344581E+01  0.39054925196E+02  0.40223637384E+02  0.00000000000E+00 0.  1.
         12    1    6    6    0    0  0.31590032842E+02 -0.30861269146E+02 -0.34267342421E+02  0.55898111461E+02  0.00000000000E+00 0. -1.
         -5    1    3    3    0  503 -0.28992679407E+02 -0.58471414731E+02 -0.13803722104E+03  0.15276074821E+03  0.47000000000E+01 0.  1.
         11    1    4    4    0    0 -0.11991617829E+02  0.25921120871E+02  0.12295467701E+02  0.31094725138E+02  0.00000000000E+00 0. -1.
        -12    1    4    4    0    0  0.38782510308E+02  0.33279238917E+01 -0.58952264695E+02  0.70643667062E+02  0.00000000000E+00 0.  1.
</event>
<event>
12    1  0.8461994E-002  0.2743284E+03  0.7818608E-02  0.1098975E+00
         21   -1    0    0  503  502  0.00000000000E+00  0.00000000000E+00  0.11641275424E+03  0.11641275424E+03  0.00000000000E+00 0. -1.
         21   -1    0    0  501  503 -0.00000000000E+00 -0.00000000000E+00 -0.64487081758E+03  0.64487081758E+03  0.00000000000E+00 0.  1.
          6    2    1    2  501    0  0.21272199254E+03  0.21093756126E+02 -0.25060150104E+03  0.37156050073E+03  0.17193167458E+03 0.  0.
         24    2    3    3    0    0  0.21907097362E+03  0.54405920100E+02 -0.22817863002E+03  0.33063514216E+03  0.79385227895E+02 0.  0.
         -6    2    1    2    0  502 -0.21272199254E+03 -0.21093756126E+02 -0.27785656230E+03  0.38972307108E+03  0.17024749709E+03 0.  0.
        -24    2    5    5    0    0 -0.10936698033E+03 -0.39237493547E+02 -0.71757523933E+02  0.15840001263E+03  0.80253999735E+02 0.  0.
          5    1    3    3  501    0 -0.63489810863E+01 -0.33312163974E+02 -0.22422871014E+02  0.40925358568E+02  0.47000000000E+01 0. -1.
        -13    1    4    4    0    0  0.99483972782E+02  0.43420516064E+02 -0.15752507271E+03  0.19130224930E+03  0.00000000000E+00 0.  1.
         14    1    4    4    0    0  0.11958700084E+03  0.10985404035E+02 -0.70653557313E+02  0.13933289286E+03  0.00000000000E+00 0. -1.
         -5    1    5    5    0  502 -0.10335501220E+03  0.18143737421E+02 -0.20609903837E+03  0.23132305845E+03  0.47000000000E+01 0.  1.
         11    1    6    6    0    0 -0.11870114731E+03 -0.20861892424E+02 -0.63169584250E+02  0.13607195634E+03  0.00000000000E+00 0. -1.
        -12    1    6    6    0    0  0.93341669753E+01 -0.18375601123E+02 -0.85879396825E+01  0.22328056291E+02  0.00000000000E+00 0.  1.
</event>
<event>
12    1  0.8461994E-002  0.1965291E+03  0.7818608E-02  0.1152789E+00
         21   -1    0    0  501  502  0.00000000000E+00  0.00000000000E+00  0.14244571934E+03  0.14244571934E+03  0.00000000000E+00 0.  1.
         21   -1    0    0  502  503 -0.00000000000E+00 -0.00000000000E+00 -0.25798009243E+04  0.25798009243E+04  0.00000000000E+00 0. -1.
         -6    2    1    2    0  503  0.55052363929E+02 -0.76223344895E+02 -0.25063100967E+04  0.25139716906E+04  0.17211217061E+03 0.  0.
        -24    2    3    3    0    0 -0.34096643200E+02 -0.56354298585E+02 -0.13974247817E+04  0.14013212260E+04  0.81035609458E+02 0.  0.
          6    2    1    2  501    0 -0.55052363929E+02  0.76223344895E+02  0.68954891763E+02  0.20827495300E+03  0.17257728086E+03 0.  0.
         24    2    5    5    0    0 -0.56096366844E+02  0.11459106408E+03  0.29928424277E+02  0.15333565030E+03  0.79612792521E+02 0.  0.
          5    1    5    5  501    0  0.10440029151E+01 -0.38367719182E+02  0.39026467486E+02  0.54939302705E+02  0.47000000000E+01 0. -1.
        -11    1    6    6    0    0 -0.61354764576E+02  0.35045118195E+02  0.14894071417E+02  0.72210808117E+02  0.00000000000E+00 0.  1.
         12    1    6    6    0    0  0.52583977320E+01  0.79545945882E+02  0.15034352860E+02  0.81124842181E+02  0.00000000000E+00 0. -1.
         -5    1    3    3    0  503  0.89149007128E+02 -0.19869046310E+02 -0.11088853150E+04  0.11126504645E+04  0.47000000000E+01 0.  1.
         11    1    4    4    0    0 -0.57718202528E+00  0.19887643518E+02 -0.19386490222E+03  0.19488317479E+03  0.00000000000E+00 0. -1.
        -12    1    4    4    0    0 -0.33519461174E+02 -0.76241942103E+02 -0.12035598795E+04  0.12064380512E+04  0.00000000000E+00 0.  1.
</event>
<event>
12    1  0.8461994E-002  0.2024482E+03  0.7818608E-02  0.1147947E+00
         21   -1    0    0  501  502  0.00000000000E+00  0.00000000000E+00  0.50479347738E+03  0.50479347738E+03  0.00000000000E+00 0. -1.
         21   -1    0    0  502  503 -0.00000000000E+00 -0.00000000000E+00 -0.10572414691E+03  0.10572414691E+03  0.00000000000E+00 0.  1.
         -6    2    1    2    0  503 -0.10883877826E+01 -0.10411849690E+03  0.50551731024E+02  0.20746703984E+03  0.17217795773E+03 0.  0.
        -24    2    3    3    0    0 -0.67590327391E+02 -0.55672210498E+02  0.20016881287E+02  0.11958064905E+03  0.78936738673E+02 0.  0.
          6    2    1    2  501    0  0.10883877826E+01  0.10411849690E+03  0.34851759945E+03  0.40305058445E+03  0.17361857767E+03 0.  0.
         24    2    5    5    0    0 -0.10450228123E+02  0.13925643667E+03  0.30931659212E+03  0.34895230865E+03  0.81175101667E+02 0.  0.
          5    1    5    5  501    0  0.11538615905E+02 -0.35137939773E+02  0.39201007336E+02  0.54098275801E+02  0.47000000000E+01 0. -1.
        -11    1    6    6    0    0  0.17054774234E+02  0.13090991160E+03  0.24000910516E+03  0.27392086602E+03  0.00000000000E+00 0.  1.
         12    1    6    6    0    0 -0.27505002356E+02  0.83465250718E+01  0.69307486953E+02  0.75031442630E+02  0.00000000000E+00 0. -1.
         -5    1    3    3    0  503  0.66501939609E+02 -0.48446286400E+02  0.30534849737E+02  0.87886390791E+02  0.47000000000E+01 0.  1.
         13    1    4    4    0    0 -0.22240150559E+02 -0.21941945988E+02  0.47406092603E+02  0.56775090546E+02  0.00000000000E+00 0. -1.
        -14    1    4    4    0    0 -0.45350176832E+02 -0.33730264509E+02 -0.27389211315E+02  0.62805558505E+02  0.00000000000E+00 0.  1.
</event>
<event>
12    1  0.8461994E-002  0.1836136E+03  0.7818608E-02  0.1166496E+00
         21   -1    0    0  501  502  0.00000000000E+00  0.00000000000E+00  0.77130982083E+02  0.77130982083E+02  0.00000000000E+00 0.  1.
         21   -1    0    0  502  503 -0.00000000000E+00 -0.00000000000E+00 -0.68067977861E+03  0.68067977861E+03  0.00000000000E+00 0.  1.
         -6    2    1    2    0  503 -0.52731273608E+02  0.29340939053E+02 -0.54245303997E+03  0.57268598448E+03  0.17341412375E+03 0.  0.
        -24    2    3    3    0    0 -0.70593410415E+02  0.51725971156E+02 -0.22432005657E+03  0.25323202735E+03  0.78408967661E+02 0.  0.
          6    2    1    2  501    0  0.52731273608E+02 -0.29340939053E+02 -0.61095756547E+02  0.18512477621E+03  0.16400308954E+03 0.  0.
         24    2    5    5    0    0  0.14824946539E+01  0.27281289715E+01  0.21437851453E+02  0.82710182928E+02  0.79823257306E+02 0.  0.
          5    1    5    5  501    0  0.51248778954E+02 -0.32069068024E+02 -0.82533608000E+02  0.10241459328E+03  0.47000000000E+01 0. -1.
        -11    1    6    6    0    0  0.12213020064E+02  0.19239121188E+02 -0.24056948784E+02  0.33136662898E+02  0.00000000000E+00 0.  1.
         12    1    6    6    0    0 -0.10730525410E+02 -0.16510992217E+02  0.45494800238E+02  0.49573520031E+02  0.00000000000E+00 0. -1.
         -5    1    3    3    0  503  0.17862136808E+02 -0.22385032103E+02 -0.31813298341E+03  0.31945395713E+03  0.47000000000E+01 0.  1.
         13    1    4    4    0    0 -0.57452849945E+02  0.72074679172E+02 -0.19056414713E+03  0.21168439601E+03  0.00000000000E+00 0. -1.
        -14    1    4    4    0    0 -0.13140560471E+02 -0.20348708016E+02 -0.33755909439E+02  0.41547631334E+02  0.00000000000E+00 0.  1.
</event>
<event>
12    1  0.8461994E-002  0.1831867E+03  0.7818608E-02  0.1164920E+00
         21   -1    0    0  503  502  0.00000000000E+00  0.00000000000E+00  0.48948480777E+03  0.48948480777E+03  0.00000000000E+00 0.  1.
         21   -1    0    0  501  503 -0.00000000000E+00 -0.00000000000E+00 -0.18853244618E+03  0.18853244618E+03  0.00000000000E+00 0.  1.
          6    2    1    2  501    0 -0.11853323324E+02 -0.59239825163E+02 -0.12036014034E+03  0.21860285841E+03  0.17219404218E+03 0.  0.
         24    2    3    3    0    0 -0.27528304743E+02  0.21894095902E+02 -0.50796487816E+02  0.11048435887E+03  0.91593402512E+02 0.  0.
         -6    2    1    2    0  502  0.11853323324E+02  0.59239825163E+02  0.42131250193E+03  0.45941439554E+03  0.17293786279E+03 0.  0.
        -24    2    5    5    0    0  0.53103480458E+02  0.14573458053E+02  0.12866425755E+03  0.16048004697E+03  0.78530178839E+02 0.  0.
          5    1    3    3  501    0  0.15674981418E+02 -0.81133921065E+02 -0.69563652527E+02  0.10811849954E+03  0.47000000000E+01 0. -1.
        -11    1    4    4    0    0 -0.28219850112E+02 -0.21554952673E+02 -0.56422738477E+02  0.66667093399E+02  0.00000000000E+00 0.  1.
         12    1    4    4    0    0  0.69154536914E+00  0.43449048575E+02  0.56262506608E+01  0.43817265474E+02  0.00000000000E+00 0. -1.
         -5    1    5    5    0  502 -0.41250157134E+02  0.44666367110E+02  0.29264824438E+03  0.29893434857E+03  0.47000000000E+01 0.  1.
         11    1    6    6    0    0 -0.31882088576E+01  0.29087107406E+02  0.15160447644E+02  0.32955480056E+02  0.00000000000E+00 0. -1.
        -12    1    6    6    0    0  0.56291689316E+02 -0.14513649354E+02  0.11350380990E+03  0.12752456691E+03  0.00000000000E+00 0.  1.
</event>
<event>
12    1  0.8461994E-002  0.1759093E+03  0.7818608E-02  0.1172090E+00
         21   -1    0    0  503  502  0.00000000000E+00  0.00000000000E+00  0.29404747893E+02  0.29404747893E+02  0.00000000000E+00 0. -1.
         21   -1    0    0  501  503 -0.00000000000E+00 -0.00000000000E+00 -0.10724975907E+04  0.10724975907E+04  0.00000000000E+00 0. -1.
          6    2    1    2  501    0 -0.31322691617E+01 -0.38158651205E+02 -0.43329469976E+03  0.46723876997E+03  0.17059272422E+03 0.  0.
         24    2    3    3    0    0 -0.48618979432E+02 -0.35397176286E+02 -0.39469082521E+03  0.40733037586E+03  0.80749132149E+02 0.  0.
         -6    2    1    2    0  502  0.31322691617E+01  0.38158651205E+02 -0.60979814302E+03  0.63466356859E+03  0.17169209736E+03 0.  0.
        -24    2    5    5    0    0 -0.39292165570E+02  0.70704896831E+02 -0.32610003893E+03  0.34593221416E+03  0.82369925904E+02 0.  0.
          5    1    3    3  501    0  0.45486710271E+02 -0.27614749182E+01 -0.38603874545E+02  0.59908394110E+02  0.47000000000E+01 0. -1.
        -13    1    4    4    0    0 -0.15950849273E+02  0.25618909773E+02 -0.91823266767E+02  0.96655421216E+02  0.00000000000E+00 0.  1.
         14    1    4    4    0    0 -0.32668130159E+02 -0.61016086059E+02 -0.30286755844E+03  0.31067495465E+03  0.00000000000E+00 0. -1.
         -5    1    5    5    0  502  0.42424434732E+02 -0.32546245627E+02 -0.28369810409E+03  0.28873135443E+03  0.47000000000E+01 0.  1.
         11    1    6    6    0    0 -0.22752316941E+02  0.23894576693E+02 -0.26572814200E+03  0.26776867661E+03  0.00000000000E+00 0. -1.
        -12    1    6    6    0    0 -0.16539848629E+02  0.46810320138E+02 -0.60371896933E+02  0.78163537557E+02  0.00000000000E+00 0.  1.
</event>
<event>
12    1  0.8461994E-002  0.1784074E+03  0.7818608E-02  0.1169602E+00
         21   -1    0    0  503  502  0.00000000000E+00  0.00000000000E+00  0.66910349369E+03  0.66910349369E+03  0.00000000000E+00 0. -1.
         21   -1    0    0  501  503 -0.00000000000E+00 -0.00000000000E+00 -0.72635040731E+02  0.72635040731E+02  0.00000000000E+00 0. -1.
          6    2    1    2  501    0  0.17905903076E+02  0.46268754100E+02  0.79755239655E+02  0.19542287495E+03  0.17137030907E+03 0.  0.
         24    2    3    3    0    0  0.44159117876E+02 -0.15783608054E+00  0.10236477797E+03  0.13730282001E+03  0.80146515886E+02 0.  0.
         -6    2    1    2    0  502 -0.17905903076E+02 -0.46268754100E+02  0.51671321330E+03  0.54631565947E+03  0.17031393370E+03 0.  0.
        -24    2    5    5    0    0  0.49061015179E+02 -0.36274671382E+02  0.21746173011E+03  0.23946391999E+03  0.79564627318E+02 0.  0.
          5    1    3    3  501    0 -0.26253214801E+02  0.46426590181E+02 -0.22609538319E+02  0.58120054940E+02  0.47000000000E+01 0. -1.
        -13    1    4    4    0    0 -0.17720781953E+02 -0.50535108906E+01  0.58396963191E+02  0.61235360661E+02  0.00000000000E+00 0.  1.
         14    1    4    4    0    0  0.61879899829E+02  0.48956748100E+01  0.43967814783E+02  0.76067459347E+02  0.00000000000E+00 0. -1.
         -5    1    5    5    0  502 -0.66966918254E+02 -0.99940827186E+01  0.29925148320E+03  0.30685173949E+03  0.47000000000E+01 0.  1.
         11    1    6    6    0    0  0.51032851888E+02 -0.49591704948E+02  0.21406098499E+03  0.22557879880E+03  0.00000000000E+00 0. -1.
        -12    1    6    6    0    0 -0.19718367091E+01  0.13317033567E+02  0.34007451117E+01  0.13885121186E+02  0.00000000000E+00 0.  1.
</event>
<event>
12    1  0.8461994E-002  0.2535560E+03  0.7818608E-02  0.1111113E+00
         21   -1    0    0  503  502  0.00000000000E+00  0.00000000000E+00  0.30545530733E+03  0.30545530733E+03  0.00000000000E+00 0. -1.
         21   -1    0    0  501  503 -0.00000000000E+00 -0.00000000000E+00 -0.21671475793E+03  0.21671475793E+03  0.00000000000E+00 0.  1.
          6    2    1    2  501    0  0.73847672374E+02 -0.17086217465E+03 -0.58277477908E+00  0.25355666746E+03  0.17217224672E+03 0.  0.
         24    2    3    3    0    0  0.10139766007E+03 -0.12231892676E+03  0.42640326483E+02  0.18280516414E+03  0.79725311445E+02 0.  0.
         -6    2    1    2    0  502 -0.73847672374E+02  0.17086217465E+03  0.89323324183E+02  0.26861339780E+03  0.17183462920E+03 0.  0.
        -24    2    5    5    0    0 -0.95420562867E+01  0.10893595458E+03  0.10897377389E+03  0.17708034822E+03  0.86741416235E+02 0.  0.
          5    1    3    3  501    0 -0.27549987692E+02 -0.48543247899E+02 -0.43223101262E+02  0.70751503314E+02  0.47000000000E+01 0. -1.
        -13    1    4    4    0    0  0.72182967363E+02 -0.55999576231E+02 -0.11866606236E+02  0.92125727454E+02  0.00000000000E+00 0.  1.
         14    1    4    4    0    0  0.29214692703E+02 -0.66319350524E+02  0.54506932719E+02  0.90679436688E+02  0.00000000000E+00 0. -1.
         -5    1    5    5    0  502 -0.64305616088E+02  0.61926220071E+02 -0.19650449704E+02  0.91533049585E+02  0.47000000000E+01 0.  1.
         11    1    6    6    0    0  0.15202932180E+02 -0.99070997170E+01  0.15631709472E+02  0.23950576459E+02  0.00000000000E+00 0. -1.
        -12    1    6    6    0    0 -0.24744988467E+02  0.11884305430E+03  0.93342064415E+02  0.15312977176E+03  0.00000000000E+00 0.  1.
</event>
<event>
12    1  0.8461994E-002  0.2404407E+03  0.7818608E-02  0.1119677E+00
         21   -1    0    0  501  502  0.00000000000E+00  0.00000000000E+00  0.28767664407E+03  0.28767664407E+03  0.00000000000E+00 0. -1.
         21   -1    0    0  502  503 -0.00000000000E+00 -0.00000000000E+00 -0.21078564867E+03  0.21078564867E+03  0.00000000000E+00 0.  1.
         -6    2    1    2    0  503 -0.16250417743E+03  0.32243535319E+02  0.94551812754E+02  0.25737387664E+03  0.17278314105E+03 0.  0.
        -24    2    3    3    0    0 -0.17527445712E+03 -0.12405115717E+01  0.10508769647E+03  0.21972608408E+03  0.80705971831E+02 0.  0.
          6    2    1    2  501    0  0.16250417743E+03 -0.32243535319E+02 -0.17660817351E+02  0.24108841609E+03  0.17425402908E+03 0.  0.
         24    2    5    5    0    0  0.25428318512E+02  0.10512789147E+01 -0.38708084894E+02  0.98387984333E+02  0.86799625893E+02 0.  0.
          5    1    5    5  501    0  0.13707585892E+03 -0.33294814234E+02  0.21047267543E+02  0.14270043176E+03  0.47000000000E+01 0. -1.
        -11    1    6    6    0    0  0.41434721052E+02 -0.15010080918E+02 -0.54991757677E+02  0.70471498142E+02  0.00000000000E+00 0.  1.
         12    1    6    6    0    0 -0.16006402540E+02  0.16061359833E+02  0.16283672784E+02  0.27916486191E+02  0.00000000000E+00 0. -1.
         -5    1    3    3    0  503  0.12770279686E+02  0.33484046890E+02 -0.10535883713E+02  0.37647792566E+02  0.47000000000E+01 0.  1.
         13    1    4    4    0    0 -0.84955703706E+02 -0.39934062380E+02  0.41147373359E+02  0.10249540119E+03  0.00000000000E+00 0. -1.
        -14    1    4    4    0    0 -0.90318753410E+02  0.38693550808E+02  0.63940323108E+02  0.11723068289E+03  0.00000000000E+00 0.  1.
</event>
<event>
12    1  0.8461994E-002  0.1810673E+03  0.7818608E-02  0.1166995E+00
         21   -1    0    0  503  502  0.00000000000E+00  0.00000000000E+00  0.35663467050E+03  0.35663467050E+03  0.00000000000E+00 0.  1.
         21   -1    0    0  501  503 -0.00000000000E+00 -0.00000000000E+00 -0.10220499608E+03  0.10220499608E+03  0.00000000000E+00 0. -1.
          6    2    1    2  501    0 -0.30233722975E+02 -0.47420415586E+02  0.20129961972E+03  0.27013837096E+03  0.17114446747E+03 0.  0.
         24    2    3    3    0    0 -0.34870872808E+02  0.10186245137E+01  0.20265300393E+03  0.22123269222E+03  0.81600543724E+02 0.  0.
         -6    2    1    2    0  502  0.30233722975E+02  0.47420415586E+02  0.53130054700E+02  0.18870129561E+03  0.17211217980E+03 0.  0.
        -24    2    5    5    0    0  0.66919847531E+02  0.65221044279E+02  0.70727761224E+02  0.14404143229E+03  0.83746447084E+02 0.  0.
          5    1    3    3  501    0  0.46371498332E+01 -0.48439040100E+02 -0.13533842119E+01  0.48905678742E+02  0.47000000000E+01 0. -1.
        -11    1    4    4    0    0  0.21583233018E+01  0.16470285847E+02  0.16618303485E+03  0.16701116653E+03  0.00000000000E+00 0.  1.
         12    1    4    4    0    0 -0.37029196110E+02 -0.15451661333E+02  0.36469969087E+02  0.54221525686E+02  0.00000000000E+00 0. -1.
         -5    1    5    5    0  502 -0.36686124556E+02 -0.17800628692E+02 -0.17597706524E+02  0.44659863319E+02  0.47000000000E+01 0.  1.
         11    1    6    6    0    0  0.40050551395E+02  0.72110143299E+02  0.79887286151E+02  0.11482986511E+03  0.00000000000E+00 0. -1.
        -12    1    6    6    0    0  0.26869296136E+02 -0.68890990205E+01 -0.91595249273E+01  0.29211567179E+02  0.00000000000E+00 0.  1.
</event>
<event>
12    1  0.8461994E-002  0.3589846E+03  0.7818608E-02  0.1059030E+00
         21   -1    0    0  501  502  0.00000000000E+00  0.00000000000E+00  0.16923025513E+03  0.16923025513E+03  0.00000000000E+00 0. -1.
         21   -1    0    0  502  503 -0.00000000000E+00 -0.00000000000E+00 -0.82203500412E+03  0.82203500412E+03  0.00000000000E+00 0.  1.
         -6    2    1    2    0  503 -0.22021297394E+03  0.22630255402E+03 -0.46210659323E+03  0.58516017743E+03  0.17077274344E+03 0.  0.
        -24    2    3    3    0    0 -0.15068322994E+01  0.54299520368E+02 -0.82230297257E+02  0.11426155754E+03  0.57820180638E+02 0.  0.
          6    2    1    2  501    0  0.22021297394E+03 -0.22630255402E+03 -0.19069815576E+03  0.40610508182E+03  0.16984978960E+03 0.  0.
         24    2    5    5    0    0  0.17649303294E+03 -0.90952976926E+02 -0.13552579035E+03  0.25347146441E+03  0.80363603275E+02 0.  0.
          5    1    5    5  501    0  0.43719940995E+02 -0.13534957709E+03 -0.55172365410E+02  0.15263361741E+03  0.47000000000E+01 0. -1.
        -11    1    6    6    0    0  0.44884611086E+02 -0.57188172262E+02 -0.75880398265E+02  0.10508544238E+03  0.00000000000E+00 0.  1.
         12    1    6    6    0    0  0.13160842185E+03 -0.33764804665E+02 -0.59645392083E+02  0.14838602203E+03  0.00000000000E+00 0. -1.
         -5    1    3    3    0  503 -0.21870614164E+03  0.17200303365E+03 -0.37987629597E+03  0.47089861989E+03  0.47000000000E+01 0.  1.
         11    1    4    4    0    0 -0.11580632758E+02  0.69141592619E+01  0.50794788291E+01  0.14412416819E+02  0.00000000000E+00 0. -1.
        -12    1    4    4    0    0  0.10073800459E+02  0.47385361106E+02 -0.87309776086E+02  0.99849140722E+02  0.00000000000E+00 0.  1.
</event>
<event>
12    1  0.8461994E-002  0.1871349E+03  0.7818608E-02  0.1161756E+00
         21   -1    0    0  503  502  0.00000000000E+00  0.00000000000E+00  0.12389017028E+03  0.12389017028E+03  0.00000000000E+00 0. -1.
         21   -1    0    0  501  503 -0.00000000000E+00 -0.00000000000E+00 -0.46964692969E+03  0.46964692969E+03  0.00000000000E+00 0.  1.
          6    2    1    2  501    0  0.16656145009E+02 -0.71564904740E+02 -0.36315323932E+03  0.40853364373E+03  0.17210607214E+03 0.  0.
         24    2    3    3    0    0  0.12573709244E+02 -0.10970069589E+03 -0.20854663581E+03  0.24917148794E+03  0.80014937659E+02 0.  0.
         -6    2    1    2    0  502 -0.16656145009E+02  0.71564904740E+02  0.17396479912E+02  0.18500345624E+03  0.16889250590E+03 0.  0.
        -24    2    5    5    0    0 -0.57681989712E+02  0.94557750931E+02  0.22649114354E+02  0.13744852928E+03  0.78171194328E+02 0.  0.
          5    1    3    3  501    0  0.40824357654E+01  0.38135791153E+02 -0.15460660352E+03  0.15936215579E+03  0.47000000000E+01 0. -1.
        -13    1    4    4    0    0  0.95579496795E+01 -0.50546885784E+02 -0.17210396033E+03  0.17962771285E+03  0.00000000000E+00 0.  1.
         14    1    4    4    0    0  0.30157595641E+01 -0.59153810110E+02 -0.36442675481E+02  0.69543775081E+02  0.00000000000E+00 0. -1.
         -5    1    5    5    0  502  0.41025844703E+02 -0.22992846190E+02 -0.52526344419E+01  0.47554926959E+02  0.47000000000E+01 0.  1.
         13    1    6    6    0    0 -0.58694044587E+02  0.27701124736E+02  0.27326723618E+02  0.70420827923E+02  0.00000000000E+00 0. -1.
        -14    1    6    6    0    0  0.10120548751E+01  0.66856626194E+02 -0.46776092640E+01  0.67027701360E+02  0.00000000000E+00 0.  1.
</event>
<event>
12    1  0.8461994E-002  0.1793629E+03  0.7818608E-02  0.1168836E+00
         21   -1    0    0  501  502  0.00000000000E+00  0.00000000000E+00  0.13825063367E+03  0.13825063367E+03  0.00000000000E+00 0.  1.
         21   -1    0    0  502  503 -0.00000000000E+00 -0.00000000000E+00 -0.31179901131E+03  0.31179901131E+03  0.00000000000E+00 0.  1.
         -6    2    1    2    0  503  0.41798010342E+02 -0.18455635236E+02 -0.20136913520E+03  0.26854196150E+03  0.17169033850E+03 0.  0.
        -24    2    3    3    0    0  0.45498649317E+02  0.37291415957E+02 -0.37959216006E+02  0.95781085905E+02  0.65363120669E+02 0.  0.
          6    2    1    2  501    0 -0.41798010342E+02  0.18455635236E+02  0.27820757563E+02  0.18150768348E+03  0.17344555478E+03 0.  0.
         24    2    5    5    0    0 -0.42267368874E+02 -0.24901205306E+02  0.75047812874E+02  0.11722299890E+03  0.75514612864E+02 0.  0.
          5    1    5    5  501    0  0.46935853150E+00  0.43356840542E+02 -0.47227055311E+02  0.64284684588E+02  0.47000000000E+01 0. -1.
        -11    1    6    6    0    0  0.39064029458E+01  0.16575576164E+02  0.45299809278E+02  0.48395066172E+02  0.00000000000E+00 0.  1.
         12    1    6    6    0    0 -0.46173771820E+02 -0.41476781471E+02  0.29748003595E+02  0.68827932725E+02  0.00000000000E+00 0. -1.
         -5    1    3    3    0  503 -0.37006389752E+01 -0.55747051193E+02 -0.16340991919E+03  0.17276087559E+03  0.47000000000E+01 0.  1.
         13    1    4    4    0    0  0.36766012899E+02 -0.10300636328E+02 -0.84483110814E+01  0.39105201360E+02  0.00000000000E+00 0. -1.
        -14    1    4    4    0    0  0.87326364186E+01  0.47592052286E+02 -0.29510904925E+02  0.56675884546E+02  0.00000000000E+00 0.  1.
</event>
<event>
12    1  0.8461994E-002  0.3038626E+03  0.7818608E-02  0.1084124E+00
         21   -1    0    0  503  502  0.00000000000E+00  0.00000000000E+00  0.60990062898E+02  0.60990062898E+02  0.00000000000E+00 0. -1.
         21   -1    0    0  501  503 -0.00000000000E+00 -0.00000000000E+00 -0.18032084659E+04  0.18032084659E+04  0.00000000000E+00 0.  1.
          6    2    1    2  501    0  0.26431872567E+02 -0.25048538079E+03 -0.12720746127E+04  0.13078632549E+04  0.16997324301E+03 0.  0.
         24    2    3    3    0    0  0.20740480065E+02 -0.39459060562E+02 -0.36932361245E+03  0.38074624058E+03  0.81120798973E+02 0.  0.
         -6    2    1    2    0  502 -0.26431872567E+02  0.25048538079E+03 -0.47014379034E+03  0.55633527395E+03  0.15821562363E+03 0.  0.
        -24    2    5    5    0    0 -0.10137980149E+02  0.12007661950E+03 -0.13677957896E+03  0.19796992493E+03  0.77215702811E+02 0.  0.
          5    1    3    3  501    0  0.56913925021E+01 -0.21102632023E+03 -0.90275100025E+03  0.92711701432E+03  0.47000000000E+01 0. -1.
        -13    1    4    4    0    0  0.44799568398E+02 -0.71098689763E+01 -0.26592885465E+03  0.26976973014E+03  0.00000000000E+00 0.  1.
         14    1    4    4    0    0 -0.24059088332E+02 -0.32349191586E+02 -0.10339475780E+03  0.11097651043E+03  0.00000000000E+00 0. -1.
         -5    1    5    5    0  502 -0.16293892419E+02  0.13040876129E+03 -0.33336421138E+03  0.35836534902E+03  0.47000000000E+01 0.  1.
         13    1    6    6    0    0  0.14320150727E+01 -0.87885346508E+01 -0.26529965076E+02  0.27984425229E+02  0.00000000000E+00 0. -1.
        -14    1    6    6    0    0 -0.11569995222E+02  0.12886515415E+03 -0.11024961389E+03  0.16998549970E+03  0.00000000000E+00 0.  1.
</event>
<event>
12    1  0.8461994E-002  0.2321063E+03  0.7818608E-02  0.1125183E+00
         21   -1    0    0  501  502  0.00000000000E+00  0.00000000000E+00  0.30504549002E+02  0.30504549002E+02  0.00000000000E+00 0.  1.
         21   -1    0    0  502  503 -0.00000000000E+00 -0.00000000000E+00 -0.19517401980E+04  0.19517401980E+04  0.00000000000E+00 0.  1.
         -6    2    1    2    0  503 -0.15225965489E+03 -0.32127961932E+02 -0.12667246277E+04  0.12877967665E+04  0.17208724757E+03 0.  0.
        -24    2    3    3    0    0 -0.54381085117E+02  0.44938353177E+02 -0.60910140219E+03  0.61846140350E+03  0.80704593831E+02 0.  0.
          6    2    1    2  501    0  0.15225965489E+03  0.32127961932E+02 -0.65451102129E+03  0.69444798056E+03  0.17221530789E+03 0.  0.
         24    2    5    5    0    0  0.25315960039E+02 -0.27242692290E+02 -0.29021717551E+03  0.30409983811E+03  0.82871228175E+02 0.  0.
          5    1    5    5  501    0  0.12694369485E+03  0.59370654222E+02 -0.36429384578E+03  0.39034814245E+03  0.47000000000E+01 0. -1.
        -13    1    6    6    0    0  0.34814333396E+02  0.16910954002E+02 -0.77335386906E+02  0.86479941275E+02  0.00000000000E+00 0.  1.
         14    1    6    6    0    0 -0.94983733577E+01 -0.44153646292E+02 -0.21288178861E+03  0.21761989683E+03  0.00000000000E+00 0. -1.
         -5    1    3    3    0  503 -0.97878569769E+02 -0.77066315108E+02 -0.65762322555E+03  0.66933536297E+03  0.47000000000E+01 0.  1.
         13    1    4    4    0    0 -0.23250286468E+02  0.52601569785E+02 -0.52998104529E+03  0.53309230845E+03  0.00000000000E+00 0. -1.
        -14    1    4    4    0    0 -0.31130798649E+02 -0.76632166083E+01 -0.79120356897E+02  0.85369095045E+02  0.00000000000E+00 0.  1.
</event>
<event>
12    1  0.8461994E-002  0.2679456E+03  0.7818608E-02  0.1102546E+00
         21   -1    0    0  503  502  0.00000000000E+00  0.00000000000E+00  0.67542634903E+03  0.67542634903E+03  0.00000000000E+00 0. -1.
         21   -1    0    0  501  503 -0.00000000000E+00 -0.00000000000E+00 -0.10626104625E+03  0.10626104625E+03  0.00000000000E+00 0.  1.
          6    2    1    2  501    0  0.13217434669E+03  0.15404922223E+03  0.30113832951E+03  0.40269755241E+03  0.17401093191E+03 0.  0.
         24    2    3    3    0    0  0.14452344893E+03  0.17513267395E+03  0.28481595442E+03  0.37293982752E+03  0.80034406849E+02 0.  0.
         -6    2    1    2    0  502 -0.13217434669E+03 -0.15404922223E+03  0.26802697327E+03  0.37898984288E+03  0.17491032505E+03 0.  0.
        -24    2    5    5    0    0 -0.15952185097E+03 -0.15731310555E+03  0.22631131867E+03  0.32878202712E+03  0.81769030118E+02 0.  0.
          5    1    3    3  501    0 -0.12349102232E+02 -0.21083451720E+02  0.16322375086E+02  0.29757724893E+02  0.47000000000E+01 0. -1.
        -13    1    4    4    0    0  0.93928096679E+02  0.69656304019E+02  0.98263630206E+02  0.15274236170E+03  0.00000000000E+00 0.  1.
         14    1    4    4    0    0  0.50595352247E+02  0.10547636993E+03  0.18655232422E+03  0.22019746582E+03  0.00000000000E+00 0. -1.
         -5    1    5    5    0  502  0.27347504274E+02  0.32638833169E+01  0.41715654597E+02  0.50207815754E+02  0.47000000000E+01 0.  1.
         13    1    6    6    0    0 -0.94096748412E+02 -0.58611356791E+02  0.15495799994E+03  0.19052944904E+03  0.00000000000E+00 0. -1.
        -14    1    6    6    0    0 -0.65425102556E+02 -0.98701748758E+02  0.71353318735E+02  0.13825257808E+03  0.00000000000E+00 0.  1.
</event>
<event>
12    1  0.8461994E-002  0.1829452E+03  0.7818608E-02  0.1167075E+00
         21   -1    0    0  501  502  0.00000000000E+00  0.00000000000E+00  0.46064161232E+02  0.46064161232E+02  0.00000000000E+00 0. -1.
         21   -1    0    0  502  503 -0.00000000000E+00 -0.00000000000E+00 -0.88608775493E+03  0.88608775493E+03  0.00000000000E+00 0. -1.
         -6    2    1    2    0  503 -0.50037873131E+02  0.36622535396E+02 -0.62973781096E+03  0.65342433307E+03  0.16293756365E+03 0.  0.
        -24    2    3    3    0    0  0.70102251613E+01 -0.24583963928E+02 -0.25424930962E+03  0.26869790336E+03  0.83080306262E+02 0.  0.
          6    2    1    2  501    0  0.50037873131E+02 -0.36622535396E+02 -0.21028578273E+03  0.27872758309E+03  0.17211611286E+03 0.  0.
         24    2    5    5    0    0 -0.39293845984E+02 -0.35532575011E+02 -0.94202525552E+02  0.13217125722E+03  0.76082555135E+02 0.  0.
          5    1    5    5  501    0  0.89331719115E+02 -0.10899603846E+01 -0.11608325718E+03  0.14655632587E+03  0.47000000000E+01 0. -1.
        -11    1    6    6    0    0 -0.27510629847E+02 -0.59222964932E+02 -0.75201323129E+02  0.99596351992E+02  0.00000000000E+00 0.  1.
         12    1    6    6    0    0 -0.11783216137E+02  0.23690389920E+02 -0.19001202423E+02  0.32574905228E+02  0.00000000000E+00 0. -1.
         -5    1    3    3    0  503 -0.57048098292E+02  0.61206499324E+02 -0.37548850134E+03  0.38472642971E+03  0.47000000000E+01 0.  1.
         13    1    4    4    0    0 -0.35454060754E+02 -0.26735131623E+02 -0.13058425086E+03  0.13792753264E+03  0.00000000000E+00 0. -1.
        -14    1    4    4    0    0  0.42464285915E+02  0.21511676951E+01 -0.12366505876E+03  0.13077037072E+03  0.00000000000E+00 0.  1.
</event>
<event>
12    1  0.8461994E-002  0.2269344E+03  0.7818608E-02  0.1128899E+00
         21   -1    0    0  501  502  0.00000000000E+00  0.00000000000E+00  0.60122434216E+02  0.60122434216E+02  0.00000000000E+00 0. -1.
         21   -1    0    0  502  503 -0.00000000000E+00 -0.00000000000E+00 -0.94744894951E+03  0.94744894951E+03  0.00000000000E+00 0. -1.
         -6    2    1    2    0  503 -0.39453948381E+02  0.13927145662E+03 -0.60076733685E+03  0.64203703187E+03  0.17417521235E+03 0.  0.
        -24    2    3    3    0    0 -0.36007339593E+02  0.97488881584E+02 -0.58063743235E+03  0.59529341472E+03  0.80211041832E+02 0.  0.
          6    2    1    2  501    0  0.39453948381E+02 -0.13927145662E+03 -0.28655917845E+03  0.36553435186E+03  0.17477427431E+03 0.  0.
         24    2    5    5    0    0 -0.17588232466E+02 -0.48149076429E+02 -0.53381142265E+02  0.10872472368E+03  0.79648224755E+02 0.  0.
          5    1    5    5  501    0  0.57042180847E+02 -0.91122380193E+02 -0.23317803619E+03  0.25680962819E+03  0.47000000000E+01 0. -1.
        -13    1    6    6    0    0 -0.48105067009E+02 -0.34184455391E+02 -0.44778121522E+02  0.74079380595E+02  0.00000000000E+00 0.  1.
         14    1    6    6    0    0  0.30516834543E+02 -0.13964621038E+02 -0.86030207431E+01  0.34645343081E+02  0.00000000000E+00 0. -1.
         -5    1    3    3    0  503 -0.34466087884E+01  0.41782575038E+02 -0.20129904500E+02  0.46743617148E+02  0.47000000000E+01 0.  1.
         13    1    4    4    0    0 -0.54950562888E+02  0.65093237559E+02 -0.29029511308E+03  0.30253586005E+03  0.00000000000E+00 0. -1.
        -14    1    4    4    0    0  0.18943223295E+02  0.32395644025E+02 -0.29034231927E+03  0.29275755467E+03  0.00000000000E+00 0.  1.
</event>
<event>
12    1  0.8461994E-002  0.3095632E+03  0.7818608E-02  0.1080579E+00
         21   -1    0    0  501  502  0.00000000000E+00  0.00000000000E+00  0.88320275989E+03  0.88320275989E+03  0.00000000000E+00 0. -1.
         21   -1    0    0  502  503 -0.00000000000E+00 -0.00000000000E+00 -0.19194709815E+03  0.19194709815E+03  0.00000000000E+00 0.  1.
         -6    2    1    2    0  503 -0.82238895658E+02 -0.24388989941E+03 -0.89013556609E+01  0.30969112566E+03  0.17199953542E+03 0.  0.
        -24    2    3    3    0    0 -0.13962884404E+02 -0.16122910387E+03  0.50189576499E+02  0.18718296635E+03  0.79553021497E+02 0.  0.
          6    2    1    2  501    0  0.82238895658E+02  0.24388989941E+03  0.70015701741E+03  0.76545873238E+03  0.17164411718E+03 0.  0.
         24    2    5    5    0    0  0.10752911507E+03  0.12109526028E+03  0.34999364738E+03  0.39349825827E+03  0.78222460973E+02 0.  0.
          5    1    5    5  501    0 -0.25290219413E+02  0.12279463913E+03  0.35016337002E+03  0.37196047411E+03  0.47000000000E+01 0. -1.
        -11    1    6    6    0    0  0.76669224674E+02  0.12692067042E+03  0.29498034009E+03  0.33015212801E+03  0.00000000000E+00 0.  1.
         12    1    6    6    0    0  0.30859890398E+02 -0.58254101438E+01  0.55013307296E+02  0.63346130256E+02  0.00000000000E+00 0. -1.
         -5    1    3    3    0  503 -0.68276011255E+02 -0.82660795545E+02 -0.59090932160E+02  0.12250815931E+03  0.47000000000E+01 0.  1.
         11    1    4    4    0    0  0.24578199545E+01  0.88401493159E+01  0.49933828344E+01  0.10446195048E+02  0.00000000000E+00 0. -1.
        -12    1    4    4    0    0 -0.16420704358E+02 -0.17006925318E+03  0.45196193665E+02  0.17673677131E+03  0.00000000000E+00 0.  1.
</event>
<event>
12    1  0.8461994E-002  0.1726459E+03  0.7818608E-02  0.1175559E+00
         21   -1    0    0  503  502  0.00000000000E+00  0.00000000000E+00  0.52140184701E+03  0.52140184701E+03  0.00000000000E+00 0. -1.
         21   -1    0    0  501  503 -0.00000000000E+00 -0.00000000000E+00 -0.11947972727E+03  0.11947972727E+03  0.00000000000E+00 0. -1.
          6    2    1    2  501    0 -0.25052426651E+01 -0.18335940980E+02 -0.31985536632E+02  0.17388858672E+03  0.16991669449E+03 0.  0.
         24    2    3    3    0    0  0.40147739664E+02  0.78708462413E+01  0.29357865417E+02  0.94571655531E+02  0.80050749824E+02 0.  0.
         -6    2    1    2    0  502  0.25052426651E+01  0.18335940980E+02  0.43390765638E+03  0.46699298756E+03  0.17165113805E+03 0.  0.
        -24    2    5    5    0    0  0.29498675555E+02  0.70098774573E+02  0.19813462110E+03  0.22405461982E+03  0.71827115520E+02 0.  0.
          5    1    3    3  501    0 -0.42652982329E+02 -0.26206787222E+02 -0.61343402049E+02  0.79316931188E+02  0.47000000000E+01 0. -1.
        -13    1    4    4    0    0  0.55476533715E+02 -0.29700283570E+01  0.43913205996E+02  0.70815510464E+02  0.00000000000E+00 0.  1.
         14    1    4    4    0    0 -0.15328794050E+02  0.10840874598E+02 -0.14555340579E+02  0.23756145067E+02  0.00000000000E+00 0. -1.
         -5    1    5    5    0  502 -0.26993432890E+02 -0.51762833593E+02  0.23577303527E+03  0.24293836774E+03  0.47000000000E+01 0.  1.
         13    1    6    6    0    0  0.36398550490E+02  0.63071479867E+02  0.20101083083E+03  0.21379480854E+03  0.00000000000E+00 0. -1.
        -14    1    6    6    0    0 -0.68998749351E+01  0.70272947065E+01 -0.28762097203E+01  0.10259811273E+02  0.00000000000E+00 0.  1.
</event>
<event>
12    1  0.8461994E-002  0.2896753E+03  0.7818608E-02  0.1090527E+00
         21   -1    0    0  503  502  0.00000000000E+00  0.00000000000E+00  0.12923467246E+04  0.12923467246E+04  0.00000000000E+00 0. -1.
         21   -1    0    0  501  503 -0.00000000000E+00 -0.00000000000E+00 -0.65072468503E+02  0.65072468503E+02  0.00000000000E+00 0. -1.
          6    2    1    2  501    0 -0.38911596317E+02  0.22971683167E+03  0.58040807499E+03  0.64867968274E+03  0.17212745919E+03 0.  0.
         24    2    3    3    0    0 -0.50875210595E+01  0.14585397110E+03  0.21416400746E+03  0.27140809032E+03  0.80603136680E+02 0.  0.
         -6    2    1    2    0  502  0.38911596317E+02 -0.22971683167E+03  0.64686618111E+03  0.70873951037E+03  0.17202297000E+03 0.  0.
        -24    2    5    5    0    0  0.64071208135E+02 -0.20762891638E+03  0.62989574919E+03  0.67091137760E+03  0.78348804237E+02 0.  0.
          5    1    3    3  501    0 -0.33824075257E+02  0.83862860573E+02  0.36624406753E+03  0.37727159242E+03  0.47000000000E+01 0. -1.
        -13    1    4    4    0    0  0.34570257830E+02  0.96874081818E+02  0.14576610307E+03  0.17840248669E+03  0.00000000000E+00 0.  1.
         14    1    4    4    0    0 -0.39657778890E+02  0.48979889278E+02  0.68397904398E+02  0.93005603628E+02  0.00000000000E+00 0. -1.
         -5    1    5    5    0  502 -0.25159611818E+02 -0.22087915290E+02  0.16970431927E+02  0.37828132765E+02  0.47000000000E+01 0.  1.
         11    1    6    6    0    0  0.35410492077E+02 -0.94939628540E+02  0.18347479451E+03  0.20959588793E+03  0.00000000000E+00 0. -1.
        -12    1    6    6    0    0  0.28660716058E+02 -0.11268928784E+03  0.44642095468E+03  0.46131548967E+03  0.00000000000E+00 0.  1.
</event>
<event>
12    1  0.8461994E-002  0.2602462E+03  0.7818608E-02  0.1107262E+00
         21   -1    0    0  501  502  0.00000000000E+00  0.00000000000E+00  0.71380114813E+02  0.71380114813E+02  0.00000000000E+00 0.  1.
         21   -1    0    0  502  503 -0.00000000000E+00 -0.00000000000E+00 -0.10208967253E+04  0.10208967253E+04  0.00000000000E+00 0.  1.
         -6    2    1    2    0  503 -0.48301716984E+02  0.18673503034E+03 -0.32181506191E+03  0.41276428240E+03  0.17206507879E+03 0.  0.
        -24    2    3    3    0    0 -0.74577097135E+02  0.54188218521E+02 -0.18248498862E+03  0.21861482387E+03  0.77418109655E+02 0.  0.
          6    2    1    2  501    0  0.48301716984E+02 -0.18673503034E+03 -0.62770154860E+03  0.67951255772E+03  0.17471420828E+03 0.  0.
         24    2    5    5    0    0 -0.32497761090E+02 -0.48071337910E+02 -0.28111871336E+03  0.29754668629E+03  0.78353950253E+02 0.  0.
          5    1    5    5  501    0  0.80799478074E+02 -0.13866369243E+03 -0.34658283524E+03  0.38196587143E+03  0.47000000000E+01 0. -1.
        -11    1    6    6    0    0 -0.41729029390E+02  0.33053370186E+01 -0.16513452533E+03  0.17035741429E+03  0.00000000000E+00 0.  1.
         12    1    6    6    0    0  0.92312682996E+01 -0.51376674929E+02 -0.11598418803E+03  0.12718927201E+03  0.00000000000E+00 0. -1.
         -5    1    3    3    0  503  0.26275380152E+02  0.13254681182E+03 -0.13933007329E+03  0.19414945853E+03  0.47000000000E+01 0.  1.
         11    1    4    4    0    0 -0.56358187095E+02  0.39360716394E+02 -0.18261439777E+03  0.19512439499E+03  0.00000000000E+00 0. -1.
        -12    1    4    4    0    0 -0.18218910040E+02  0.14827502126E+02  0.12940915159E+00  0.23490428882E+02  0.00000000000E+00 0.  1.
</event>
<event>
12    1  0.8461994E-002  0.2229275E+03  0.7818608E-02  0.1132054E+00
         21   -1    0    0  503  502  0.00000000000E+00  0.00000000000E+00  0.11824339142E+03  0.11824339142E+03  0.00000000000E+00 0. -1.
         21   -1    0    0  501  503 -0.00000000000E+00 -0.00000000000E+00 -0.50964067848E+03  0.50964067848E+03  0.00000000000E+00 0. -1.
          6    2    1    2  501    0  0.10440348877E+03  0.97483432798E+02 -0.33030141875E+03  0.39849177706E+03  0.17115361820E+03 0.  0.
         24    2    3    3    0    0  0.14098455649E+03  0.75905302541E+02 -0.24875618187E+03  0.30642926635E+03  0.79881143794E+02 0.  0.
         -6    2    1    2    0  502 -0.10440348877E+03 -0.97483432798E+02 -0.61095868306E+02  0.22939229284E+03  0.16877503000E+03 0.  0.
        -24    2    5    5    0    0 -0.84623403423E+02 -0.36013252569E+02 -0.96708318057E+02  0.15549932016E+03  0.79808928207E+02 0.  0.
          5    1    3    3  501    0 -0.36581067727E+02  0.21578130257E+02 -0.81545236881E+02  0.92062510716E+02  0.47000000000E+01 0. -1.
        -13    1    4    4    0    0  0.35302691035E+02  0.22619255671E+02 -0.15202620130E+02  0.44598546840E+02  0.00000000000E+00 0.  1.
         14    1    4    4    0    0  0.10568186546E+03  0.53286046870E+02 -0.23355356174E+03  0.26183071951E+03  0.00000000000E+00 0. -1.
         -5    1    5    5    0  502 -0.19780085344E+02 -0.61470180229E+02  0.35612449751E+02  0.73892972676E+02  0.47000000000E+01 0.  1.
         13    1    6    6    0    0 -0.34768002275E+02  0.14729580257E+02 -0.30413259764E+01  0.37881713009E+02  0.00000000000E+00 0. -1.
        -14    1    6    6    0    0 -0.49855401147E+02 -0.50742832826E+02 -0.93666992080E+02  0.11761760715E+03  0.00000000000E+00 0.  1.
</event>
<event>
12    1  0.8461994E-002  0.2595691E+03  0.7818608E-02  0.1107444E+00
         21   -1    0    0  501  502  0.00000000000E+00  0.00000000000E+00  0.14054691333E+03  0.14054691333E+03  0.00000000000E+00 0. -1.
         21   -1    0    0  502  503 -0.00000000000E+00 -0.00000000000E+00 -0.48155078502E+03  0.48155078502E+03  0.00000000000E+00 0.  1.
         -6    2    1    2    0  503 -0.15880097487E+03 -0.11097494079E+03 -0.14720502873E+03  0.29816238044E+03  0.17233193995E+03 0.  0.
        -24    2    3    3    0    0 -0.63652081816E+01 -0.22920669253E+02 -0.80023928507E+02  0.10967999950E+03  0.71133678393E+02 0.  0.
          6    2    1    2  501    0  0.15880097487E+03  0.11097494079E+03 -0.19379884296E+03  0.32393531790E+03  0.17275101028E+03 0.  0.
         24    2    5    5    0    0  0.95620949823E+02  0.68832703186E+02 -0.20264873694E+03  0.24733182988E+03  0.78900040634E+02 0.  0.
          5    1    5    5  501    0  0.63180025043E+02  0.42142237602E+02  0.88498939866E+01  0.76603488028E+02  0.47000000000E+01 0. -1.
        -13    1    6    6    0    0  0.91266963285E+02  0.26122219955E+02 -0.11053893246E+03  0.14570821717E+03  0.00000000000E+00 0.  1.
         14    1    6    6    0    0  0.43539865383E+01  0.42710483232E+02 -0.92109804483E+02  0.10162361270E+03  0.00000000000E+00 0. -1.
         -5    1    3    3    0  503 -0.15243576668E+03 -0.88054271535E+02 -0.67181100224E+02  0.18848238095E+03  0.47000000000E+01 0.  1.
         11    1    4    4    0    0 -0.30652378856E+02 -0.33846821398E+02 -0.35666815411E+02  0.57942189895E+02  0.00000000000E+00 0. -1.
        -12    1    4    4    0    0  0.24287170675E+02  0.10926152146E+02 -0.44357113097E+02  0.51737809601E+02  0.00000000000E+00 0.  1.
</event>
<event>
12    1  0.8461994E-002  0.2169779E+03  0.7818608E-02  0.1136180E+00
         21   -1    0    0  503  502  0.00000000000E+00  0.00000000000E+00  0.70402358680E+03  0.70402358680E+03  0.00000000000E+00 0. -1.
         21   -1    0    0  501  503 -0.00000000000E+00 -0.00000000000E+00 -0.80950659637E+02  0.80950659637E+02  0.00000000000E+00 0. -1.
          6    2    1    2  501    0  0.11138203961E+03 -0.71156624786E+02  0.14756023811E+03  0.26229678167E+03  0.17191961437E+03 0.  0.
         24    2    3    3    0    0  0.33302573774E+02  0.20992449065E+01  0.10693239699E+02  0.88464993198E+02  0.81229559872E+02 0.  0.
         -6    2    1    2    0  502 -0.11138203961E+03  0.71156624786E+02  0.47551268906E+03  0.52267746477E+03  0.17207611899E+03 0.  0.
        -24    2    5    5    0    0 -0.83792007688E+02 -0.18899354864E+02  0.32155793047E+03  0.34213537266E+03  0.79239033372E+02 0.  0.
          5    1    3    3  501    0  0.78079465836E+02 -0.73255869693E+02  0.13686699841E+03  0.17383178847E+03  0.47000000000E+01 0. -1.
        -11    1    4    4    0    0 -0.36568230348E+01 -0.27182741628E+02  0.27081937064E+02  0.38544845469E+02  0.00000000000E+00 0.  1.
         12    1    4    4    0    0  0.36959396809E+02  0.29281986534E+02 -0.16388697365E+02  0.49920147728E+02  0.00000000000E+00 0. -1.
         -5    1    5    5    0  502 -0.27590031923E+02  0.90055979651E+02  0.15395475859E+03  0.18054209211E+03  0.47000000000E+01 0.  1.
         11    1    6    6    0    0 -0.62563096069E+02  0.15111883029E+02  0.11558472098E+03  0.13229640102E+03  0.00000000000E+00 0. -1.
        -12    1    6    6    0    0 -0.21228911619E+02 -0.34011237894E+02  0.20597320949E+03  0.20983897164E+03  0.00000000000E+00 0.  1.
</event>
<event>
12    1  0.8461994E-002  0.3317661E+03  0.7818608E-02  0.1070487E+00
         21   -1    0    0  503  502  0.00000000000E+00  0.00000000000E+00  0.98470888923E+03  0.98470888923E+03  0.00000000000E+00 0.  1.
         21   -1    0    0  501  503 -0.00000000000E+00 -0.00000000000E+00 -0.11362014917E+03  0.11362014917E+03  0.00000000000E+00 0. -1.
          6    2    1    2  501    0  0.61575062202E+02  0.27607351137E+03  0.51183510629E+03  0.60931787837E+03  0.17112869107E+03 0.  0.
         24    2    3    3    0    0  0.40078929977E+02  0.28731994706E+03  0.44602080396E+03  0.53901724959E+03  0.86290006286E+02 0.  0.
         -6    2    1    2    0  502 -0.61575062202E+02 -0.27607351137E+03  0.35925363377E+03  0.48901116002E+03  0.17338012944E+03 0.  0.
        -24    2    5    5    0    0 -0.10971207891E+02 -0.38475448195E+02  0.10891855145E+03  0.14015111196E+03  0.78602517879E+02 0.  0.
          5    1    3    3  501    0  0.21496132225E+02 -0.11246435683E+02  0.65814302324E+02  0.70300628778E+02  0.47000000000E+01 0. -1.
        -11    1    4    4    0    0  0.13883538690E+02  0.12048835364E+03  0.26509915414E+03  0.29152659833E+03  0.00000000000E+00 0.  1.
         12    1    4    4    0    0  0.26195391287E+02  0.16683159342E+03  0.18092164983E+03  0.24749065126E+03  0.00000000000E+00 0. -1.
         -5    1    5    5    0  502 -0.50603854310E+02 -0.23759806318E+03  0.25033508231E+03  0.34886004806E+03  0.47000000000E+01 0.  1.
         13    1    6    6    0    0 -0.31552498216E+01 -0.14220419594E+02 -0.10556029008E+02  0.17989043423E+02  0.00000000000E+00 0. -1.
        -14    1    6    6    0    0 -0.78159580698E+01 -0.24255028601E+02  0.11947458046E+03  0.12216206854E+03  0.00000000000E+00 0.  1.
</event>
<event>
12    1  0.8461994E-002  0.1957818E+03  0.7818608E-02  0.1153480E+00
         21   -1    0    0  501  502  0.00000000000E+00  0.00000000000E+00  0.17789431653E+03  0.17789431653E+03  0.00000000000E+00 0. -1.
         21   -1    0    0  502  503 -0.00000000000E+00 -0.00000000000E+00 -0.35333376689E+03  0.35333376689E+03  0.00000000000E+00 0. -1.
         -6    2    1    2    0  503  0.32338818185E+02 -0.85358126320E+02 -0.25395560718E+03  0.32028900935E+03  0.17251026115E+03 0.  0.
        -24    2    3    3    0    0  0.43849974875E+02  0.95942522227E+01 -0.17893475209E+03  0.19863918560E+03  0.73654671125E+02 0.  0.
          6    2    1    2  501    0 -0.32338818185E+02  0.85358126320E+02  0.78516156813E+02  0.21093907407E+03  0.17320131985E+03 0.  0.
         24    2    5    5    0    0  0.45522878279E+01 -0.20951835816E+02  0.33073771321E+02  0.89490063572E+02  0.80342357323E+02 0.  0.
          5    1    5    5  501    0 -0.36891106013E+02  0.10630996214E+03  0.45442385492E+02  0.12144901050E+03  0.47000000000E+01 0. -1.
        -13    1    6    6    0    0  0.96236512913E+01 -0.31850664527E+02 -0.17439493204E+02  0.37566147236E+02  0.00000000000E+00 0.  1.
         14    1    6    6    0    0 -0.50713634634E+01  0.10898828711E+02  0.50513264525E+02  0.51923916336E+02  0.00000000000E+00 0. -1.
         -5    1    3    3    0  503 -0.11511156691E+02 -0.94952378543E+02 -0.75020855087E+02  0.12164982375E+03  0.47000000000E+01 0.  1.
         11    1    4    4    0    0  0.18807563807E+02 -0.26863589331E+02 -0.34563563288E+02  0.47644693254E+02  0.00000000000E+00 0. -1.
        -12    1    4    4    0    0  0.25042411068E+02  0.36457841554E+02 -0.14437118881E+03  0.15099449235E+03  0.00000000000E+00 0.  1.
</event>
<event>
12    1  0.8461994E-002  0.2009510E+03  0.7818608E-02  0.1149092E+00
         21   -1    0    0  503  502  0.00000000000E+00  0.00000000000E+00  0.34543674457E+03  0.34543674457E+03  0.00000000000E+00 0.  1.
         21   -1    0    0  501  503 -0.00000000000E+00 -0.00000000000E+00 -0.31011274642E+03  0.31011274642E+03  0.00000000000E+00 0.  1.
          6    2    1    2  501    0  0.10220552306E+03 -0.10456974348E+02 -0.24133206327E+03  0.31404214935E+03  0.17270202531E+03 0.  0.
         24    2    3    3    0    0  0.13191319334E+03 -0.37917068153E+02 -0.17958520002E+03  0.24007345633E+03  0.80905041452E+02 0.  0.
         -6    2    1    2    0  502 -0.10220552306E+03  0.10456974348E+02  0.27665606142E+03  0.34150734164E+03  0.17185275913E+03 0.  0.
        -24    2    5    5    0    0  0.14917047719E+02  0.11098052710E+02  0.10415351933E+03  0.13294721939E+03  0.80506661020E+02 0.  0.
          5    1    3    3  501    0 -0.29707670280E+02  0.27460093805E+02 -0.61746863252E+02  0.73968693018E+02  0.47000000000E+01 0. -1.
        -13    1    4    4    0    0  0.46611767818E+02 -0.50530460430E+02 -0.10789850865E+03  0.12793776807E+03  0.00000000000E+00 0.  1.
         14    1    4    4    0    0  0.85301425523E+02  0.12613392276E+02 -0.71686691368E+02  0.11213568825E+03  0.00000000000E+00 0. -1.
         -5    1    5    5    0  502 -0.11712257078E+03 -0.64107836244E+00  0.17250254209E+03  0.20856012226E+03  0.47000000000E+01 0.  1.
         11    1    6    6    0    0  0.17117602814E+01 -0.11358123030E+02  0.10619673771E+03  0.10681612323E+03  0.00000000000E+00 0. -1.
        -12    1    6    6    0    0  0.13205287438E+02  0.22456175741E+02 -0.20432183803E+01  0.26131096161E+02  0.00000000000E+00 0.  1.
</event>
<event>
12    1  0.8461994E-002  0.4194044E+03  0.7818608E-02  0.1037262E+00
         21   -1    0    0  503  502  0.00000000000E+00  0.00000000000E+00  0.27218741863E+03  0.27218741863E+03  0.00000000000E+00 0.  1.
         21   -1    0    0  501  503 -0.00000000000E+00 -0.00000000000E+00 -0.67310439213E+03  0.67310439213E+03  0.00000000000E+00 0. -1.
          6    2    1    2  501    0 -0.14755755300E+03 -0.35289508377E+03 -0.29493047108E+03  0.51270282526E+03  0.17196520771E+03 0.  0.
         24    2    3    3    0    0 -0.17735817732E+03 -0.32529797506E+03 -0.26698027333E+03  0.46317524534E+03  0.77318470665E+02 0.  0.
         -6    2    1    2    0  502  0.14755755300E+03  0.35289508377E+03 -0.10598650242E+03  0.43258898551E+03  0.17202302198E+03 0.  0.
        -24    2    5    5    0    0  0.67313167003E+02  0.20433625106E+03 -0.12912990693E+03  0.26209970305E+03  0.75745333366E+02 0.  0.
          5    1    3    3  501    0  0.29800624317E+02 -0.27597108705E+02 -0.27950197747E+02  0.49527579919E+02  0.47000000000E+01 0. -1.
        -13    1    4    4    0    0 -0.17629978057E+03 -0.26570359862E+03 -0.22620222360E+03  0.39095710879E+03  0.00000000000E+00 0.  1.
         14    1    4    4    0    0 -0.10583967467E+01 -0.59594376446E+02 -0.40778049729E+02  0.72218136554E+02  0.00000000000E+00 0. -1.
         -5    1    5    5    0  502  0.80244385996E+02  0.14855883271E+03  0.23143404511E+02  0.17048928246E+03  0.47000000000E+01 0.  1.
         11    1    6    6    0    0 -0.27344329102E+01  0.51610549913E+02 -0.25737489833E+01  0.51746982226E+02  0.00000000000E+00 0. -1.
        -12    1    6    6    0    0  0.70047599914E+02  0.15272570115E+03 -0.12655615795E+03  0.21035272083E+03  0.00000000000E+00 0.  1.
</event>
<event>
12    1  0.8461994E-002  0.3545091E+03  0.7818608E-02  0.1060785E+00
         21   -1    0    0  503  502  0.00000000000E+00  0.00000000000E+00  0.17445509333E+03  0.17445509333E+03  0.00000000000E+00 0.  1.
         21   -1    0    0  501  503 -0.00000000000E+00 -0.00000000000E+00 -0.76513898577E+03  0.76513898577E+03  0.00000000000E+00 0. -1.
          6    2    1    2  501    0 -0.30627095022E+03  0.48004780675E+02 -0.40907118987E+03  0.54127275591E+03  0.17184470897E+03 0.  0.
         24    2    3    3    0    0 -0.13994699651E+03  0.16727483778E+02 -0.10798838659E+03  0.19585290803E+03  0.82655304746E+02 0.  0.
         -6    2    1    2    0  502  0.30627095022E+03 -0.48004780675E+02 -0.18161270257E+03  0.39832132318E+03  0.17196031185E+03 0.  0.
        -24    2    5    5    0    0  0.15379353297E+03  0.23377219637E+02 -0.14381006088E+03  0.22570648472E+03  0.77866157301E+02 0.  0.
          5    1    3    3  501    0 -0.16632395371E+03  0.31277296897E+02 -0.30108280328E+03  0.34541984788E+03  0.47000000000E+01 0. -1.
        -13    1    4    4    0    0 -0.62271625894E+01 -0.20362202484E+02 -0.22929837119E+01  0.21416223248E+02  0.00000000000E+00 0.  1.
         14    1    4    4    0    0 -0.13371983392E+03  0.37089686262E+02 -0.10569540288E+03  0.17443668479E+03  0.00000000000E+00 0. -1.
         -5    1    5    5    0  502  0.15247741725E+03 -0.71382000311E+02 -0.37802641695E+02  0.17261483846E+03  0.47000000000E+01 0.  1.
         11    1    6    6    0    0  0.62029606349E+01 -0.11546698105E+02 -0.39537959878E+02  0.41653970148E+02  0.00000000000E+00 0. -1.
        -12    1    6    6    0    0  0.14759057234E+03  0.34923917741E+02 -0.10427210100E+03  0.18405251457E+03  0.00000000000E+00 0.  1.
</event>
<event>
12    1  0.8461994E-002  0.1790910E+03  0.7818608E-02  0.1169734E+00
         21   -1    0    0  503  502  0.00000000000E+00  0.00000000000E+00  0.33501329699E+02  0.33501329699E+02  0.00000000000E+00 0. -1.
         21   -1    0    0  501  503 -0.00000000000E+00 -0.00000000000E+00 -0.93645781071E+03  0.93645781071E+03  0.00000000000E+00 0. -1.
          6    2    1    2  501    0 -0.29807680000E+02 -0.42438481916E+02 -0.46641286868E+03  0.49810755260E+03  0.16697499020E+03 0.  0.
         24    2    3    3    0    0  0.12235016260E+02  0.11491655252E+02 -0.10887072430E+03  0.13405464022E+03  0.76394097889E+02 0.  0.
         -6    2    1    2    0  502  0.29807680000E+02  0.42438481916E+02 -0.43654361233E+03  0.47185158781E+03  0.17141783138E+03 0.  0.
        -24    2    5    5    0    0  0.24691791792E+02  0.88625072942E+02 -0.38056884308E+03  0.39895002201E+03  0.76579289653E+02 0.  0.
          5    1    3    3  501    0 -0.42042696260E+02 -0.53930137167E+02 -0.35754214438E+03  0.36405291238E+03  0.47000000000E+01 0. -1.
        -11    1    4    4    0    0  0.25220186208E+02  0.62662119514E+01 -0.11562765042E+03  0.11851192660E+03  0.00000000000E+00 0.  1.
         12    1    4    4    0    0 -0.12985169948E+02  0.52254433004E+01  0.67569261178E+01  0.15542713625E+02  0.00000000000E+00 0. -1.
         -5    1    5    5    0  502  0.51158882088E+01 -0.46186591026E+02 -0.55974769247E+02  0.72901565793E+02  0.47000000000E+01 0.  1.
         11    1    6    6    0    0  0.34362406418E+02  0.42197067847E+02 -0.30438455634E+03  0.30921081102E+03  0.00000000000E+00 0. -1.
        -12    1    6    6    0    0 -0.96706146268E+01  0.46428005094E+02 -0.76184286740E+02  0.89739210997E+02  0.00000000000E+00 0.  1.
</event>
<event>
12    1  0.8461994E-002  0.1816171E+03  0.7818608E-02  0.1166471E+00
         21   -1    0    0  503  502  0.00000000000E+00  0.00000000000E+00  0.43112221013E+03  0.43112221013E+03  0.00000000000E+00 0. -1.
         21   -1    0    0  501  503 -0.00000000000E+00 -0.00000000000E+00 -0.11613857415E+03  0.11613857415E+03  0.00000000000E+00 0. -1.
          6    2    1    2  501    0 -0.29598758954E+02 -0.47506199503E+02 -0.28719451267E+01  0.18163979109E+03  0.17277685063E+03 0.  0.
         24    2    3    3    0    0 -0.67560959936E+01 -0.84734746355E+02 -0.33431588508E+02  0.12812592601E+03  0.89849650710E+02 0.  0.
         -6    2    1    2    0  502  0.29598758954E+02  0.47506199503E+02  0.31785558111E+03  0.36562099319E+03  0.17179526971E+03 0.  0.
        -24    2    5    5    0    0  0.80066908134E+02  0.46847033981E+01  0.22762221265E+03  0.25361712989E+03  0.77955889177E+02 0.  0.
          5    1    3    3  501    0 -0.22842662961E+02  0.37228546853E+02  0.30559643382E+02  0.53513865077E+02  0.47000000000E+01 0. -1.
        -13    1    4    4    0    0 -0.35656841612E+02 -0.60862051765E+02  0.94519988745E+01  0.71168391731E+02  0.00000000000E+00 0.  1.
         14    1    4    4    0    0  0.28900745619E+02 -0.23872694591E+02 -0.42883587383E+02  0.56957534279E+02  0.00000000000E+00 0. -1.
         -5    1    5    5    0  502 -0.50468149179E+02  0.42821496105E+02  0.90233368459E+02  0.11200386330E+03  0.47000000000E+01 0.  1.
         13    1    6    6    0    0  0.93541455823E+01 -0.29058100667E+02  0.92678279850E+02  0.97576312750E+02  0.00000000000E+00 0. -1.
        -14    1    6    6    0    0  0.70712762551E+02  0.33742804065E+02  0.13494393280E+03  0.15604081714E+03  0.00000000000E+00 0.  1.
</event>
<event>
12    1  0.8461994E-002  0.2225788E+03  0.7818608E-02  0.1132180E+00
         21   -1    0    0  501  502  0.00000000000E+00  0.00000000000E+00  0.17293050749E+03  0.17293050749E+03  0.00000000000E+00 0. -1.
         21   -1    0    0  502  503 -0.00000000000E+00 -0.00000000000E+00 -0.28527887892E+03  0.28527887892E+03  0.00000000000E+00 0.  1.
         -6    2    1    2    0  503 -0.62582441387E+02 -0.12560705125E+03 -0.62575247307E+02  0.23013336401E+03  0.17132428421E+03 0.  0.
        -24    2    3    3    0    0 -0.46685371797E+02 -0.14527326454E+03 -0.10416251710E+02  0.17197730166E+03  0.78637450732E+02 0.  0.
          6    2    1    2  501    0  0.62582441387E+02  0.12560705125E+03 -0.49773124125E+02  0.22807602240E+03  0.17276462258E+03 0.  0.
         24    2    5    5    0    0  0.10602598374E+03  0.11003422043E+03 -0.55519176668E+02  0.18133245010E+03  0.80312138482E+02 0.  0.
          5    1    5    5  501    0 -0.43443542353E+02  0.15572830825E+02  0.57460525431E+01  0.46743572306E+02  0.47000000000E+01 0. -1.
        -13    1    6    6    0    0  0.49088836087E+02  0.98680791928E+02 -0.16655894284E+02  0.11146762462E+03  0.00000000000E+00 0.  1.
         14    1    6    6    0    0  0.56937147653E+02  0.11353428501E+02 -0.38863282384E+02  0.69864825480E+02  0.00000000000E+00 0. -1.
         -5    1    3    3    0  503 -0.15897069590E+02  0.19666213283E+02 -0.52158995598E+02  0.58156062351E+02  0.47000000000E+01 0.  1.
         13    1    4    4    0    0 -0.61592852528E+02 -0.77480930571E+02  0.10365667431E+02  0.99520958325E+02  0.00000000000E+00 0. -1.
        -14    1    4    4    0    0  0.14907480731E+02 -0.67792333966E+02 -0.20781919141E+02  0.72456343335E+02  0.00000000000E+00 0.  1.
</event>
<event>
12    1  0.8461994E-002  0.2743983E+03  0.7818608E-02  0.1098861E+00
         21   -1    0    0  503  502  0.00000000000E+00  0.00000000000E+00  0.31171835265E+02  0.31171835265E+02  0.00000000000E+00 0.  1.
         21   -1    0    0  501  503 -0.00000000000E+00 -0.00000000000E+00 -0.25503475008E+04  0.25503475008E+04  0.00000000000E+00 0. -1.
          6    2    1    2  501    0  0.20272293335E+03 -0.64934832952E+02 -0.15602523584E+04  0.15841085309E+04  0.17233483575E+03 0.  0.
         24    2    3    3    0    0  0.21262440235E+03 -0.31390659857E+02 -0.14568965843E+04  0.14748942614E+04  0.81061179576E+02 0.  0.
         -6    2    1    2    0  502 -0.20272293335E+03  0.64934832952E+02 -0.95892330715E+03  0.99741080515E+03  0.17315104681E+03 0.  0.
        -24    2    5    5    0    0 -0.19559370314E+03  0.39971547556E+02 -0.94153355284E+03  0.96581199036E+03  0.80329000301E+02 0.  0.
          5    1    3    3  501    0 -0.99014689947E+01 -0.33544173095E+02 -0.10335577404E+03  0.10921426950E+03  0.47000000000E+01 0. -1.
        -13    1    4    4    0    0  0.14918908197E+02  0.19590784714E+02 -0.12042327759E+03  0.12291516771E+03  0.00000000000E+00 0.  1.
         14    1    4    4    0    0  0.19770549415E+03 -0.50981444571E+02 -0.13364733067E+04  0.13519790937E+04  0.00000000000E+00 0. -1.
         -5    1    5    5    0  502 -0.71292302110E+01  0.24963285396E+02 -0.17389754310E+02  0.31598814790E+02  0.47000000000E+01 0.  1.
         11    1    6    6    0    0 -0.97300694051E+01  0.20774279590E+02 -0.51530608585E+02  0.56406103963E+02  0.00000000000E+00 0. -1.
        -12    1    6    6    0    0 -0.18586363374E+03  0.19197267965E+02 -0.89000294425E+03  0.90940588640E+03  0.00000000000E+00 0.  1.
</event>
<event>
12    1  0.8461994E-002  0.1838044E+03  0.7818608E-02  0.1164739E+00
         21   -1    0    0  501  502  0.00000000000E+00  0.00000000000E+00  0.24502040976E+03  0.24502040976E+03  0.00000000000E+00 0.  1.
         21   -1    0    0  502  503 -0.00000000000E+00 -0.00000000000E+00 -0.14260326650E+03  0.14260326650E+03  0.00000000000E+00 0.  1.
         -6    2    1    2    0  503 -0.25262471080E+02  0.58171540832E+02  0.10113147367E+02  0.18408240839E+03  0.17251648246E+03 0.  0.
        -24    2    3    3    0    0 -0.66301444850E+01 -0.30355400580E+02 -0.24141795452E+02  0.87233691013E+02  0.77855516181E+02 0.  0.
          6    2    1    2  501    0  0.25262471080E+02 -0.58171540832E+02  0.92303995902E+02  0.20354126787E+03  0.16996146463E+03 0.  0.
         24    2    5    5    0    0  0.52214302341E+02 -0.80451135988E+01  0.12692052179E+01  0.96077399383E+02  0.80238385880E+02 0.  0.
          5    1    5    5  501    0 -0.26951831261E+02 -0.50126427233E+02  0.91034790684E+02  0.10746386849E+03  0.47000000000E+01 0. -1.
        -13    1    6    6    0    0  0.22955795350E+02 -0.36245998152E+02  0.24361295585E+02  0.49337750706E+02  0.00000000000E+00 0.  1.
         14    1    6    6    0    0  0.29258506991E+02  0.28200884553E+02 -0.23092090367E+02  0.46739648677E+02  0.00000000000E+00 0. -1.
         -5    1    3    3    0  503 -0.18632326595E+02  0.88526941411E+02  0.34254942819E+02  0.96848717377E+02  0.47000000000E+01 0.  1.
         11    1    4    4    0    0 -0.25266310214E+02 -0.41290808089E+02  0.74310914802E+01  0.48974875039E+02  0.00000000000E+00 0. -1.
        -12    1    4    4    0    0  0.18636165729E+02  0.10935407509E+02 -0.31572886932E+02  0.38258815974E+02  0.00000000000E+00 0.  1.
</event>
<event>
12    1  0.8461994E-002  0.1775099E+03  0.7818608E-02  0.1170850E+00
         21   -1    0    0  503  502  0.00000000000E+00  0.00000000000E+00  0.87892079028E+03  0.87892079028E+03  0.00000000000E+00 0.  1.
         21   -1    0    0  501  503 -0.00000000000E+00 -0.00000000000E+00 -0.42465558363E+02  0.42465558363E+02  0.00000000000E+00 0.  1.
          6    2    1    2  501    0 -0.24014697997E+02 -0.31303501755E+02  0.22722241163E+03  0.28682005029E+03  0.17052595685E+03 0.  0.
         24    2    3    3    0    0 -0.21640454042E+01 -0.37868207683E+01  0.23737699998E+02  0.80270451839E+02  0.76556148892E+02 0.  0.
         -6    2    1    2    0  502  0.24014697997E+02  0.31303501755E+02  0.60923282029E+03  0.63456629836E+03  0.17306976268E+03 0.  0.
        -24    2    5    5    0    0  0.20610396772E+02 -0.20547315920E+02  0.16925589393E+03  0.19150661583E+03  0.84736330032E+02 0.  0.
          5    1    3    3  501    0 -0.21850652593E+02 -0.27516680987E+02  0.20348471163E+03  0.20654959845E+03  0.47000000000E+01 0. -1.
        -13    1    4    4    0    0 -0.19399165477E+02 -0.34446624810E+02  0.21561715504E+02  0.45031157630E+02  0.00000000000E+00 0.  1.
         14    1    4    4    0    0  0.17235120073E+02  0.30659804042E+02  0.21759844941E+01  0.35239294209E+02  0.00000000000E+00 0. -1.
         -5    1    5    5    0  502  0.34043012250E+01  0.51850817676E+02  0.43997692635E+03  0.44305968253E+03  0.47000000000E+01 0.  1.
         13    1    6    6    0    0  0.42137482257E+02 -0.34940468759E+02  0.14866481224E+03  0.15842231587E+03  0.00000000000E+00 0. -1.
        -14    1    6    6    0    0 -0.21527085485E+02  0.14393152839E+02  0.20591081694E+02  0.33084299954E+02  0.00000000000E+00 0.  1.
</event>
<event>
12    1  0.8461994E-002  0.1880638E+03  0.7818608E-02  0.1160507E+00
         21   -1    0    0  501  502  0.00000000000E+00  0.00000000000E+00  0.18818700701E+04  0.18818700701E+04  0.00000000000E+00 0. -1.
         21   -1    0    0  502  503 -0.00000000000E+00 -0.00000000000E+00 -0.37332310963E+02  0.37332310963E+02  0.00000000000E+00 0. -1.
         -6    2    1    2    0  503 -0.54825518029E+02 -0.50718891540E+02  0.24532438913E+03  0.30911494190E+03  0.17259706840E+03 0.  0.
        -24    2    3    3    0    0 -0.40616025873E+02  0.14985562445E+02  0.21617114529E+03  0.23569160387E+03  0.83344702541E+02 0.  0.
          6    2    1    2  501    0  0.54825518029E+02  0.50718891540E+02  0.15992133700E+04  0.16100874392E+04  0.17123059173E+03 0.  0.
         24    2    5    5    0    0  0.26514080574E+02  0.66196703748E+01  0.14386637591E+04  0.14411361256E+04  0.79831724269E+02 0.  0.
          5    1    5    5  501    0  0.28311437456E+02  0.44099221165E+02  0.16054961092E+03  0.16895131359E+03  0.47000000000E+01 0. -1.
        -11    1    6    6    0    0 -0.62405153650E+01 -0.18860501657E+02  0.10716371854E+03  0.10898956430E+03  0.00000000000E+00 0.  1.
         12    1    6    6    0    0  0.32754595939E+02  0.25480172032E+02  0.13315000406E+04  0.13321465613E+04  0.00000000000E+00 0. -1.
         -5    1    3    3    0  503 -0.14209492156E+02 -0.65704453985E+02  0.29153243839E+02  0.73423338028E+02  0.47000000000E+01 0.  1.
         13    1    4    4    0    0 -0.86601776760E+01 -0.55896341431E+00 -0.60936579955E+01  0.10603951398E+02  0.00000000000E+00 0. -1.
        -14    1    4    4    0    0 -0.31955848197E+02  0.15544525859E+02  0.22226480328E+03  0.22508765248E+03  0.00000000000E+00 0.  1.
</event>
<event>
12    1  0.8461994E-002  0.1812086E+03  0.7818608E-02  0.1168693E+00
         21   -1    0    0  501  502  0.00000000000E+00  0.00000000000E+00  0.30372678493E+02  0.30372678493E+02  0.00000000000E+00 0. -1.
         21   -1    0    0  502  503 -0.00000000000E+00 -0.00000000000E+00 -0.10519192739E+04  0.10519192739E+04  0.00000000000E+00 0.  1.
         -6    2    1    2    0  503 -0.53456755373E+02 -0.12791938021E+00 -0.59731070610E+03  0.62419278603E+03  0.17314419842E+03 0.  0.
        -24    2    3    3    0    0  0.17920189490E+02  0.44135891849E+02 -0.24961887715E+03  0.26646991681E+03  0.80171831675E+02 0.  0.
          6    2    1    2  501    0  0.53456755373E+02  0.12791938021E+00 -0.42423588925E+03  0.45809916631E+03  0.16438100677E+03 0.  0.
         24    2    5    5    0    0  0.67094499226E+02 -0.51895871355E+02 -0.24147615382E+03  0.26753244898E+03  0.77897529505E+02 0.  0.
          5    1    5    5  501    0 -0.13637743853E+02  0.52023790735E+02 -0.18275973544E+03  0.19056671734E+03  0.47000000000E+01 0. -1.
        -11    1    6    6    0    0  0.49364829698E+02  0.17415716432E+01 -0.61397773349E+02  0.78801053642E+02  0.00000000000E+00 0.  1.
         12    1    6    6    0    0  0.17729669528E+02 -0.53637442998E+02 -0.18007838047E+03  0.18873139533E+03  0.00000000000E+00 0. -1.
         -5    1    3    3    0  503 -0.71376944863E+02 -0.44263811229E+02 -0.34769182895E+03  0.35772286922E+03  0.47000000000E+01 0.  1.
         13    1    4    4    0    0 -0.56400750019E+01 -0.15366767258E+02 -0.11769155559E+02  0.20160878070E+02  0.00000000000E+00 0. -1.
        -14    1    4    4    0    0  0.23560264491E+02  0.59502659107E+02 -0.23784972160E+03  0.24630903874E+03  0.00000000000E+00 0.  1.
</event>
<event>
12    1  0.8461994E-002  0.2684406E+03  0.7818608E-02  0.1102226E+00
         21   -1    0    0  503  502  0.00000000000E+00  0.00000000000E+00  0.15184704753E+03  0.15184704753E+03  0.00000000000E+00 0. -1.
         21   -1    0    0  501  503 -0.00000000000E+00 -0.00000000000E+00 -0.55692323544E+03  0.55692323544E+03  0.00000000000E+00 0.  1.
          6    2    1    2  501    0  0.52897998527E+02 -0.19956619917E+03 -0.65852269017E+02  0.27639984814E+03  0.17156773770E+03 0.  0.
         24    2    3    3    0    0  0.10581416917E+02 -0.29212841208E+02  0.27680831909E+01  0.87874511953E+02  0.82151756469E+02 0.  0.
         -6    2    1    2    0  502 -0.52897998527E+02  0.19956619917E+03 -0.33922391889E+03  0.43237043482E+03  0.17101596317E+03 0.  0.
        -24    2    5    5    0    0 -0.11866859873E+02  0.20835380119E+03 -0.30501084312E+03  0.37802523409E+03  0.79494241025E+02 0.  0.
          5    1    3    3  501    0  0.42316581610E+02 -0.17035335796E+03 -0.68620352208E+02  0.18852533619E+03  0.47000000000E+01 0. -1.
        -11    1    4    4    0    0  0.42581658118E+02 -0.17247934740E+02 -0.16301688873E+02  0.48748681223E+02  0.00000000000E+00 0.  1.
         12    1    4    4    0    0 -0.32000241201E+02 -0.11964906468E+02  0.19069772063E+02  0.39125830730E+02  0.00000000000E+00 0. -1.
         -5    1    5    5    0  502 -0.41031138654E+02 -0.87876020221E+01 -0.34213075777E+02  0.54345200732E+02  0.47000000000E+01 0.  1.
         11    1    6    6    0    0  0.26198973822E+02  0.41988091666E+02 -0.44300917211E+02  0.66422566473E+02  0.00000000000E+00 0. -1.
        -12    1    6    6    0    0 -0.38065833695E+02  0.16636570953E+03 -0.26070992591E+03  0.31160266762E+03  0.00000000000E+00 0.  1.
</event>
<event>
12    1  0.8461994E-002  0.1797074E+03  0.7818608E-02  0.1169275E+00
         21   -1    0    0  503  502  0.00000000000E+00  0.00000000000E+00  0.35299321799E+02  0.35299321799E+02  0.00000000000E+00 0. -1.
         21   -1    0    0  501  503 -0.00000000000E+00 -0.00000000000E+00 -0.11557008903E+04  0.11557008903E+04  0.00000000000E+00 0. -1.
          6    2    1    2  501    0  0.27680848037E+02 -0.14308477754E+02 -0.83958959681E+03  0.85760837712E+03  0.17207694664E+03 0.  0.
         24    2    3    3    0    0 -0.89485416195E+01 -0.11140656729E+02 -0.18134984051E+03  0.19832587770E+03  0.79001256216E+02 0.  0.
         -6    2    1    2    0  502 -0.27680848037E+02  0.14308477754E+02 -0.28081197175E+03  0.33339183503E+03  0.17698528273E+03 0.  0.
        -24    2    5    5    0    0 -0.27499909690E+02  0.78288665104E+02 -0.18649930409E+03  0.21932840358E+03  0.80234643864E+02 0.  0.
          5    1    3    3  501    0  0.36629389656E+02 -0.31678210246E+01 -0.65823975629E+03  0.65928249942E+03  0.47000000000E+01 0. -1.
        -13    1    4    4    0    0  0.29028237126E+02  0.15469979561E+02 -0.60126071433E+02  0.68535416277E+02  0.00000000000E+00 0.  1.
         14    1    4    4    0    0 -0.37976778745E+02 -0.26610636290E+02 -0.12122376908E+03  0.12979046143E+03  0.00000000000E+00 0. -1.
         -5    1    5    5    0  502 -0.18093834715E+00 -0.63980187350E+02 -0.94312667655E+02  0.11406343144E+03  0.47000000000E+01 0.  1.
         11    1    6    6    0    0 -0.48354311047E+02  0.71210979149E+02 -0.17369658585E+03  0.19385470561E+03  0.00000000000E+00 0. -1.
        -12    1    6    6    0    0  0.20854401357E+02  0.70776859556E+01 -0.12802718236E+02  0.25473697978E+02  0.00000000000E+00 0.  1.
</event>
<event>
12    1  0.8461994E-002  0.2796590E+03  0.7818608E-02  0.1095927E+00
         21   -1    0    0  503  502  0.00000000000E+00  0.00000000000E+00  0.15215864003E+04  0.15215864003E+04  0.00000000000E+00 0.  1.
         21   -1    0    0  501  503 -0.00000000000E+00 -0.00000000000E+00 -0.63141859475E+02  0.63141859475E+02  0.00000000000E+00 0. -1.
          6    2    1    2  501    0 -0.17935236409E+03  0.12839370591E+03  0.38691598364E+03  0.47740250795E+03  0.17192138313E+03 0.  0.
         24    2    3    3    0    0 -0.16278893196E+03  0.14872228180E+03  0.26842040385E+03  0.35594926299E+03  0.77664735536E+02 0.  0.
         -6    2    1    2    0  502  0.17935236409E+03 -0.12839370591E+03  0.10715285572E+04  0.11073257519E+04  0.17130282419E+03 0.  0.
        -24    2    5    5    0    0  0.11673006830E+03 -0.28402399240E+02  0.39817360287E+03  0.42369661418E+03  0.80894979556E+02 0.  0.
          5    1    3    3  501    0 -0.16563432133E+02 -0.20328575892E+02  0.11849557979E+03  0.12145324496E+03  0.47000000000E+01 0. -1.
        -13    1    4    4    0    0  0.66370972436E+01  0.51797713054E+01  0.25383566369E+02  0.26743345569E+02  0.00000000000E+00 0.  1.
         14    1    4    4    0    0 -0.16942602920E+03  0.14354251049E+03  0.24303683748E+03  0.32920591742E+03  0.00000000000E+00 0. -1.
         -5    1    5    5    0  502  0.62622295792E+02 -0.99991306667E+02  0.67335495435E+03  0.68362913768E+03  0.47000000000E+01 0.  1.
         13    1    6    6    0    0 -0.28595892692E+01 -0.88835898624E+01  0.21868292912E+01  0.95852825718E+01  0.00000000000E+00 0. -1.
        -14    1    6    6    0    0  0.11958965757E+03 -0.19518809378E+02  0.39598677358E+03  0.41411133161E+03  0.00000000000E+00 0.  1.
</event>
<event>
12    1  0.8461994E-002  0.2111018E+03  0.7818608E-02  0.1140771E+00
         21   -1    0    0  503  502  0.00000000000E+00  0.00000000000E+00  0.12757009510E+04  0.12757009510E+04  0.00000000000E+00 0.  1.
         21   -1    0    0  501  503 -0.00000000000E+00 -0.00000000000E+00 -0.38345632437E+02  0.38345632437E+02  0.00000000000E+00 0. -1.
          6    2    1    2  501    0 -0.72390835258E+01 -0.11835285588E+03  0.42139045714E+03  0.47131080261E+03  0.17465438000E+03 0.  0.
         24    2    3    3    0    0  0.28789990454E+01 -0.36785461066E+02  0.35373888229E+03  0.36475358289E+03  0.80947641165E+02 0.  0.
         -6    2    1    2    0  502  0.72390835258E+01  0.11835285588E+03  0.81596486140E+03  0.84273578081E+03  0.17419856026E+03 0.  0.
        -24    2    5    5    0    0  0.73116232132E+02  0.90078286408E+02  0.50263970847E+03  0.52127973180E+03  0.75005340960E+02 0.  0.
          5    1    3    3  501    0 -0.10118082571E+02 -0.81567394817E+02  0.67651574856E+02  0.10655721971E+03  0.47000000000E+01 0. -1.
        -13    1    4    4    0    0 -0.23968197639E+02 -0.17806050222E+02  0.43406978523E+02  0.52684871710E+02  0.00000000000E+00 0.  1.
         14    1    4    4    0    0  0.26847196684E+02 -0.18979410844E+02  0.31033190377E+03  0.31206871118E+03  0.00000000000E+00 0. -1.
         -5    1    5    5    0  502 -0.65877148607E+02  0.28274569476E+02  0.31332515292E+03  0.32145604900E+03  0.47000000000E+01 0.  1.
         13    1    6    6    0    0  0.24901292081E+01  0.60842509790E+02  0.25138787251E+03  0.25865783225E+03  0.00000000000E+00 0. -1.
        -14    1    6    6    0    0  0.70626102924E+02  0.29235776618E+02  0.25125183597E+03  0.26262189955E+03  0.00000000000E+00 0.  1.
</event>
<event>
12    1  0.8461994E-002  0.1999222E+03  0.7818608E-02  0.1150974E+00
         21   -1    0    0  503  502  0.00000000000E+00  0.00000000000E+00  0.10719643072E+04  0.10719643072E+04  0.00000000000E+00 0. -1.
         21   -1    0    0  501  503 -0.00000000000E+00 -0.00000000000E+00 -0.77424624498E+02  0.77424624498E+02  0.00000000000E+00 0. -1.
          6    2    1    2  501    0  0.10025171816E+03  0.15008409757E+02  0.81543911113E+02  0.21591265746E+03  0.17231716935E+03 0.  0.
         24    2    3    3    0    0  0.36402463662E+02  0.80378961370E+01 -0.22513625644E+02  0.93538737378E+02  0.82782153365E+02 0.  0.
         -6    2    1    2    0  502 -0.10025171816E+03 -0.15008409757E+02  0.91299577157E+03  0.93347627422E+03  0.16595486215E+03 0.  0.
        -24    2    5    5    0    0 -0.73874855055E+02  0.48091401004E+02  0.46444028752E+03  0.47971263829E+03  0.81542366907E+02 0.  0.
          5    1    3    3  501    0  0.63849254494E+02  0.69705136195E+01  0.10405753676E+03  0.12237392008E+03  0.47000000000E+01 0. -1.
        -11    1    4    4    0    0  0.20553697227E+02  0.36691665767E+02  0.14157975637E+02  0.44375455836E+02  0.00000000000E+00 0.  1.
         12    1    4    4    0    0  0.15848766435E+02 -0.28653769630E+02 -0.36671601282E+02  0.49163281543E+02  0.00000000000E+00 0. -1.
         -5    1    5    5    0  502 -0.26376863101E+02 -0.63099810760E+02  0.44855548405E+03  0.45376363593E+03  0.47000000000E+01 0.  1.
         11    1    6    6    0    0  0.79004614596E+01  0.25818688173E+02  0.20521914451E+03  0.20698772723E+03  0.00000000000E+00 0. -1.
        -12    1    6    6    0    0 -0.81775316515E+02  0.22272712831E+02  0.25922114301E+03  0.27272491106E+03  0.00000000000E+00 0.  1.
</event>
<event>
12    1  0.8461994E-002  0.2153985E+03  0.7818608E-02  0.1137592E+00
         21   -1    0    0  503  502  0.00000000000E+00  0.00000000000E+00  0.20659248238E+03  0.20659248238E+03  0.00000000000E+00 0. -1.
         21   -1    0    0  501  503 -0.00000000000E+00 -0.00000000000E+00 -0.28042551364E+03  0.28042551364E+03  0.00000000000E+00 0. -1.
          6    2    1    2  501    0  0.83206599227E+02 -0.99809921179E+02 -0.14688032320E+03  0.26071123355E+03  0.17178812367E+03 0.  0.
         24    2    3    3    0    0  0.89982552992E+02 -0.12246323787E+03 -0.78709232084E+02  0.18840304611E+03  0.78781089715E+02 0.  0.
         -6    2    1    2    0  502 -0.83206599227E+02  0.99809921179E+02  0.73047291944E+02  0.22630676247E+03  0.17027473494E+03 0.  0.
        -24    2    5    5    0    0 -0.11246706552E+03  0.91234775118E+02  0.21872593046E+02  0.16655186455E+03  0.79299988910E+02 0.  0.
          5    1    3    3  501    0 -0.67759537649E+01  0.22653316688E+02 -0.68171091116E+02  0.72308187437E+02  0.47000000000E+01 0. -1.
        -11    1    4    4    0    0  0.52278621959E+02 -0.22782827207E+02 -0.19425068849E+01  0.57060361570E+02  0.00000000000E+00 0.  1.
         12    1    4    4    0    0  0.37703931033E+02 -0.99680410659E+02 -0.76766725199E+02  0.13134268454E+03  0.00000000000E+00 0. -1.
         -5    1    5    5    0  502  0.29260466294E+02  0.85751460609E+01  0.51174698898E+02  0.59754897917E+02  0.47000000000E+01 0.  1.
         11    1    6    6    0    0  0.14768839566E+01  0.33455747427E+02  0.19544624604E+02  0.38774483530E+02  0.00000000000E+00 0. -1.
        -12    1    6    6    0    0 -0.11394394948E+03  0.57779027692E+02  0.23279684416E+01  0.12777738102E+03  0.00000000000E+00 0.  1.
</event>
<event>
12    1  0.8461994E-002  0.1787348E+03  0.7818608E-02  0.1170419E+00
         21   -1    0    0  501  502  0.00000000000E+00  0.00000000000E+00  0.99720147168E+03  0.99720147168E+03  0.00000000000E+00 0.  1.
         21   -1    0    0  502  503 -0.00000000000E+00 -0.00000000000E+00 -0.30723118944E+03  0.30723118944E+03  0.00000000000E+00 0.  1.
         -6    2    1    2    0  503 -0.51499728516E+02  0.35365603172E+01 -0.27284255642E+03  0.32617355209E+03  0.17111807676E+03 0.  0.
        -24    2    3    3    0    0 -0.23994239581E+02  0.26739942836E+02 -0.61144903959E+02  0.11138776360E+03  0.85894042417E+02 0.  0.
          6    2    1    2  501    0  0.51499728516E+02 -0.35365603172E+01  0.96281283866E+03  0.97825910903E+03  0.16528034613E+03 0.  0.
         24    2    5    5    0    0 -0.21239854557E+02 -0.13986524936E+02  0.29907256038E+03  0.31044663856E+03  0.79284076073E+02 0.  0.
          5    1    5    5  501    0  0.72739583073E+02  0.10449964619E+02  0.66374027828E+03  0.66781247047E+03  0.47000000000E+01 0. -1.
        -13    1    6    6    0    0  0.90799441379E+01  0.10500111880E+02  0.23529409925E+03  0.23570322628E+03  0.00000000000E+00 0.  1.
         14    1    6    6    0    0 -0.30319798694E+02 -0.24486636816E+02  0.63778461124E+02  0.74743412277E+02  0.00000000000E+00 0. -1.
         -5    1    3    3    0  503 -0.27505488936E+02 -0.23203382519E+02 -0.21169765246E+03  0.21478578849E+03  0.47000000000E+01 0.  1.
         11    1    4    4    0    0  0.28489838802E+02  0.25772558171E+02 -0.14176695216E+02  0.40949656371E+02  0.00000000000E+00 0. -1.
        -12    1    4    4    0    0 -0.52484078383E+02  0.96738466490E+00 -0.46968208743E+02  0.70438107224E+02  0.00000000000E+00 0.  1.
</event>
<event>
12    1  0.8461994E-002  0.2259180E+03  0.7818608E-02  0.1129707E+00
         21   -1    0    0  501  502  0.00000000000E+00  0.00000000000E+00  0.10204788101E+04  0.10204788101E+04  0.00000000000E+00 0. -1.
         21   -1    0    0  502  503 -0.00000000000E+00 -0.00000000000E+00 -0.82054007903E+02  0.82054007903E+02  0.00000000000E+00 0. -1.
         -6    2    1    2    0  503 -0.14506767825E+03  0.15878954821E+02  0.12424831264E+03  0.25783051151E+03  0.17245914587E+03 0.  0.
        -24    2    3    3    0    0 -0.10383012462E+03  0.70266164340E+02  0.11168536377E+03  0.18827174446E+03  0.85173943515E+02 0.  0.
          6    2    1    2  501    0  0.14506767825E+03 -0.15878954821E+02  0.81417648952E+03  0.84470230646E+03  0.17129465247E+03 0.  0.
         24    2    5    5    0    0  0.54658308750E+02 -0.46655082056E+02  0.24586074871E+03  0.26839865789E+03  0.80162986486E+02 0.  0.
          5    1    5    5  501    0  0.90409369497E+02  0.30776127236E+02  0.56831574081E+03  0.57630364857E+03  0.47000000000E+01 0. -1.
        -11    1    6    6    0    0  0.37212884900E+02  0.93156084641E+01  0.44874391043E+02  0.59036347576E+02  0.00000000000E+00 0.  1.
         12    1    6    6    0    0  0.17445423851E+02 -0.55970690520E+02  0.20098635767E+03  0.20936231031E+03  0.00000000000E+00 0. -1.
         -5    1    3    3    0  503 -0.41237553622E+02 -0.54387209519E+02  0.12562948870E+02  0.69558767042E+02  0.47000000000E+01 0.  1.
         13    1    4    4    0    0 -0.35458043672E+02 -0.13571679869E+02  0.87916292629E+01  0.38971221441E+02  0.00000000000E+00 0. -1.
        -14    1    4    4    0    0 -0.68372080953E+02  0.83837844209E+02  0.10289373450E+03  0.14930052302E+03  0.00000000000E+00 0.  1.
</event>
<event>
12    1  0.8461994E-002  0.2318763E+03  0.7818608E-02  0.1125517E+00
         21   -1    0    0  503  502  0.00000000000E+00  0.00000000000E+00  0.39295977613E+03  0.39295977613E+03  0.00000000000E+00 0. -1.
         21   -1    0    0  501  503 -0.00000000000E+00 -0.00000000000E+00 -0.19762040262E+03  0.19762040262E+03  0.00000000000E+00 0. -1.
          6    2    1    2  501    0 -0.12175459595E+03  0.95225065676E+02 -0.67139496033E+02  0.24034912338E+03  0.17137092640E+03 0.  0.
         24    2    3    3    0    0 -0.62692306739E+01  0.17062436082E+02  0.65996279060E+01  0.82533361632E+02  0.80235719698E+02 0.  0.
         -6    2    1    2    0  502  0.12175459595E+03 -0.95225065676E+02  0.26247886954E+03  0.35023105537E+03  0.17284281999E+03 0.  0.
        -24    2    5    5    0    0  0.80871993843E+02 -0.11377666099E+03  0.12016530259E+03  0.20093005007E+03  0.80298051674E+02 0.  0.
          5    1    3    3  501    0 -0.11548536528E+03  0.78162629594E+02 -0.73739123939E+02  0.15781576175E+03  0.47000000000E+01 0. -1.
        -13    1    4    4    0    0 -0.27138378599E+02  0.12252187080E+01  0.34730242375E+02  0.44092884792E+02  0.00000000000E+00 0.  1.
         14    1    4    4    0    0  0.20869147925E+02  0.15837217374E+02 -0.28130614469E+02  0.38440476840E+02  0.00000000000E+00 0. -1.
         -5    1    5    5    0  502  0.40882602106E+02  0.18551595315E+02  0.14231356695E+03  0.14930100530E+03  0.47000000000E+01 0.  1.
         11    1    6    6    0    0 -0.10432021955E+00 -0.45130144983E+02  0.70550051460E+02  0.83749929134E+02  0.00000000000E+00 0. -1.
        -12    1    6    6    0    0  0.80976314063E+02 -0.68646516008E+02  0.49615251126E+02  0.11718012094E+03  0.00000000000E+00 0.  1.
</event>
<event>
12    1  0.8461994E-002  0.2132385E+03  0.7818608E-02  0.1139177E+00
         21   -1    0    0  501  502  0.00000000000E+00  0.00000000000E+00  0.30806456590E+03  0.30806456590E+03  0.00000000000E+00 0. -1.
         21   -1    0    0  502  503 -0.00000000000E+00 -0.00000000000E+00 -0.32126631650E+03  0.32126631650E+03  0.00000000000E+00 0.  1.
         -6    2    1    2    0  503 -0.52005514670E+02  0.11474611579E+03 -0.23830266875E+03  0.31926462302E+03  0.17108621490E+03 0.  0.
        -24    2    3    3    0    0  0.25187173259E+01  0.73337689822E+02 -0.53448047752E+02  0.12208229490E+03  0.81624948602E+02 0.  0.
          6    2    1    2  501    0  0.52005514670E+02 -0.11474611579E+03  0.22510091816E+03  0.31006625938E+03  0.17204481162E+03 0.  0.
         24    2    5    5    0    0  0.22844209609E+02 -0.80664744335E+00  0.41412640469E+02  0.91901052435E+02  0.78792690367E+02 0.  0.
          5    1    5    5  501    0  0.29161305061E+02 -0.11393946835E+03  0.18368827769E+03  0.21816520695E+03  0.47000000000E+01 0. -1.
        -13    1    6    6    0    0  0.43745693344E+02 -0.22675305517E+02  0.14372386473E+02  0.51326607713E+02  0.00000000000E+00 0.  1.
         14    1    6    6    0    0 -0.20901483735E+02  0.21868658074E+02  0.27040253996E+02  0.40574444722E+02  0.00000000000E+00 0. -1.
         -5    1    3    3    0  503 -0.54524231996E+02  0.41408425973E+02 -0.18485462100E+03  0.19718232812E+03  0.47000000000E+01 0.  1.
         11    1    4    4    0    0 -0.66043195555E+01  0.27980790763E+02  0.20179929902E+02  0.35125080205E+02  0.00000000000E+00 0. -1.
        -12    1    4    4    0    0  0.91230368813E+01  0.45356899059E+02 -0.73627977654E+02  0.86957214696E+02  0.00000000000E+00 0.  1.
</event>
<event>
12    1  0.8461994E-002  0.1896594E+03  0.7818608E-02  0.1159017E+00
         21   -1    0    0  501  502  0.00000000000E+00  0.00000000000E+00  0.14882240372E+03  0.14882240372E+03  0.00000000000E+00 0. -1.
         21   -1    0    0  502  503 -0.00000000000E+00 -0.00000000000E+00 -0.26574303668E+03  0.26574303668E+03  0.00000000000E+00 0. -1.
         -6    2    1    2    0  503  0.49238742239E+02 -0.63711116072E+02 -0.12243207833E+03  0.22482599940E+03  0.17050969519E+03 0.  0.
        -24    2    3    3    0    0  0.71779365728E+01 -0.97311452148E+02 -0.11181789778E+03  0.16975472933E+03  0.82415923064E+02 0.  0.
          6    2    1    2  501    0 -0.49238742239E+02  0.63711116072E+02  0.55114453764E+01  0.18973944100E+03  0.17171813939E+03 0.  0.
         24    2    5    5    0    0 -0.39258498927E+02  0.38186765862E+01  0.61023232195E+02  0.10733581220E+03  0.79002086584E+02 0.  0.
          5    1    5    5  501    0 -0.99802433127E+01  0.59892439486E+02 -0.55511786818E+02  0.82403628803E+02  0.47000000000E+01 0. -1.
        -11    1    6    6    0    0  0.22525433500E+02 -0.91778626391E+01  0.10587237494E+02  0.26527682046E+02  0.00000000000E+00 0.  1.
         12    1    6    6    0    0 -0.61783932426E+02  0.12996539225E+02  0.50435994701E+02  0.80808130156E+02  0.00000000000E+00 0. -1.
         -5    1    3    3    0  503  0.42060805667E+02  0.33600336076E+02 -0.10614180549E+02  0.55071270064E+02  0.47000000000E+01 0.  1.
         13    1    4    4    0    0  0.36405442567E+02 -0.18136635278E+02 -0.20995022484E+02  0.45772095832E+02  0.00000000000E+00 0. -1.
        -14    1    4    4    0    0 -0.29227505994E+02 -0.79174816870E+02 -0.90822875296E+02  0.12398263350E+03  0.00000000000E+00 0.  1.
</event>
<event>
12    1  0.8461994E-002  0.2880896E+03  0.7818608E-02  0.1091646E+00
         21   -1    0    0  501  502  0.00000000000E+00  0.00000000000E+00  0.32737530311E+03  0.32737530311E+03  0.00000000000E+00 0. -1.
         21   -1    0    0  502  503 -0.00000000000E+00 -0.00000000000E+00 -0.68324580980E+03  0.68324580980E+03  0.00000000000E+00 0. -1.
         -6    2    1    2    0  503 -0.20326322826E+03 -0.10454221123E+03 -0.57933617575E+03  0.64602197667E+03  0.17166530205E+03 0.  0.
        -24    2    3    3    0    0 -0.20851790228E+03 -0.55112170657E+02 -0.42795417779E+03  0.48661827592E+03  0.84471896149E+02 0.  0.
          6    2    1    2  501    0  0.20326322826E+03  0.10454221123E+03  0.22346566906E+03  0.36459913623E+03  0.17535852133E+03 0.  0.
         24    2    5    5    0    0  0.30671197878E+02  0.52406068431E+01  0.44805307721E+02  0.97035251717E+02  0.80250471255E+02 0.  0.
          5    1    5    5  501    0  0.17259203038E+03  0.99301604391E+02  0.17866036134E+03  0.26756388452E+03  0.47000000000E+01 0. -1.
        -13    1    6    6    0    0  0.51453314487E+02  0.33986083440E+01  0.46391683675E+01  0.51773699824E+02  0.00000000000E+00 0.  1.
         14    1    6    6    0    0 -0.20782116609E+02  0.18419984991E+01  0.40166139353E+02  0.45261551893E+02  0.00000000000E+00 0. -1.
         -5    1    3    3    0  503  0.52546740277E+01 -0.49430040577E+02 -0.15138199795E+03  0.15940370076E+03  0.47000000000E+01 0.  1.
         11    1    4    4    0    0 -0.14336925419E+03 -0.71802990503E+02 -0.33987011663E+03  0.37579530155E+03  0.00000000000E+00 0. -1.
        -12    1    4    4    0    0 -0.65148648097E+02  0.16690819846E+02 -0.88084061164E+02  0.11082297437E+03  0.00000000000E+00 0.  1.
</event>
<event>
12    1  0.8461994E-002  0.3019346E+03  0.7818608E-02  0.1084340E+00
         21   -1    0    0  501  502  0.00000000000E+00  0.00000000000E+00  0.57418518907E+03  0.57418518907E+03  0.00000000000E+00 0. -1.
         21   -1    0    0  502  503 -0.00000000000E+00 -0.00000000000E+00 -0.17898536637E+03  0.17898536637E+03  0.00000000000E+00 0.  1.
         -6    2    1    2    0  503  0.24463579153E+03 -0.37432556686E+02  0.70370122861E+02  0.31002649690E+03  0.17296418067E+03 0.  0.
        -24    2    3    3    0    0  0.12402251896E+03  0.11715999012E+02  0.97335394122E+02  0.17693871422E+03  0.79462442689E+02 0.  0.
          6    2    1    2  501    0 -0.24463579153E+03  0.37432556686E+02  0.32482969984E+03  0.44314405853E+03  0.17208851187E+03 0.  0.
         24    2    5    5    0    0 -0.22374550561E+03  0.57438934225E+02  0.20446734087E+03  0.31926570431E+03  0.82233898247E+02 0.  0.
          5    1    5    5  501    0 -0.20890285918E+02 -0.20006377539E+02  0.12036235897E+03  0.12387835422E+03  0.47000000000E+01 0. -1.
        -13    1    6    6    0    0 -0.53636429493E+02  0.15982378284E+02  0.87253834959E+01  0.56643051662E+02  0.00000000000E+00 0.  1.
         14    1    6    6    0    0 -0.17010907612E+03  0.41456555941E+02  0.19574195737E+03  0.26262265265E+03  0.00000000000E+00 0. -1.
         -5    1    3    3    0  503  0.12061327256E+03 -0.49148555698E+02 -0.26965271260E+02  0.13308778268E+03  0.47000000000E+01 0.  1.
         11    1    4    4    0    0  0.13160936608E+03  0.12000408038E+01  0.76028086106E+02  0.15199583947E+03  0.00000000000E+00 0. -1.
        -12    1    4    4    0    0 -0.75868471154E+01  0.10515958208E+02  0.21307308015E+02  0.24942874755E+02  0.00000000000E+00 0.  1.
</event>
<event>
12    1  0.8461994E-002  0.1750252E+03  0.7818608E-02  0.1172722E+00
         21   -1    0    0  501  502  0.00000000000E+00  0.00000000000E+00  0.23988802859E+03  0.23988802859E+03  0.00000000000E+00 0. -1.
         21   -1    0    0  502  503 -0.00000000000E+00 -0.00000000000E+00 -0.13069970151E+03  0.13069970151E+03  0.00000000000E+00 0. -1.
         -6    2    1    2    0  503  0.32056530824E+02 -0.12044583042E+01  0.82862067395E+02  0.19359363833E+03  0.17199797296E+03 0.  0.
        -24    2    3    3    0    0  0.49138194678E+02  0.20439970746E+02  0.11533159999E+03  0.15073777414E+03  0.81167382714E+02 0.  0.
          6    2    1    2  501    0 -0.32056530824E+02  0.12044583042E+01  0.26326259686E+02  0.17699409178E+03  0.17206035187E+03 0.  0.
         24    2    5    5    0    0 -0.83816634992E+02  0.30914661313E+02  0.19685053321E+01  0.11236287065E+03  0.68121913529E+02 0.  0.
          5    1    5    5  501    0  0.51760104169E+02 -0.29710203009E+02  0.24357754354E+02  0.64631221121E+02  0.47000000000E+01 0. -1.
        -11    1    6    6    0    0 -0.56576311818E+02 -0.15173372037E+02 -0.25890227779E+01  0.58632868912E+02  0.00000000000E+00 0.  1.
         12    1    6    6    0    0 -0.27240323174E+02  0.46088033350E+02  0.45575281100E+01  0.53730001742E+02  0.00000000000E+00 0. -1.
         -5    1    3    3    0  503 -0.17081663854E+02 -0.21644429051E+02 -0.32469532591E+02  0.42855864192E+02  0.47000000000E+01 0.  1.
         11    1    4    4    0    0 -0.91138015922E-01 -0.27153294437E+02  0.21806357280E+02  0.34825664713E+02  0.00000000000E+00 0. -1.
        -12    1    4    4    0    0  0.49229332694E+02  0.47593265183E+02  0.93525242706E+02  0.11591210943E+03  0.00000000000E+00 0.  1.
</event>
<event>
12    1  0.8461994E-002  0.2384219E+03  0.7818608E-02  0.1120926E+00
         21   -1    0    0  503  502  0.00000000000E+00  0.00000000000E+00  0.28945884523E+03  0.28945884523E+03  0.00000000000E+00 0.  1.
         21   -1    0    0  501  503 -0.00000000000E+00 -0.00000000000E+00 -0.27118116532E+03  0.27118116532E+03  0.00000000000E+00 0. -1.
          6    2    1    2  501    0  0.12389655498E+03  0.10971226480E+03 -0.13844772469E+03  0.27570416204E+03  0.17163296627E+03 0.  0.
         24    2    3    3    0    0  0.15252850044E+03  0.11777037356E+03 -0.11778673041E+03  0.23918446733E+03  0.78744467824E+02 0.  0.
         -6    2    1    2    0  502 -0.12389655498E+03 -0.10971226480E+03  0.15672540460E+03  0.28493584851E+03  0.17099253765E+03 0.  0.
        -24    2    5    5    0    0 -0.27577965327E+01 -0.52375175733E+02  0.99993271778E+02  0.13932415435E+03  0.81619857318E+02 0.  0.
          5    1    3    3  501    0 -0.28631945458E+02 -0.80581087600E+01 -0.20660994275E+02  0.36519694713E+02  0.47000000000E+01 0. -1.
        -13    1    4    4    0    0  0.10917982775E+03  0.34893145748E+02 -0.66602108368E+02  0.13256548286E+03  0.00000000000E+00 0.  1.
         14    1    4    4    0    0  0.43348672695E+02  0.82877227815E+02 -0.51184622046E+02  0.10661898447E+03  0.00000000000E+00 0. -1.
         -5    1    5    5    0  502 -0.12113875845E+03 -0.57337089069E+02  0.56732132819E+02  0.14561169416E+03  0.47000000000E+01 0.  1.
         13    1    6    6    0    0 -0.27262806517E+02  0.10497990864E+02  0.35573104425E+02  0.46031665077E+02  0.00000000000E+00 0. -1.
        -14    1    6    6    0    0  0.24505009984E+02 -0.62873166597E+02  0.64420167353E+02  0.93292489269E+02  0.00000000000E+00 0.  1.
</event>
<event>
12    1  0.8461994E-002  0.2046502E+03  0.7818608E-02  0.1145975E+00
         21   -1    0    0  503  502  0.00000000000E+00  0.00000000000E+00  0.49293541695E+03  0.49293541695E+03  0.00000000000E+00 0. -1.
         21   -1    0    0  501  503 -0.00000000000E+00 -0.00000000000E+00 -0.13938848241E+03  0.13938848241E+03  0.00000000000E+00 0.  1.
          6    2    1    2  501    0  0.82820568276E+02  0.73475880667E+02 -0.21024503401E+02  0.20572733365E+03  0.17211552661E+03 0.  0.
         24    2    3    3    0    0  0.94209495096E+02  0.10320749786E+03 -0.43634628426E+02  0.16639561021E+03  0.79096787043E+02 0.  0.
         -6    2    1    2    0  502 -0.82820568276E+02 -0.73475880667E+02  0.37457143794E+03  0.42659656571E+03  0.17153109393E+03 0.  0.
        -24    2    5    5    0    0 -0.51118075110E+02  0.27157674587E+02  0.17889355830E+03  0.20423631050E+03  0.79743140353E+02 0.  0.
          5    1    3    3  501    0 -0.11388926821E+02 -0.29731617190E+02  0.22610125026E+02  0.39331723437E+02  0.47000000000E+01 0. -1.
        -11    1    4    4    0    0  0.58358799397E+02  0.10542825898E+03 -0.17037671825E+02  0.12170106622E+03  0.00000000000E+00 0.  1.
         12    1    4    4    0    0  0.35850695699E+02 -0.22207611233E+01 -0.26596956602E+02  0.44694543991E+02  0.00000000000E+00 0. -1.
         -5    1    5    5    0  502 -0.31702493165E+02 -0.10063355525E+03  0.19567787964E+03  0.22236025521E+03  0.47000000000E+01 0.  1.
         13    1    6    6    0    0  0.95584663966E+01  0.35821350999E+02  0.61681404113E+02  0.71966166221E+02  0.00000000000E+00 0. -1.
        -14    1    6    6    0    0 -0.60676541507E+02 -0.86636764125E+01  0.11721215418E+03  0.13227014428E+03  0.00000000000E+00 0.  1.
</event>
<event>
12    1  0.8461994E-002  0.2005770E+03  0.7818608E-02  0.1149390E+00
         21   -1    0    0  501  502  0.00000000000E+00  0.00000000000E+00  0.22169959764E+03  0.22169959764E+03  0.00000000000E+00 0. -1.
         21   -1    0    0  502  503 -0.00000000000E+00 -0.00000000000E+00 -0.18118265719E+03  0.18118265719E+03  0.00000000000E+00 0.  1.
         -6    2    1    2    0  503  0.67080940458E+02  0.79670196608E+02  0.28529371386E+02  0.20259580454E+03  0.17141745006E+03 0.  0.
        -24    2    3    3    0    0  0.16612481078E+02 -0.22873691263E+02 -0.38478601497E+01  0.83714815928E+02  0.78703139064E+02 0.  0.
          6    2    1    2  501    0 -0.67080940458E+02 -0.79670196608E+02  0.11987569065E+02  0.20028645029E+03  0.17065687082E+03 0.  0.
         24    2    5    5    0    0 -0.21685524140E+02  0.24381133216E+02  0.19555558241E+02  0.86414647283E+02  0.77591041962E+02 0.  0.
          5    1    5    5  501    0 -0.45395416319E+02 -0.10405132982E+03 -0.75679891758E+01  0.11387180301E+03  0.47000000000E+01 0. -1.
        -11    1    6    6    0    0  0.53879965180E+00 -0.30496632473E+01 -0.27452047797E+02  0.27626177427E+02  0.00000000000E+00 0.  1.
         12    1    6    6    0    0 -0.22224323792E+02  0.27430796463E+02  0.47007606038E+02  0.58788469856E+02  0.00000000000E+00 0. -1.
         -5    1    3    3    0  503  0.50468459380E+02  0.10254388787E+03  0.32377231536E+02  0.11888098861E+03  0.47000000000E+01 0.  1.
         13    1    4    4    0    0  0.30266551240E+01 -0.27686865047E+02  0.33568462990E+02  0.43618400302E+02  0.00000000000E+00 0. -1.
        -14    1    4    4    0    0  0.13585825954E+02  0.48131737840E+01 -0.37416323140E+02  0.40096415626E+02  0.00000000000E+00 0.  1.
</event>
<event>
12    1  0.8461994E-002  0.3324057E+03  0.7818608E-02  0.1070216E+00
         21   -1    0    0  501  502  0.00000000000E+00  0.00000000000E+00  0.38471507861E+03  0.38471507861E+03  0.00000000000E+00 0. -1.
         21   -1    0    0  502  503 -0.00000000000E+00 -0.00000000000E+00 -0.68396979542E+03  0.68396979542E+03  0.00000000000E+00 0. -1.
         -6    2    1    2    0  503 -0.12832869731E+03  0.25254331020E+03 -0.55704026451E+03  0.64803429736E+03  0.17148823921E+03 0.  0.
        -24    2    3    3    0    0 -0.87022749392E+02  0.24361625301E+03 -0.38430093118E+03  0.47013870730E+03  0.80133393481E+02 0.  0.
          6    2    1    2  501    0  0.12832869731E+03 -0.25254331020E+03  0.25778554769E+03  0.42065057667E+03  0.17391705199E+03 0.  0.
         24    2    5    5    0    0  0.67051823049E+02 -0.17960098614E+03  0.25006993655E+03  0.32495805547E+03  0.79437418464E+02 0.  0.
          5    1    5    5  501    0  0.61276874262E+02 -0.72942324062E+02  0.77156111469E+01  0.95692521203E+02  0.47000000000E+01 0. -1.
        -11    1    6    6    0    0 -0.29373924564E+00  0.30792515881E+01 -0.38793502604E+01  0.49615956637E+01  0.00000000000E+00 0.  1.
         12    1    6    6    0    0  0.67345562295E+02 -0.18268023773E+03  0.25394928681E+03  0.31999645980E+03  0.00000000000E+00 0. -1.
         -5    1    3    3    0  503 -0.41305947919E+02  0.89270571895E+01 -0.17273933333E+03  0.17789559006E+03  0.47000000000E+01 0.  1.
         13    1    4    4    0    0 -0.24843854621E+02  0.51912001799E+02 -0.15238345269E+03  0.16288888758E+03  0.00000000000E+00 0. -1.
        -14    1    4    4    0    0 -0.62178894770E+02  0.19170425121E+03 -0.23191747849E+03  0.30724981972E+03  0.00000000000E+00 0.  1.
</event>
<event>
12    1  0.8461994E-002  0.1958579E+03  0.7818608E-02  0.1156993E+00
         21   -1    0    0  503  502  0.00000000000E+00  0.00000000000E+00  0.35690631892E+03  0.35690631892E+03  0.00000000000E+00 0. -1.
         21   -1    0    0  501  503 -0.00000000000E+00 -0.00000000000E+00 -0.13631223926E+03  0.13631223926E+03  0.00000000000E+00 0.  1.
          6    2    1    2  501    0  0.51069382015E+02 -0.13547753562E+01  0.23627490452E+03  0.29673397037E+03  0.17209096859E+03 0.  0.
         24    2    3    3    0    0  0.67664429551E+02 -0.54577613424E+02  0.19268601950E+03  0.22581044119E+03  0.79405681942E+02 0.  0.
         -6    2    1    2    0  502 -0.51069382015E+02  0.13547753562E+01 -0.15680824857E+02  0.19648458781E+03  0.18907772948E+03 0.  0.
        -24    2    5    5    0    0 -0.68210359891E+02 -0.17040915115E+02  0.55645976515E+02  0.12070980873E+03  0.80816689105E+02 0.  0.
          5    1    3    3  501    0 -0.16595047535E+02  0.53222838068E+02  0.43588885016E+02  0.70923529182E+02  0.47000000000E+01 0. -1.
        -11    1    4    4    0    0  0.54365964240E+02  0.65251020549E+01  0.80166969041E+02  0.97082325630E+02  0.00000000000E+00 0.  1.
         12    1    4    4    0    0  0.13298465311E+02 -0.61102715479E+02  0.11251905046E+03  0.12872811556E+03  0.00000000000E+00 0. -1.
         -5    1    5    5    0  502  0.17140977876E+02  0.18395690472E+02 -0.71326801372E+02  0.75774779079E+02  0.47000000000E+01 0.  1.
         13    1    6    6    0    0  0.15339687743E+02 -0.41953374115E+01  0.27222545653E+02  0.31527351108E+02  0.00000000000E+00 0. -1.
        -14    1    6    6    0    0 -0.83550047635E+02 -0.12845577704E+02  0.28423430862E+02  0.89182457626E+02  0.00000000000E+00 0.  1.
</event>
<event>
12    1  0.8461994E-002  0.2280875E+03  0.7818608E-02  0.1128193E+00
         21   -1    0    0  501  502  0.00000000000E+00  0.00000000000E+00  0.10701279429E+04  0.10701279429E+04  0.00000000000E+00 0. -1.
         21   -1    0    0  502  503 -0.00000000000E+00 -0.00000000000E+00 -0.88208442849E+02  0.88208442849E+02  0.00000000000E+00 0.  1.
         -6    2    1    2    0  503  0.13122575590E+03  0.72541861508E+02  0.10242908325E+03  0.25003125387E+03  0.17187608947E+03 0.  0.
        -24    2    3    3    0    0  0.10096035764E+03  0.69010857801E+01  0.50490737865E+01  0.12866543490E+03  0.79301211795E+02 0.  0.
          6    2    1    2  501    0 -0.13122575590E+03 -0.72541861508E+02  0.87949041675E+03  0.90830513183E+03  0.17038866946E+03 0.  0.
         24    2    5    5    0    0 -0.52721933686E+02 -0.94570025255E+02  0.68145492179E+03  0.69408973237E+03  0.75210731899E+02 0.  0.
          5    1    5    5  501    0 -0.78503822216E+02  0.22028163747E+02  0.19803549496E+03  0.21421539946E+03  0.47000000000E+01 0. -1.
        -11    1    6    6    0    0 -0.25824116512E+02  0.19399302671E+01  0.24081528378E+03  0.24220373495E+03  0.00000000000E+00 0.  1.
         12    1    6    6    0    0 -0.26897817174E+02 -0.96509955522E+02  0.44063963801E+03  0.45188599743E+03  0.00000000000E+00 0. -1.
         -5    1    3    3    0  503  0.30265398264E+02  0.65640775728E+02  0.97380009468E+02  0.12136581897E+03  0.47000000000E+01 0.  1.
         11    1    4    4    0    0  0.68108783344E+02 -0.38490071111E+01  0.40351678382E+02  0.79258306647E+02  0.00000000000E+00 0. -1.
        -12    1    4    4    0    0  0.32851574294E+02  0.10750092891E+02 -0.35302604596E+02  0.49407128251E+02  0.00000000000E+00 0.  1.
</event>
<event>
12    1  0.8461994E-002  0.2429717E+03  0.7818608E-02  0.1118218E+00
         21   -1    0    0  501  502  0.00000000000E+00  0.00000000000E+00  0.65840358783E+03  0.65840358783E+03  0.00000000000E+00 0.  1.
         21   -1    0    0  502  503 -0.00000000000E+00 -0.00000000000E+00 -0.91576040874E+02  0.91576040874E+02  0.00000000000E+00 0.  1.
         -6    2    1    2    0  503  0.16473571990E+03  0.38526902939E+02  0.21940523486E+03  0.32737426591E+03  0.17439344378E+03 0.  0.
        -24    2    3    3    0    0  0.10012172574E+03 -0.42851657935E+02  0.15757031336E+03  0.20636564668E+03  0.76796822347E+02 0.  0.
          6    2    1    2  501    0 -0.16473571990E+03 -0.38526902939E+02  0.34742231210E+03  0.42260536280E+03  0.17108725860E+03 0.  0.
         24    2    5    5    0    0 -0.94371197710E+02 -0.58728214675E+02  0.31343027412E+03  0.34175483636E+03  0.78758525152E+02 0.  0.
          5    1    5    5  501    0 -0.70364522194E+02  0.20201311735E+02  0.33992037984E+02  0.80850526440E+02  0.47000000000E+01 0. -1.
        -11    1    6    6    0    0  0.69764249109E+01 -0.25283786914E+02  0.96387636956E+02  0.99892526963E+02  0.00000000000E+00 0.  1.
         12    1    6    6    0    0 -0.10134762262E+03 -0.33444427761E+02  0.21704263716E+03  0.24186230939E+03  0.00000000000E+00 0. -1.
         -5    1    3    3    0  503  0.64613994167E+02  0.81378560874E+02  0.61834921492E+02  0.12100861923E+03  0.47000000000E+01 0.  1.
         11    1    4    4    0    0  0.61225412296E+02 -0.31717440894E+02  0.15015885616E+03  0.16523386230E+03  0.00000000000E+00 0. -1.
        -12    1    4    4    0    0  0.38896313441E+02 -0.11134217041E+02  0.74114572095E+01  0.41131784381E+02  0.00000000000E+00 0.  1.
</event>
<event>
12    1  0.8461994E-002  0.2008740E+03  0.7818608E-02  0.1149693E+00
         21   -1    0    0  501  502  0.00000000000E+00  0.00000000000E+00  0.27457663657E+04  0.27457663657E+04  0.00000000000E+00 0. -1.
         21   -1    0    0  502  503 -0.00000000000E+00 -0.00000000000E+00 -0.15389323323E+02  0.15389323323E+02  0.00000000000E+00 0. -1.
         -6    2    1    2    0  503  0.91390614367E+02 -0.53217731742E+02  0.17152620923E+04  0.17269841929E+04  0.17078051950E+03 0.  0.
        -24    2    3    3    0    0  0.62013615492E+02 -0.23504453846E+02  0.16136705582E+04  0.16170350376E+04  0.80445600176E+02 0.  0.
          6    2    1    2  501    0 -0.91390614367E+02  0.53217731742E+02  0.10151149501E+04  0.10341714962E+04  0.16693696470E+03 0.  0.
         24    2    5    5    0    0 -0.12350476607E+03  0.63401384480E+02  0.89716842105E+03  0.91141768058E+03  0.80609242366E+02 0.  0.
          5    1    5    5  501    0  0.32114151708E+02 -0.10183652738E+02  0.11794652904E+03  0.12275381557E+03  0.47000000000E+01 0. -1.
        -11    1    6    6    0    0 -0.49936476447E+02 -0.14528138335E+02  0.24021521174E+03  0.24578052493E+03  0.00000000000E+00 0.  1.
         12    1    6    6    0    0 -0.73568289628E+02  0.77929522815E+02  0.65695320931E+03  0.66563715566E+03  0.00000000000E+00 0. -1.
         -5    1    3    3    0  503  0.29376998875E+02 -0.29713277897E+02  0.10159153408E+03  0.10994915527E+03  0.47000000000E+01 0.  1.
         11    1    4    4    0    0  0.61714929880E+02 -0.13241826885E+01  0.60917662470E+03  0.61229620782E+03  0.00000000000E+00 0. -1.
        -12    1    4    4    0    0  0.29868561160E+00 -0.22180271157E+02  0.10044939335E+04  0.10047388298E+04  0.00000000000E+00 0.  1.
</event>
<event>
12    1  0.8461994E-002  0.1889716E+03  0.7818608E-02  0.1160374E+00
         21   -1    0    0  503  502  0.00000000000E+00  0.00000000000E+00  0.30119989576E+03  0.30119989576E+03  0.00000000000E+00 0.  1.
         21   -1    0    0  501  503 -0.00000000000E+00 -0.00000000000E+00 -0.25585309414E+03  0.25585309414E+03  0.00000000000E+00 0.  1.
          6    2    1    2  501    0  0.55259262044E+02  0.39914554621E+02 -0.18343779750E+03  0.26031633886E+03  0.17166366248E+03 0.  0.
         24    2    3    3    0    0  0.28609466632E+02 -0.43320473921E+02 -0.74475761784E+02  0.12055548312E+03  0.79320995798E+02 0.  0.
         -6    2    1    2    0  502 -0.55259262044E+02 -0.39914554621E+02  0.22878459912E+03  0.29673665104E+03  0.17624837464E+03 0.  0.
        -24    2    5    5    0    0 -0.89433568922E+02 -0.75750090812E+02  0.17532614857E+03  0.22371634674E+03  0.74654577340E+02 0.  0.
          5    1    3    3  501    0  0.26649795412E+02  0.83235028541E+02 -0.10896203571E+03  0.13976085574E+03  0.47000000000E+01 0. -1.
        -13    1    4    4    0    0  0.49778369275E+02 -0.57114866711E+01 -0.50705246771E+02  0.71284845359E+02  0.00000000000E+00 0.  1.
         14    1    4    4    0    0 -0.21168902643E+02 -0.37608987249E+02 -0.23770515013E+02  0.49270637758E+02  0.00000000000E+00 0. -1.
         -5    1    5    5    0  502  0.34174306878E+02  0.35835536192E+02  0.53458450551E+02  0.73020304300E+02  0.47000000000E+01 0.  1.
         11    1    6    6    0    0 -0.41350502724E+02 -0.68518186829E+02  0.64823146310E+02  0.10298857364E+03  0.00000000000E+00 0. -1.
        -12    1    6    6    0    0 -0.48083066198E+02 -0.72319039830E+01  0.11050300226E+03  0.12072777310E+03  0.00000000000E+00 0.  1.
</event>
<event>
12    1  0.8461994E-002  0.2755109E+03  0.7818608E-02  0.1098288E+00
         21   -1    0    0  501  502  0.00000000000E+00  0.00000000000E+00  0.91273680597E+03  0.91273680597E+03  0.00000000000E+00 0. -1.
         21   -1    0    0  502  503 -0.00000000000E+00 -0.00000000000E+00 -0.10315166790E+03  0.10315166790E+03  0.00000000000E+00 0. -1.
         -6    2    1    2    0  503 -0.12576364223E+03 -0.17353466459E+03  0.62934240031E+03  0.68665652528E+03  0.17173978386E+03 0.  0.
        -24    2    3    3    0    0 -0.12681758444E+03 -0.72357186410E+02  0.46115020235E+03  0.49031830094E+03  0.80213870096E+02 0.  0.
          6    2    1    2  501    0  0.12576364223E+03  0.17353466459E+03  0.18024273776E+03  0.32923194859E+03  0.17313421943E+03 0.  0.
         24    2    5    5    0    0  0.82910558080E+02  0.24821163601E+02  0.82414393583E+02  0.14608018878E+03  0.84006181213E+02 0.  0.
          5    1    5    5  501    0  0.42853084154E+02  0.14871350099E+03  0.97828344172E+02  0.18315175981E+03  0.47000000000E+01 0. -1.
        -11    1    6    6    0    0  0.77141001129E+01  0.11059164742E+02 -0.16346292814E+02  0.21189944646E+02  0.00000000000E+00 0.  1.
         12    1    6    6    0    0  0.75196457967E+02  0.13761998859E+02  0.98760686397E+02  0.12489024414E+03  0.00000000000E+00 0. -1.
         -5    1    3    3    0  503  0.10539422043E+01 -0.10117747818E+03  0.16819219795E+03  0.19633822434E+03  0.47000000000E+01 0.  1.
         13    1    4    4    0    0 -0.91494235729E+02 -0.42007158840E+02  0.18832182168E+03  0.21354368426E+03  0.00000000000E+00 0. -1.
        -14    1    4    4    0    0 -0.35323348709E+02 -0.30350027570E+02  0.27282838067E+03  0.27677461668E+03  0.00000000000E+00 0.  1.
</event>
<event>
12    1  0.8461994E-002  0.2080404E+03  0.7818608E-02  0.1143537E+00
         21   -1    0    0  501  502  0.00000000000E+00  0.00000000000E+00  0.13680193910E+03  0.13680193910E+03  0.00000000000E+00 0. -1.
         21   -1    0    0  502  503 -0.00000000000E+00 -0.00000000000E+00 -0.51900417012E+03  0.51900417012E+03  0.00000000000E+00 0.  1.
         -6    2    1    2    0  503 -0.89076719707E+02 -0.70931135095E+02  0.15904349299E+02  0.20661833359E+03  0.17167498225E+03 0.  0.
        -24    2    3    3    0    0  0.45167800495E+01 -0.83308213582E+02  0.19433563045E+02  0.11202721023E+03  0.72192608398E+02 0.  0.
          6    2    1    2  501    0  0.89076719707E+02  0.70931135095E+02 -0.39810658032E+03  0.44918777564E+03  0.17411180478E+03 0.  0.
         24    2    5    5    0    0  0.35885685784E+02 -0.26613134878E+02 -0.23653500525E+03  0.25304590207E+03  0.78021653744E+02 0.  0.
          5    1    5    5  501    0  0.53191033924E+02  0.97544269973E+02 -0.16157157507E+03  0.19614187356E+03  0.47000000000E+01 0. -1.
        -11    1    6    6    0    0  0.60747925069E+02 -0.15712726418E+02 -0.16304650338E+03  0.17470364173E+03  0.00000000000E+00 0.  1.
         12    1    6    6    0    0 -0.24862239285E+02 -0.10900408459E+02 -0.73488501878E+02  0.78342260340E+02  0.00000000000E+00 0. -1.
         -5    1    3    3    0  503 -0.93593499757E+02  0.12377078487E+02 -0.35292137459E+01  0.94591123359E+02  0.47000000000E+01 0.  1.
         11    1    4    4    0    0 -0.16415508874E+02 -0.45072025611E+02 -0.21191340401E+02  0.52440722080E+02  0.00000000000E+00 0. -1.
        -12    1    4    4    0    0  0.20932288924E+02 -0.38236187971E+02  0.40624903446E+02  0.59586488151E+02  0.00000000000E+00 0.  1.
</event>
<event>
12    1  0.8461994E-002  0.2246218E+03  0.7818608E-02  0.1130535E+00
         21   -1    0    0  501  502  0.00000000000E+00  0.00000000000E+00  0.45880938876E+02  0.45880938876E+02  0.00000000000E+00 0. -1.
         21   -1    0    0  502  503 -0.00000000000E+00 -0.00000000000E+00 -0.10997961468E+04  0.10997961468E+04  0.00000000000E+00 0.  1.
         -6    2    1    2    0  503 -0.11596989339E+03 -0.84144547380E+02 -0.54777676306E+03  0.59193430688E+03  0.17261958317E+03 0.  0.
        -24    2    3    3    0    0 -0.58809141152E+02 -0.97335721030E+02 -0.49065137925E+03  0.50991749071E+03  0.79651200282E+02 0.  0.
          6    2    1    2  501    0  0.11596989339E+03  0.84144547380E+02 -0.50613844487E+03  0.55374277879E+03  0.17299022708E+03 0.  0.
         24    2    5    5    0    0  0.11032547907E+03  0.12083059461E+03 -0.36740076412E+03  0.41004880003E+03  0.79905900914E+02 0.  0.
          5    1    5    5  501    0  0.56444143270E+01 -0.36686047235E+02 -0.13873768075E+03  0.14369397877E+03  0.47000000000E+01 0. -1.
        -11    1    6    6    0    0  0.38639290616E+02  0.50250977503E+02 -0.23712702462E+03  0.24545341987E+03  0.00000000000E+00 0.  1.
         12    1    6    6    0    0  0.71686188451E+02  0.70579617112E+02 -0.13027373950E+03  0.16459538016E+03  0.00000000000E+00 0. -1.
         -5    1    3    3    0  503 -0.57160752243E+02  0.13191173650E+02 -0.57125383809E+02  0.82016816169E+02  0.47000000000E+01 0.  1.
         13    1    4    4    0    0 -0.16278279538E+02 -0.52579556786E+02 -0.97636217365E+02  0.11208221589E+03  0.00000000000E+00 0. -1.
        -14    1    4    4    0    0 -0.42530861615E+02 -0.44756164244E+02 -0.39301516188E+03  0.39783527483E+03  0.00000000000E+00 0.  1.
</event>
<event>
12    1  0.8461994E-002  0.1986287E+03  0.7818608E-02  0.1150933E+00
         21   -1    0    0  501  502  0.00000000000E+00  0.00000000000E+00  0.79299945283E+03  0.79299945283E+03  0.00000000000E+00 0.  1.
         21   -1    0    0  502  503 -0.00000000000E+00 -0.00000000000E+00 -0.51790975106E+02  0.51790975106E+02  0.00000000000E+00 0.  1.
         -6    2    1    2    0  503  0.89156948846E+02  0.41976489111E+02  0.45531021366E+03  0.49675018977E+03  0.17245977274E+03 0.  0.
        -24    2    3    3    0    0  0.10624499655E+03  0.12932679533E+02  0.20428153787E+03  0.24342622660E+03  0.77911023552E+02 0.  0.
          6    2    1    2  501    0 -0.89156948846E+02 -0.41976489111E+02  0.28589826407E+03  0.34804023816E+03  0.17228813894E+03 0.  0.
         24    2    5    5    0    0 -0.22493889027E+02  0.33716422129E+02  0.89445238611E+02  0.12715732446E+03  0.80782190414E+02 0.  0.
          5    1    5    5  501    0 -0.66663059819E+02 -0.75692911240E+02  0.19645302545E+03  0.22088291370E+03  0.47000000000E+01 0. -1.
        -11    1    6    6    0    0 -0.48086251240E+02  0.50505976629E+01  0.31775944449E+02  0.57857642025E+02  0.00000000000E+00 0.  1.
         12    1    6    6    0    0  0.25592362213E+02  0.28665824466E+02  0.57669294162E+02  0.69299682431E+02  0.00000000000E+00 0. -1.
         -5    1    3    3    0  503 -0.17088047707E+02  0.29043809577E+02  0.25102867578E+03  0.25332396317E+03  0.47000000000E+01 0.  1.
         13    1    4    4    0    0  0.73819637219E+02 -0.22397960728E+02  0.16226309265E+03  0.17966724443E+03  0.00000000000E+00 0. -1.
        -14    1    4    4    0    0  0.32425359333E+02  0.35330640262E+02  0.42018445219E+02  0.63758982174E+02  0.00000000000E+00 0.  1.
</event>
<event>
12    1  0.8461994E-002  0.2919054E+03  0.7818608E-02  0.1089437E+00
         21   -1    0    0  501  502  0.00000000000E+00  0.00000000000E+00  0.19791426170E+03  0.19791426170E+03  0.00000000000E+00 0. -1.
         21   -1    0    0  502  503 -0.00000000000E+00 -0.00000000000E+00 -0.45255919100E+03  0.45255919100E+03  0.00000000000E+00 0.  1.
         -6    2    1    2    0  503 -0.23523854407E+03 -0.19700482276E+02 -0.20038522608E+03  0.35356794234E+03  0.17067738398E+03 0.  0.
        -24    2    3    3    0    0 -0.11016423349E+03 -0.73693367999E+02 -0.12301264459E+03  0.19682796262E+03  0.77732009580E+02 0.  0.
          6    2    1    2  501    0  0.23523854407E+03  0.19700482276E+02 -0.54259703231E+02  0.29690551036E+03  0.17170755682E+03 0.  0.
         24    2    5    5    0    0  0.54146992598E+02 -0.29056947510E+02 -0.45737421142E+02  0.10911265569E+03  0.77701074207E+02 0.  0.
          5    1    5    5  501    0  0.18109155147E+03  0.48757429786E+02 -0.85222820885E+01  0.18779285467E+03  0.47000000000E+01 0. -1.
        -11    1    6    6    0    0  0.61851571377E+02 -0.44714477622E+02 -0.21584209128E+02  0.79315064613E+02  0.00000000000E+00 0.  1.
         12    1    6    6    0    0 -0.77045787793E+01  0.15657530112E+02 -0.24153212014E+02  0.29797591077E+02  0.00000000000E+00 0. -1.
         -5    1    3    3    0  503 -0.12507431058E+03  0.53992885723E+02 -0.77372581492E+02  0.15673997972E+03  0.47000000000E+01 0.  1.
         13    1    4    4    0    0 -0.53171069426E+02 -0.57808169400E+01 -0.12101519710E+02  0.54836367930E+02  0.00000000000E+00 0. -1.
        -14    1    4    4    0    0 -0.56993164065E+02 -0.67912551059E+02 -0.11091112488E+03  0.14199159469E+03  0.00000000000E+00 0.  1.
</event>
<event>
12    1  0.8461994E-002  0.1794139E+03  0.7818608E-02  0.1168578E+00
         21   -1    0    0  501  502  0.00000000000E+00  0.00000000000E+00  0.31429172301E+02  0.31429172301E+02  0.00000000000E+00 0. -1.
         21   -1    0    0  502  503 -0.00000000000E+00 -0.00000000000E+00 -0.10732537781E+04  0.10732537781E+04  0.00000000000E+00 0. -1.
         -6    2    1    2    0  503  0.42246764911E+02  0.30546438397E+02 -0.39829368644E+03  0.43683775438E+03  0.17167262143E+03 0.  0.
        -24    2    3    3    0    0 -0.36393577904E+01  0.15669095626E+02 -0.76476072523E+02  0.11139107947E+03  0.79376428702E+02 0.  0.
          6    2    1    2  501    0 -0.42246764911E+02 -0.30546438397E+02 -0.64353091932E+03  0.66784519598E+03  0.17078433075E+03 0.  0.
         24    2    5    5    0    0 -0.74410976001E+02  0.27401953408E+02 -0.40846560072E+03  0.42357005071E+03  0.79243804106E+02 0.  0.
          5    1    5    5  501    0  0.32164211090E+02 -0.57948391804E+02 -0.23506531860E+03  0.24427514527E+03  0.47000000000E+01 0. -1.
        -13    1    6    6    0    0 -0.19558304824E+02  0.30394010154E+02 -0.54684637813E+02  0.65549467989E+02  0.00000000000E+00 0.  1.
         14    1    6    6    0    0 -0.54852671177E+02 -0.29920567462E+01 -0.35378096291E+03  0.35802058272E+03  0.00000000000E+00 0. -1.
         -5    1    3    3    0  503  0.45886122702E+02  0.14877342771E+02 -0.32181761392E+03  0.32544667491E+03  0.47000000000E+01 0.  1.
         11    1    4    4    0    0  0.12964566801E+02  0.11299623653E+01  0.13498022473E+02  0.18749757811E+02  0.00000000000E+00 0. -1.
        -12    1    4    4    0    0 -0.16603924592E+02  0.14539133261E+02 -0.89974094996E+02  0.92641321656E+02  0.00000000000E+00 0.  1.
</event>
<event>
12    1  0.8461994E-002  0.2076018E+03  0.7818608E-02  0.1143573E+00
         21   -1    0    0  501  502  0.00000000000E+00  0.00000000000E+00  0.10950008165E+03  0.10950008165E+03  0.00000000000E+00 0.  1.
         21   -1    0    0  502  503 -0.00000000000E+00 -0.00000000000E+00 -0.39691267411E+03  0.39691267411E+03  0.00000000000E+00 0. -1.
         -6    2    1    2    0  503  0.16376175933E+01  0.11571879268E+03 -0.16959116441E+03  0.26770711406E+03  0.17179177832E+03 0.  0.
        -24    2    3    3    0    0  0.57778757345E+01  0.44814781670E+02 -0.17365507528E+03  0.19641107008E+03  0.79871614330E+02 0.  0.
          6    2    1    2  501    0 -0.16376175933E+01 -0.11571879268E+03 -0.11782142805E+03  0.23870564169E+03  0.17235130895E+03 0.  0.
         24    2    5    5    0    0  0.53187456986E+02 -0.74702318292E+02 -0.24014445158E+02  0.12247320210E+03  0.77547725421E+02 0.  0.
          5    1    5    5  501    0 -0.54825074579E+02 -0.41016474392E+02 -0.93806982893E+02  0.11623243959E+03  0.47000000000E+01 0. -1.
        -13    1    6    6    0    0  0.16000314085E+02 -0.75319579975E+02  0.20991074047E+01  0.77028925933E+02  0.00000000000E+00 0.  1.
         14    1    6    6    0    0  0.37187142900E+02  0.61726168302E+00 -0.26113552563E+02  0.45444276169E+02  0.00000000000E+00 0. -1.
         -5    1    3    3    0  503 -0.41402581411E+01  0.70904011014E+02  0.40639108689E+01  0.71296043978E+02  0.47000000000E+01 0.  1.
         11    1    4    4    0    0  0.28915903864E+02  0.56870872677E+02 -0.13979166319E+03  0.15366240514E+03  0.00000000000E+00 0. -1.
        -12    1    4    4    0    0 -0.23138028130E+02 -0.12056091006E+02 -0.33863412095E+02  0.42748664947E+02  0.00000000000E+00 0.  1.
</event>
<event>
12    1  0.8461994E-002  0.1914463E+03  0.7818608E-02  0.1157250E+00
         21   -1    0    0  501  502  0.00000000000E+00  0.00000000000E+00  0.10171633563E+03  0.10171633563E+03  0.00000000000E+00 0.  1.
         21   -1    0    0  502  503 -0.00000000000E+00 -0.00000000000E+00 -0.46820611386E+03  0.46820611386E+03  0.00000000000E+00 0.  1.
         -6    2    1    2    0  503 -0.79103621032E+02  0.33149788333E+02 -0.32034605124E+03  0.37299374041E+03  0.17072330397E+03 0.  0.
        -24    2    3    3    0    0  0.14802995967E+02  0.47222152741E+02 -0.13197702104E+03  0.16199263688E+03  0.79841216933E+02 0.  0.
          6    2    1    2  501    0  0.79103621032E+02 -0.33149788333E+02 -0.46143726992E+02  0.19692870907E+03  0.17115893663E+03 0.  0.
         24    2    5    5    0    0 -0.12663763928E+02  0.96755981516E+01  0.73626064639E+01  0.82297629558E+02  0.80403381400E+02 0.  0.
          5    1    5    5  501    0  0.91767384961E+02 -0.42825386485E+02 -0.53506333456E+02  0.11463107951E+03  0.47000000000E+01 0. -1.
        -11    1    6    6    0    0  0.30357099895E+02  0.18165412272E+02  0.13807307026E+02  0.37976011433E+02  0.00000000000E+00 0.  1.
         12    1    6    6    0    0 -0.43020863823E+02 -0.84898141207E+01 -0.64447005618E+01  0.44321618125E+02  0.00000000000E+00 0. -1.
         -5    1    3    3    0  503 -0.93906616999E+02 -0.14072364408E+02 -0.18836903019E+03  0.21100110353E+03  0.47000000000E+01 0.  1.
         11    1    4    4    0    0  0.16038213384E+02  0.66229399737E+02 -0.72311220765E+02  0.99360305588E+02  0.00000000000E+00 0. -1.
        -12    1    4    4    0    0 -0.12352174177E+01 -0.19007246995E+02 -0.59665800278E+02  0.62632331293E+02  0.00000000000E+00 0.  1.
</event>
<event>
12    1  0.8461994E-002  0.1788752E+03  0.7818608E-02  0.1168938E+00
         21   -1    0    0  503  502  0.00000000000E+00  0.00000000000E+00  0.17322819083E+03  0.17322819083E+03  0.00000000000E+00 0.  1.
         21   -1    0    0  501  503 -0.00000000000E+00 -0.00000000000E+00 -0.72470497347E+03  0.72470497347E+03  0.00000000000E+00 0.  1.
          6    2    1    2  501    0  0.37635343263E+02 -0.30462181567E+02 -0.66338791998E+03  0.68708067339E+03  0.17219743264E+03 0.  0.
         24    2    3    3    0    0 -0.34383904914E+02  0.19813568500E+02 -0.32074262422E+03  0.33332608069E+03  0.81581950594E+02 0.  0.
         -6    2    1    2    0  502 -0.37635343263E+02  0.30462181567E+02  0.11191113733E+03  0.21085249091E+03  0.17201833244E+03 0.  0.
        -24    2    5    5    0    0  0.13801519122E+02 -0.18933648298E+02  0.11262977158E+03  0.13938008186E+03  0.78691656506E+02 0.  0.
          5    1    3    3  501    0  0.72019248177E+02 -0.50275750066E+02 -0.34264529576E+03  0.35375459270E+03  0.47000000000E+01 0. -1.
        -13    1    4    4    0    0 -0.12435715172E+02  0.46840993257E+02 -0.24786915595E+03  0.25256255489E+03  0.00000000000E+00 0.  1.
         14    1    4    4    0    0 -0.21948189742E+02 -0.27027424758E+02 -0.72873468273E+02  0.80763525803E+02  0.00000000000E+00 0. -1.
         -5    1    5    5    0  502 -0.51436862385E+02  0.49395829865E+02 -0.71863425304E+00  0.71472409049E+02  0.47000000000E+01 0.  1.
         13    1    6    6    0    0  0.16529169010E+02 -0.93924331587E+01 -0.63068736019E+01  0.20030174324E+02  0.00000000000E+00 0. -1.
        -14    1    6    6    0    0 -0.27276498886E+01 -0.95412151397E+01  0.11893664519E+03  0.11934990753E+03  0.00000000000E+00 0.  1.
</event>
<event>
12    1  0.8461994E-002  0.1888521E+03  0.7818608E-02  0.1159679E+00
         21   -1    0    0  501  502  0.00000000000E+00  0.00000000000E+00  0.34847899780E+03  0.34847899780E+03  0.00000000000E+00 0.  1.
         21   -1    0    0  502  503 -0.00000000000E+00 -0.00000000000E+00 -0.11148871960E+03  0.11148871960E+03  0.00000000000E+00 0.  1.
         -6    2    1    2    0  503 -0.51521301300E+02 -0.54447564242E+02  0.18564444151E+03  0.26425996388E+03  0.17248329805E+03 0.  0.
        -24    2    3    3    0    0 -0.38128118854E+02 -0.23127114671E+02  0.24901868775E+02  0.99880486491E+02  0.85833511129E+02 0.  0.
          6    2    1    2  501    0  0.51521301300E+02  0.54447564242E+02  0.51345836699E+02  0.19570775352E+03  0.17333824766E+03 0.  0.
         24    2    5    5    0    0  0.49909437966E+02  0.10310673924E+03  0.45450029260E+02  0.14644149772E+03  0.79104079666E+02 0.  0.
          5    1    5    5  501    0  0.16118633339E+01 -0.48659174999E+02  0.58958074391E+01  0.49266255798E+02  0.47000000000E+01 0. -1.
        -11    1    6    6    0    0  0.11213684459E+02  0.70001344921E+02 -0.94943833894E+01  0.71526766499E+02  0.00000000000E+00 0.  1.
         12    1    6    6    0    0  0.38695753507E+02  0.33105394321E+02  0.54944412649E+02  0.74914731222E+02  0.00000000000E+00 0. -1.
         -5    1    3    3    0  503 -0.13393182446E+02 -0.31320449571E+02  0.16074257273E+03  0.16437947739E+03  0.47000000000E+01 0.  1.
         13    1    4    4    0    0 -0.45447288937E+02  0.20357431790E+02  0.25138284016E+02  0.55783639395E+02  0.00000000000E+00 0. -1.
        -14    1    4    4    0    0  0.73191700827E+01 -0.43484546461E+02 -0.23641524183E+00  0.44096847096E+02  0.00000000000E+00 0.  1.
</event>
<event>
12    1  0.8461994E-002  0.1850425E+03  0.7818608E-02  0.1163735E+00
         21   -1    0    0  501  502  0.00000000000E+00  0.00000000000E+00  0.13967523739E+04  0.13967523739E+04  0.00000000000E+00 0.  1.
         21   -1    0    0  502  503 -0.00000000000E+00 -0.00000000000E+00 -0.25163883309E+02  0.25163883309E+02  0.00000000000E+00 0.  1.
         -6    2    1    2    0  503 -0.32979948609E+02 -0.56833593171E+02  0.82588977818E+03  0.84569770240E+03  0.16968483672E+03 0.  0.
        -24    2    3    3    0    0 -0.33563520979E+02  0.18102202126E+01  0.21474514803E+03  0.23172760021E+03  0.80326927384E+02 0.  0.
          6    2    1    2  501    0  0.32979948609E+02  0.56833593171E+02  0.54569871244E+03  0.57621855485E+03  0.17298266926E+03 0.  0.
         24    2    5    5    0    0 -0.23138232892E+02 -0.23542979131E+02  0.25356303373E+03  0.26803843146E+03  0.80378722187E+02 0.  0.
          5    1    5    5  501    0  0.56118181501E+02  0.80376572302E+02  0.29213567872E+03  0.30818012339E+03  0.47000000000E+01 0. -1.
        -13    1    6    6    0    0 -0.13990610046E+00  0.12228811268E+02  0.19645557903E+03  0.19683586546E+03  0.00000000000E+00 0.  1.
         14    1    6    6    0    0 -0.22998326792E+02 -0.35771790399E+02  0.57107454695E+02  0.71202566002E+02  0.00000000000E+00 0. -1.
         -5    1    3    3    0  503  0.58357237031E+00 -0.58643813383E+02  0.61114463016E+03  0.61397010218E+03  0.47000000000E+01 0.  1.
         11    1    4    4    0    0 -0.54329272409E+02  0.99708856244E+01  0.19231445180E+03  0.20008982176E+03  0.00000000000E+00 0. -1.
        -12    1    4    4    0    0  0.20765751430E+02 -0.81606654118E+01  0.22430696226E+02  0.31637778455E+02  0.00000000000E+00 0.  1.
</event>
<event>
12    1  0.8461994E-002  0.1879043E+03  0.7818608E-02  0.1160388E+00
         21   -1    0    0  501  502  0.00000000000E+00  0.00000000000E+00  0.96398867392E+03  0.96398867392E+03  0.00000000000E+00 0. -1.
         21   -1    0    0  502  503 -0.00000000000E+00 -0.00000000000E+00 -0.39579932328E+02  0.39579932328E+02  0.00000000000E+00 0. -1.
         -6    2    1    2    0  503  0.46161033213E+02 -0.60097860369E+02  0.32457228933E+03  0.37498942827E+03  0.17183511429E+03 0.  0.
        -24    2    3    3    0    0 -0.27203043015E+02 -0.84802875136E+01  0.22440417968E+03  0.24044426225E+03  0.81512493307E+02 0.  0.
          6    2    1    2  501    0 -0.46161033213E+02  0.60097860369E+02  0.59983645225E+03  0.62857917797E+03  0.17194597908E+03 0.  0.
         24    2    5    5    0    0  0.77955409681E+01  0.91022506224E+02  0.45118671648E+03  0.46737595355E+03  0.80777235229E+02 0.  0.
          5    1    5    5  501    0 -0.53956574181E+02 -0.30924645855E+02  0.14864973578E+03  0.16120322443E+03  0.47000000000E+01 0. -1.
        -13    1    6    6    0    0 -0.30169802384E+02  0.36733522499E+02  0.27636665891E+03  0.28042485412E+03  0.00000000000E+00 0.  1.
         14    1    6    6    0    0  0.37965343352E+02  0.54288983725E+02  0.17482005757E+03  0.18695109943E+03  0.00000000000E+00 0. -1.
         -5    1    3    3    0  503  0.73364076228E+02 -0.51617572856E+02  0.10016810966E+03  0.13454516602E+03  0.47000000000E+01 0.  1.
         11    1    4    4    0    0  0.55109904205E+01 -0.40312728349E+02  0.10808230860E+03  0.11548710974E+03  0.00000000000E+00 0. -1.
        -12    1    4    4    0    0 -0.32714033436E+02  0.31832440836E+02  0.11632187107E+03  0.12495715251E+03  0.00000000000E+00 0.  1.
</event>
<event>
12    1  0.8461994E-002  0.2074060E+03  0.7818608E-02  0.1147375E+00
         21   -1    0    0  503  502  0.00000000000E+00  0.00000000000E+00  0.20232391497E+03  0.20232391497E+03  0.00000000000E+00 0.  1.
         21   -1    0    0  501  503 -0.00000000000E+00 -0.00000000000E+00 -0.20049714419E+03  0.20049714419E+03  0.00000000000E+00 0. -1.
          6    2    1    2  501    0 -0.31807292887E+01 -0.80899560036E+02 -0.32843774959E+02  0.20999035904E+03  0.19095125421E+03 0.  0.
         24    2    3    3    0    0 -0.27958543284E+01 -0.62688025741E+02  0.58433085774E+02  0.11679506187E+03  0.79303566065E+02 0.  0.
         -6    2    1    2    0  502  0.31807292887E+01  0.80899560036E+02  0.34670545737E+02  0.19283070013E+03  0.17154234555E+03 0.  0.
        -24    2    5    5    0    0  0.42391440764E+02 -0.18760903825E+01  0.41619833907E+02  0.10085423138E+03  0.81478901860E+02 0.  0.
          5    1    3    3  501    0 -0.38487496038E+00 -0.18211534295E+02 -0.91276860733E+02  0.93195297174E+02  0.47000000000E+01 0. -1.
        -13    1    4    4    0    0  0.31250013558E+02 -0.15302745225E+02  0.45065560627E+02  0.56935420552E+02  0.00000000000E+00 0.  1.
         14    1    4    4    0    0 -0.34045867887E+02 -0.47385280516E+02  0.13367525148E+02  0.59859641315E+02  0.00000000000E+00 0. -1.
         -5    1    5    5    0  502 -0.39210711475E+02  0.82775650419E+02 -0.69492881704E+01  0.91976468744E+02  0.47000000000E+01 0.  1.
         13    1    6    6    0    0 -0.10320857195E+02  0.46777643747E+01 -0.17832994137E+02  0.21128588515E+02  0.00000000000E+00 0. -1.
        -14    1    6    6    0    0  0.52712297958E+02 -0.65538547572E+01  0.59452828044E+02  0.79725642867E+02  0.00000000000E+00 0.  1.
</event>
<event>
12    1  0.8461994E-002  0.2684879E+03  0.7818608E-02  0.1102176E+00
         21   -1    0    0  501  502  0.00000000000E+00  0.00000000000E+00  0.39209058735E+02  0.39209058735E+02  0.00000000000E+00 0. -1.
         21   -1    0    0  502  503 -0.00000000000E+00 -0.00000000000E+00 -0.19493434899E+04  0.19493434899E+04  0.00000000000E+00 0. -1.
         -6    2    1    2    0  503  0.17980151769E+02  0.20514879246E+03 -0.11939216651E+04  0.12237379907E+04  0.17226843766E+03 0.  0.
        -24    2    3    3    0    0  0.59948488801E+02  0.88708181607E+02 -0.81091546311E+03  0.82120153531E+03  0.72973354619E+02 0.  0.
          6    2    1    2  501    0 -0.17980151769E+02 -0.20514879246E+03 -0.71621276606E+03  0.76481455792E+03  0.17196298681E+03 0.  0.
         24    2    5    5    0    0  0.32489995261E+02 -0.10182673573E+03 -0.52482160015E+03  0.54148665653E+03  0.79660550584E+02 0.  0.
          5    1    5    5  501    0 -0.50470147030E+02 -0.10332205673E+03 -0.19139116592E+03  0.22332790139E+03  0.47000000000E+01 0. -1.
        -11    1    6    6    0    0 -0.64264673245E+01  0.60694381540E+01 -0.13110658832E+03  0.13140424294E+03  0.00000000000E+00 0.  1.
         12    1    6    6    0    0  0.38916462586E+02 -0.10789617388E+03 -0.39371501182E+03  0.41008241359E+03  0.00000000000E+00 0. -1.
         -5    1    3    3    0  503 -0.41968337032E+02  0.11644061085E+03 -0.38300620202E+03  0.40253645543E+03  0.47000000000E+01 0.  1.
         11    1    4    4    0    0  0.49922947500E+02  0.27522935937E+02 -0.22885948314E+03  0.23585265678E+03  0.00000000000E+00 0. -1.
        -12    1    4    4    0    0  0.10025541301E+02  0.61185245670E+02 -0.58205597998E+03  0.58534887853E+03  0.00000000000E+00 0.  1.
</event>
<event>
12    1  0.8461994E-002  0.3085192E+03  0.7818608E-02  0.1081872E+00
         21   -1    0    0  501  502  0.00000000000E+00  0.00000000000E+00  0.46040558086E+03  0.46040558086E+03  0.00000000000E+00 0.  1.
         21   -1    0    0  502  503 -0.00000000000E+00 -0.00000000000E+00 -0.25016860406E+03  0.25016860406E+03  0.00000000000E+00 0. -1.
         -6    2    1    2    0  503 -0.14212992149E+03 -0.20382042663E+03 -0.49372761676E+02  0.31244485631E+03  0.18286726809E+03 0.  0.
        -24    2    3    3    0    0 -0.32715417832E+02 -0.17215425735E+03  0.71827500731E+01  0.18518568847E+03  0.59453851255E+02 0.  0.
          6    2    1    2  501    0  0.14212992149E+03  0.20382042663E+03  0.25960973848E+03  0.39812932861E+03  0.17136529722E+03 0.  0.
         24    2    5    5    0    0  0.78658022064E+02  0.20457973074E+03  0.23162865368E+03  0.32860027234E+03  0.79286538010E+02 0.  0.
          5    1    5    5  501    0  0.63471899428E+02 -0.75930411095E+00  0.27981084796E+02  0.69529056272E+02  0.47000000000E+01 0. -1.
        -11    1    6    6    0    0  0.32562626726E+02  0.65685892055E+02  0.13380143748E+03  0.15257059266E+03  0.00000000000E+00 0.  1.
         12    1    6    6    0    0  0.46095395338E+02  0.13889383869E+03  0.97827216204E+02  0.17602967968E+03  0.00000000000E+00 0. -1.
         -5    1    3    3    0  503 -0.10941450366E+03 -0.31666169283E+02 -0.56555511749E+02  0.12725916783E+03  0.47000000000E+01 0.  1.
         11    1    4    4    0    0 -0.48003903670E+02 -0.12529391138E+03  0.15953599552E+02  0.13512015518E+03  0.00000000000E+00 0. -1.
        -12    1    4    4    0    0  0.15288485838E+02 -0.46860345968E+02 -0.87708494790E+01  0.50065533294E+02  0.00000000000E+00 0.  1.
</event>
<event>
12    1  0.8461994E-002  0.2224840E+03  0.7818608E-02  0.1132757E+00
         21   -1    0    0  501  502  0.00000000000E+00  0.00000000000E+00  0.12586473690E+03  0.12586473690E+03  0.00000000000E+00 0. -1.
         21   -1    0    0  502  503 -0.00000000000E+00 -0.00000000000E+00 -0.81294728741E+03  0.81294728741E+03  0.00000000000E+00 0. -1.
         -6    2    1    2    0  503 -0.62224548836E+02 -0.12260006910E+03 -0.68208679864E+03  0.71627189357E+03  0.17000103887E+03 0.  0.
        -24    2    3    3    0    0 -0.10388637034E+03 -0.10855351866E+03 -0.47568047044E+03  0.50518263455E+03  0.79758008635E+02 0.  0.
          6    2    1    2  501    0  0.62224548836E+02  0.12260006910E+03 -0.49957518697E+01  0.22254013074E+03  0.17491849768E+03 0.  0.
         24    2    5    5    0    0  0.36672667240E+02  0.15693680077E+03 -0.34988272661E+01  0.17945602023E+03  0.78855421153E+02 0.  0.
          5    1    5    5  501    0  0.25551881596E+02 -0.34336731673E+02 -0.14969246035E+01  0.43084110509E+02  0.47000000000E+01 0. -1.
        -13    1    6    6    0    0 -0.20548126439E+01  0.56007843246E+02 -0.35952229177E+02  0.66585760812E+02  0.00000000000E+00 0.  1.
         14    1    6    6    0    0  0.38727479884E+02  0.10092895753E+03  0.32453401911E+02  0.11287025942E+03  0.00000000000E+00 0. -1.
         -5    1    3    3    0  503  0.41661821505E+02 -0.14046550443E+02 -0.20640632820E+03  0.21108925902E+03  0.47000000000E+01 0.  1.
         13    1    4    4    0    0 -0.55582955822E+02 -0.15282473751E+02 -0.24537793588E+03  0.25205822819E+03  0.00000000000E+00 0. -1.
        -14    1    4    4    0    0 -0.48303414520E+02 -0.93271044908E+02 -0.23030253456E+03  0.25312440637E+03  0.00000000000E+00 0.  1.
</event>
<event>
12    1  0.8461994E-002  0.1883080E+03  0.7818608E-02  0.1160007E+00
         21   -1    0    0  503  502  0.00000000000E+00  0.00000000000E+00  0.28706289475E+03  0.28706289475E+03  0.00000000000E+00 0.  1.
         21   -1    0    0  501  503 -0.00000000000E+00 -0.00000000000E+00 -0.38656907343E+03  0.38656907343E+03  0.00000000000E+00 0. -1.
          6    2    1    2  501    0  0.33668944674E+02  0.68949582216E+02 -0.32760914380E+03  0.37787253286E+03  0.17196586076E+03 0.  0.
         24    2    3    3    0    0  0.26186959941E+02  0.94230730943E+02 -0.14095011480E+03  0.18930212245E+03  0.80019817401E+02 0.  0.
         -6    2    1    2    0  502 -0.33668944674E+02 -0.68949582216E+02  0.22810296512E+03  0.29575943532E+03  0.17191578799E+03 0.  0.
        -24    2    5    5    0    0  0.26606617624E+02  0.38931614645E+01  0.59310138192E+02  0.10223342379E+03  0.78809337260E+02 0.  0.
          5    1    3    3  501    0  0.74819847321E+01 -0.25281148727E+02 -0.18665902899E+03  0.18857041041E+03  0.47000000000E+01 0. -1.
        -11    1    4    4    0    0  0.25060654762E+02 -0.41421084654E+00 -0.84155603652E+01  0.26439168747E+02  0.00000000000E+00 0.  1.
         12    1    4    4    0    0  0.11263051790E+01  0.94644941790E+02 -0.13253455444E+03  0.16286295371E+03  0.00000000000E+00 0. -1.
         -5    1    5    5    0  502 -0.60275562297E+02 -0.72842743680E+02  0.16879282693E+03  0.19352601154E+03  0.47000000000E+01 0.  1.
         11    1    6    6    0    0  0.13570133367E+02 -0.37021998675E+02  0.20937807312E+02  0.44644917745E+02  0.00000000000E+00 0. -1.
        -12    1    6    6    0    0  0.13036484257E+02  0.40915160139E+02  0.38372330880E+02  0.57588506042E+02  0.00000000000E+00 0.  1.
</event>
<event>
12    1  0.8461994E-002  0.1833054E+03  0.7818608E-02  0.1164786E+00
         21   -1    0    0  501  502  0.00000000000E+00  0.00000000000E+00  0.14329300555E+03  0.14329300555E+03  0.00000000000E+00 0. -1.
         21   -1    0    0  502  503 -0.00000000000E+00 -0.00000000000E+00 -0.24357042584E+03  0.24357042584E+03  0.00000000000E+00 0.  1.
         -6    2    1    2    0  503  0.60128031944E+02  0.14780255063E+01 -0.11309401027E+02  0.18365389847E+03  0.17315682801E+03 0.  0.
        -24    2    3    3    0    0  0.61821743739E+02  0.32579236701E+00  0.56747014760E+02  0.11540463451E+03  0.79221031569E+02 0.  0.
          6    2    1    2  501    0 -0.60128031944E+02 -0.14780255063E+01 -0.88968019264E+02  0.20320953292E+03  0.17251446615E+03 0.  0.
         24    2    5    5    0    0 -0.71966376994E+02 -0.60995063355E+02 -0.73407366428E+02  0.14038717922E+03  0.73623104194E+02 0.  0.
          5    1    5    5  501    0  0.11838345050E+02  0.59517037849E+02 -0.15560652836E+02  0.62822353701E+02  0.47000000000E+01 0. -1.
        -13    1    6    6    0    0 -0.49125170478E+02 -0.56782982376E+02 -0.85838702012E+02  0.11404329101E+03  0.00000000000E+00 0.  1.
         14    1    6    6    0    0 -0.22841206516E+02 -0.42120809793E+01  0.12431335584E+02  0.26343888204E+02  0.00000000000E+00 0. -1.
         -5    1    3    3    0  503 -0.16937117944E+01  0.11522331393E+01 -0.68056415787E+02  0.68249263957E+02  0.47000000000E+01 0.  1.
         11    1    4    4    0    0  0.31866342484E+02 -0.21449287299E+02 -0.94451463832E+01  0.39556876762E+02  0.00000000000E+00 0. -1.
        -12    1    4    4    0    0  0.29955401255E+02  0.21775079666E+02  0.66192161144E+02  0.75847757750E+02  0.00000000000E+00 0.  1.
</event>
<event>
12    1  0.8461994E-002  0.1930139E+03  0.7818608E-02  0.1155780E+00
         21   -1    0    0  503  502  0.00000000000E+00  0.00000000000E+00  0.40581772348E+02  0.40581772348E+02  0.00000000000E+00 0. -1.
         21   -1    0    0  501  503 -0.00000000000E+00 -0.00000000000E+00 -0.11868411489E+04  0.11868411489E+04  0.00000000000E+00 0. -1.
          6    2    1    2  501    0 -0.85134986508E+02  0.21899615838E+02 -0.86527397662E+03  0.88653121212E+03  0.17178759076E+03 0.  0.
         24    2    3    3    0    0 -0.55482096811E+02  0.75204307483E+02 -0.43726645995E+03  0.45417348020E+03  0.79609309713E+02 0.  0.
         -6    2    1    2    0  502  0.85134986508E+02 -0.21899615838E+02 -0.28098539990E+03  0.34089170910E+03  0.17183365000E+03 0.  0.
        -24    2    5    5    0    0  0.48235710395E+02 -0.55849742990E+02 -0.85823357429E+02  0.13933655403E+03  0.81259762864E+02 0.  0.
          5    1    3    3  501    0 -0.29652889696E+02 -0.53304691645E+02 -0.42800751667E+03  0.43235773192E+03  0.47000000000E+01 0. -1.
        -11    1    4    4    0    0  0.20278935827E+01  0.55215622788E+02 -0.13561144674E+03  0.14643545281E+03  0.00000000000E+00 0.  1.
         12    1    4    4    0    0 -0.57509990394E+02  0.19988684695E+02 -0.30165501320E+03  0.30773802739E+03  0.00000000000E+00 0. -1.
         -5    1    5    5    0  502  0.36899276113E+02  0.33950127152E+02 -0.19516204247E+03  0.20155515507E+03  0.47000000000E+01 0.  1.
         11    1    6    6    0    0  0.61162155085E+02 -0.98051309247E+01 -0.48278178420E+02  0.78534911464E+02  0.00000000000E+00 0. -1.
        -12    1    6    6    0    0 -0.12926444690E+02 -0.46044612065E+02 -0.37545179009E+02  0.60801642571E+02  0.00000000000E+00 0.  1.
</event>
<event>
12    1  0.8461994E-002  0.2029785E+03  0.7818608E-02  0.1149173E+00
         21   -1    0    0  501  502  0.00000000000E+00  0.00000000000E+00  0.18785484690E+03  0.18785484690E+03  0.00000000000E+00 0. -1.
         21   -1    0    0  502  503 -0.00000000000E+00 -0.00000000000E+00 -0.20979424099E+03  0.20979424099E+03  0.00000000000E+00 0. -1.
         -6    2    1    2    0  503 -0.86857298411E+02 -0.12179004804E+02 -0.56332124479E+01  0.20305664685E+03  0.18305122316E+03 0.  0.
        -24    2    3    3    0    0 -0.65683773756E+02  0.29155385834E+02  0.60080107357E+02  0.12245155770E+03  0.78869322466E+02 0.  0.
          6    2    1    2  501    0  0.86857298411E+02  0.12179004804E+02 -0.16306181644E+02  0.19459244105E+03  0.17293874091E+03 0.  0.
         24    2    5    5    0    0  0.61019138152E+02  0.74592824005E+02 -0.23407753368E+02  0.12650707056E+03  0.78541017125E+02 0.  0.
          5    1    5    5  501    0  0.25838160258E+02 -0.62413819200E+02  0.71015717237E+01  0.68085370482E+02  0.47000000000E+01 0. -1.
        -13    1    6    6    0    0 -0.11562815122E+02  0.29206458108E+02 -0.26130400395E+02  0.40859683229E+02  0.00000000000E+00 0.  1.
         14    1    6    6    0    0  0.72581953275E+02  0.45386365897E+02  0.27226470273E+01  0.85647387335E+02  0.00000000000E+00 0. -1.
         -5    1    3    3    0  503 -0.21173524655E+02 -0.41334390639E+02 -0.65713319805E+02  0.80605089142E+02  0.47000000000E+01 0.  1.
         11    1    4    4    0    0 -0.62521560661E+02  0.32433201981E+01  0.66150945708E+01  0.62954143228E+02  0.00000000000E+00 0. -1.
        -12    1    4    4    0    0 -0.31622130957E+01  0.25912065636E+02  0.53465012786E+02  0.59497414477E+02  0.00000000000E+00 0.  1.
</event>
<event>
12    1  0.8461994E-002  0.2302701E+03  0.7818608E-02  0.1127030E+00
         21   -1    0    0  503  502  0.00000000000E+00  0.00000000000E+00  0.96878678631E+03  0.96878678631E+03  0.00000000000E+00 0. -1.
         21   -1    0    0  501  503 -0.00000000000E+00 -0.00000000000E+00 -0.56400582848E+02  0.56400582848E+02  0.00000000000E+00 0. -1.
          6    2    1    2  501    0 -0.12921212690E+03 -0.82349090970E+02  0.56602334595E+03  0.61107015206E+03  0.17189286215E+03 0.  0.
         24    2    3    3    0    0 -0.45783263856E+02  0.10001487305E+02  0.34739745423E+03  0.35945859623E+03  0.79557238522E+02 0.  0.
         -6    2    1    2    0  502  0.12921212690E+03  0.82349090970E+02  0.34636285750E+03  0.41411721709E+03  0.16747744298E+03 0.  0.
        -24    2    5    5    0    0  0.89251596063E+02  0.45199838320E+02  0.33462225263E+03  0.35810969259E+03  0.79130444129E+02 0.  0.
          5    1    3    3  501    0 -0.83428863048E+02 -0.92350578275E+02  0.21862589173E+03  0.25161155584E+03  0.47000000000E+01 0. -1.
        -13    1    4    4    0    0 -0.65181518404E+02  0.14646908946E+01  0.30691914695E+03  0.31376765038E+03  0.00000000000E+00 0.  1.
         14    1    4    4    0    0  0.19398254548E+02  0.85367964105E+01  0.40478307283E+02  0.45690945853E+02  0.00000000000E+00 0. -1.
         -5    1    5    5    0  502  0.39960530840E+02  0.37149252650E+02  0.11740604872E+02  0.56007524496E+02  0.47000000000E+01 0.  1.
         13    1    6    6    0    0 -0.52235505035E+01  0.65940084613E+01  0.12171046383E+03  0.12200083374E+03  0.00000000000E+00 0. -1.
        -14    1    6    6    0    0  0.94475146567E+02  0.38605829859E+02  0.21291178880E+03  0.23610885885E+03  0.00000000000E+00 0.  1.
</event>
<event>
12    1  0.8461994E-002  0.2592755E+03  0.7818608E-02  0.1107626E+00
         21   -1    0    0  503  502  0.00000000000E+00  0.00000000000E+00  0.20609168884E+03  0.20609168884E+03  0.00000000000E+00 0. -1.
         21   -1    0    0  501  503 -0.00000000000E+00 -0.00000000000E+00 -0.32857438234E+03  0.32857438234E+03  0.00000000000E+00 0. -1.
          6    2    1    2  501    0  0.10668346419E+03  0.16151501773E+03 -0.85857286603E+02  0.27312132232E+03  0.17249730595E+03 0.  0.
         24    2    3    3    0    0  0.51387071417E+02  0.17606069473E+03 -0.55464060147E+02  0.20819747472E+03  0.81436645143E+02 0.  0.
         -6    2    1    2    0  502 -0.10668346419E+03 -0.16151501773E+03 -0.36625406906E+02  0.26154474886E+03  0.17203421968E+03 0.  0.
        -24    2    5    5    0    0 -0.14257319389E+02 -0.14107498737E+03 -0.10199473572E+02  0.16315365660E+03  0.80060372112E+02 0.  0.
          5    1    3    3  501    0  0.55296392770E+02 -0.14545677002E+02 -0.30393226455E+02  0.64923847600E+02  0.47000000000E+01 0. -1.
        -13    1    4    4    0    0  0.41144782737E+02  0.91494283609E+02  0.99250990693E+01  0.10080974492E+03  0.00000000000E+00 0.  1.
         14    1    4    4    0    0  0.10242288680E+02  0.84566411126E+02 -0.65389159217E+02  0.10738772980E+03  0.00000000000E+00 0. -1.
         -5    1    5    5    0  502 -0.92426144797E+02 -0.20440030359E+02 -0.26425933335E+02  0.98391092258E+02  0.47000000000E+01 0.  1.
         13    1    6    6    0    0 -0.10254406752E+02 -0.14007030009E+03  0.11640904204E+02  0.14092676281E+03  0.00000000000E+00 0. -1.
        -14    1    6    6    0    0 -0.40029126371E+01 -0.10046872800E+01 -0.21840377776E+02  0.22226893789E+02  0.00000000000E+00 0.  1.
</event>
<event>
12    1  0.8461994E-002  0.2940186E+03  0.7818608E-02  0.1088279E+00
         21   -1    0    0  501  502  0.00000000000E+00  0.00000000000E+00  0.27457562309E+03  0.27457562309E+03  0.00000000000E+00 0.  1.
         21   -1    0    0  502  503 -0.00000000000E+00 -0.00000000000E+00 -0.10833421921E+04  0.10833421921E+04  0.00000000000E+00 0. -1.
         -6    2    1    2    0  503  0.18970144700E+03  0.14447861698E+03 -0.97627892154E+03  0.10195918230E+04  0.17200652051E+03 0.  0.
        -24    2    3    3    0    0  0.12236311799E+03  0.16766591800E+03 -0.69392217465E+03  0.72835390651E+03  0.76725718922E+02 0.  0.
          6    2    1    2  501    0 -0.18970144700E+03 -0.14447861698E+03  0.16751235253E+03  0.33832599220E+03  0.17188187512E+03 0.  0.
         24    2    5    5    0    0 -0.19622734883E+03 -0.78124335595E+02  0.14319683573E+03  0.26720066331E+03  0.79260812955E+02 0.  0.
          5    1    5    5  501    0  0.65259018324E+01 -0.66354281383E+02  0.24315516796E+02  0.71125328890E+02  0.47000000000E+01 0. -1.
        -11    1    6    6    0    0 -0.13839983156E+03 -0.70209316117E+02  0.61804502832E+02  0.16704388051E+03  0.00000000000E+00 0.  1.
         12    1    6    6    0    0 -0.57827517274E+02 -0.79150194781E+01  0.81392332897E+02  0.10015678281E+03  0.00000000000E+00 0. -1.
         -5    1    3    3    0  503  0.67338329002E+02 -0.23187301027E+02 -0.28235674689E+03  0.29123791648E+03  0.47000000000E+01 0.  1.
         13    1    4    4    0    0 -0.32060000774E+01  0.46810496752E+02 -0.15606023737E+03  0.16296103440E+03  0.00000000000E+00 0. -1.
        -14    1    4    4    0    0  0.12556911807E+03  0.12085542125E+03 -0.53786193728E+03  0.56539287211E+03  0.00000000000E+00 0.  1.
</event>
<event>
12    1  0.8461994E-002  0.1767727E+03  0.7818608E-02  0.1172784E+00
         21   -1    0    0  501  502  0.00000000000E+00  0.00000000000E+00  0.15844177592E+03  0.15844177592E+03  0.00000000000E+00 0. -1.
         21   -1    0    0  502  503 -0.00000000000E+00 -0.00000000000E+00 -0.25917894710E+03  0.25917894710E+03  0.00000000000E+00 0. -1.
         -6    2    1    2    0  503  0.25528038460E+02 -0.90912755028E+01 -0.15954855387E+03  0.23812668063E+03  0.17468326465E+03 0.  0.
        -24    2    3    3    0    0  0.32856126493E+01 -0.60050904714E+02 -0.15322080559E+03  0.18196851370E+03  0.77582332429E+02 0.  0.
          6    2    1    2  501    0 -0.25528038460E+02  0.90912755028E+01  0.58811382694E+02  0.17949404239E+03  0.16740669186E+03 0.  0.
         24    2    5    5    0    0  0.31316234058E+01 -0.35662908201E+02  0.83480482915E+02  0.12071506925E+03  0.79507778425E+02 0.  0.
          5    1    5    5  501    0 -0.28659661866E+02  0.44754183704E+02 -0.24669100221E+02  0.58778973137E+02  0.47000000000E+01 0. -1.
        -11    1    6    6    0    0 -0.28331664457E+01 -0.27827215460E+02 -0.76942684206E+01  0.29010041691E+02  0.00000000000E+00 0.  1.
         12    1    6    6    0    0  0.59647898515E+01 -0.78356927412E+01  0.91174751336E+02  0.91705027560E+02  0.00000000000E+00 0. -1.
         -5    1    3    3    0  503  0.22242425811E+02  0.50959629212E+02 -0.63277482842E+01  0.56158166937E+02  0.47000000000E+01 0.  1.
         11    1    4    4    0    0  0.10936639221E+01  0.86726170929E+01 -0.83818345979E+02  0.84272922761E+02  0.00000000000E+00 0. -1.
        -12    1    4    4    0    0  0.21919487273E+01 -0.68723521807E+02 -0.69402459607E+02  0.97695590936E+02  0.00000000000E+00 0.  1.
</event>
<event>
12    1  0.8461994E-002  0.1795096E+03  0.7818608E-02  0.1169181E+00
         21   -1    0    0  501  502  0.00000000000E+00  0.00000000000E+00  0.10979305041E+04  0.10979305041E+04  0.00000000000E+00 0. -1.
         21   -1    0    0  502  503 -0.00000000000E+00 -0.00000000000E+00 -0.70770076069E+02  0.70770076069E+02  0.00000000000E+00 0. -1.
         -6    2    1    2    0  503 -0.19703067136E+02  0.39515328390E+02  0.61169085428E+02  0.18617171909E+03  0.17020158620E+03 0.  0.
        -24    2    3    3    0    0 -0.60536846000E+02 -0.52882446255E+00  0.76958272708E+02  0.12665432576E+03  0.80335254505E+02 0.  0.
          6    2    1    2  501    0  0.19703067136E+02 -0.39515328390E+02  0.96599134259E+03  0.98252886106E+03  0.17399430116E+03 0.  0.
         24    2    5    5    0    0 -0.22555176890E+02 -0.76724789116E+02  0.48807467345E+03  0.50128387585E+03  0.81689705915E+02 0.  0.
          5    1    5    5  501    0  0.42258244026E+02  0.37209460725E+02  0.47791666914E+03  0.48124498521E+03  0.47000000000E+01 0. -1.
        -11    1    6    6    0    0 -0.10031586995E+02 -0.58455494533E+02  0.13426261485E+03  0.14677917879E+03  0.00000000000E+00 0.  1.
         12    1    6    6    0    0 -0.12523589895E+02 -0.18269294583E+02  0.35381205860E+03  0.35450469706E+03  0.00000000000E+00 0. -1.
         -5    1    3    3    0  503  0.40833778864E+02  0.40044152853E+02 -0.15789187280E+02  0.59517393331E+02  0.47000000000E+01 0.  1.
         11    1    4    4    0    0 -0.55892216947E+02 -0.20930665024E+02  0.15400583142E+02  0.61637736937E+02  0.00000000000E+00 0. -1.
        -12    1    4    4    0    0 -0.46446290528E+01  0.20401840562E+02  0.61557689566E+02  0.65016588822E+02  0.00000000000E+00 0.  1.
</event>
<event>
12    1  0.8461994E-002  0.1949405E+03  0.7818608E-02  0.1154271E+00
         21   -1    0    0  501  502  0.00000000000E+00  0.00000000000E+00  0.35845736391E+03  0.35845736391E+03  0.00000000000E+00 0. -1.
         21   -1    0    0  502  503 -0.00000000000E+00 -0.00000000000E+00 -0.34754461643E+03  0.34754461643E+03  0.00000000000E+00 0. -1.
         -6    2    1    2    0  503  0.38866379131E+02  0.85142726070E+02 -0.28911356580E+03  0.34820653101E+03  0.17000369136E+03 0.  0.
        -24    2    3    3    0    0  0.45731964028E+02  0.11179542774E+03 -0.28649440510E+03  0.32016276584E+03  0.76390590276E+02 0.  0.
          6    2    1    2  501    0 -0.38866379131E+02 -0.85142726070E+02  0.30002631328E+03  0.35779544933E+03  0.17100267738E+03 0.  0.
         24    2    5    5    0    0 -0.53099124193E+02 -0.18439241209E+02  0.26171003888E+03  0.27942356146E+03  0.80161459827E+02 0.  0.
          5    1    5    5  501    0  0.14232745061E+02 -0.66703484862E+02  0.38316274398E+02  0.78371887871E+02  0.47000000000E+01 0. -1.
        -13    1    6    6    0    0 -0.10082990793E+02  0.28224526129E+02  0.12733693012E+03  0.13081660579E+03  0.00000000000E+00 0.  1.
         14    1    6    6    0    0 -0.43016133400E+02 -0.46663767338E+02  0.13437310876E+03  0.14860695567E+03  0.00000000000E+00 0. -1.
         -5    1    3    3    0  503 -0.68655848961E+01 -0.26652701666E+02 -0.26191607092E+01  0.28043765169E+02  0.47000000000E+01 0.  1.
         11    1    4    4    0    0  0.29656885945E+02  0.96718794187E+00 -0.78777435525E+02  0.84180464981E+02  0.00000000000E+00 0. -1.
        -12    1    4    4    0    0  0.16075078083E+02  0.11082823979E+03 -0.20771696957E+03  0.23598230086E+03  0.00000000000E+00 0.  1.
</event>
<event>
12    1  0.8461994E-002  0.1979999E+03  0.7818608E-02  0.1151523E+00
         21   -1    0    0  503  502  0.00000000000E+00  0.00000000000E+00  0.46642638029E+02  0.46642638029E+02  0.00000000000E+00 0. -1.
         21   -1    0    0  501  503 -0.00000000000E+00 -0.00000000000E+00 -0.89906724820E+03  0.89906724820E+03  0.00000000000E+00 0. -1.
          6    2    1    2  501    0 -0.71083612210E+02  0.67049824368E+02 -0.54820697380E+03  0.58273286538E+03  0.17175024718E+03 0.  0.
         24    2    3    3    0    0 -0.89236618415E+01  0.13526953664E+02 -0.14515087970E+03  0.17138767931E+03  0.89679142085E+02 0.  0.
         -6    2    1    2    0  502  0.71083612210E+02 -0.67049824368E+02 -0.30421763638E+03  0.36297702085E+03  0.17220739969E+03 0.  0.
        -24    2    5    5    0    0 -0.25342058474E+02 -0.24566413001E+02 -0.10513778830E+03  0.13768248891E+03  0.81589120905E+02 0.  0.
          5    1    3    3  501    0 -0.62159950368E+02  0.53522870703E+02 -0.40305609410E+03  0.41134518607E+03  0.47000000000E+01 0. -1.
        -11    1    4    4    0    0 -0.37486053571E+02 -0.23465074786E+02 -0.75829469696E+02  0.87783383516E+02  0.00000000000E+00 0.  1.
         12    1    4    4    0    0  0.28562391729E+02  0.36992028451E+02 -0.69321410004E+02  0.83604295794E+02  0.00000000000E+00 0. -1.
         -5    1    5    5    0  502  0.96425670684E+02 -0.42483411366E+02 -0.19907984808E+03  0.22529453193E+03  0.47000000000E+01 0.  1.
         13    1    6    6    0    0  0.22461103937E+02 -0.30318524514E+02 -0.64275458477E+02  0.74532198956E+02  0.00000000000E+00 0. -1.
        -14    1    6    6    0    0 -0.47803162412E+02  0.57521115132E+01 -0.40862329819E+02  0.63150289957E+02  0.00000000000E+00 0.  1.
</event>
<event>
12    1  0.8461994E-002  0.1884592E+03  0.7818608E-02  0.1160075E+00
         21   -1    0    0  503  502  0.00000000000E+00  0.00000000000E+00  0.68278848122E+03  0.68278848122E+03  0.00000000000E+00 0.  1.
         21   -1    0    0  501  503 -0.00000000000E+00 -0.00000000000E+00 -0.59150424052E+02  0.59150424052E+02  0.00000000000E+00 0.  1.
          6    2    1    2  501    0 -0.56430013892E+02  0.52501877149E+02  0.18134670254E+03  0.26154062863E+03  0.17197697616E+03 0.  0.
         24    2    3    3    0    0 -0.10156785715E+03  0.29938477542E+02  0.10388904724E+03  0.16897546099E+03  0.80916192674E+02 0.  0.
         -6    2    1    2    0  502  0.56430013892E+02 -0.52501877149E+02  0.44229135463E+03  0.48039827664E+03  0.17093878509E+03 0.  0.
        -24    2    5    5    0    0  0.84863539898E+02  0.76867415650E+01  0.23541906608E+03  0.26302907690E+03  0.80630343074E+02 0.  0.
          5    1    3    3  501    0  0.45137843257E+02  0.22563399607E+02  0.77457655298E+02  0.92565167639E+02  0.47000000000E+01 0. -1.
        -11    1    4    4    0    0 -0.94512257396E+02  0.31920877136E+02  0.11712262461E+03  0.15384803668E+03  0.00000000000E+00 0.  1.
         12    1    4    4    0    0 -0.70555997534E+01 -0.19823995939E+01 -0.13233577373E+02  0.15127424306E+02  0.00000000000E+00 0. -1.
         -5    1    5    5    0  502 -0.28433526006E+02 -0.60188618714E+02  0.20687228855E+03  0.21736919974E+03  0.47000000000E+01 0.  1.
         13    1    6    6    0    0 -0.44460570604E+01  0.23741960760E+02  0.30410811820E+02  0.38836395297E+02  0.00000000000E+00 0. -1.
        -14    1    6    6    0    0  0.89309596959E+02 -0.16055219195E+02  0.20500825426E+03  0.22419268161E+03  0.00000000000E+00 0.  1.
</event>
<event>
12    1  0.8461994E-002  0.1919145E+03  0.7818608E-02  0.1156746E+00
         21   -1    0    0  501  502  0.00000000000E+00  0.00000000000E+00  0.29756031346E+02  0.29756031346E+02  0.00000000000E+00 0.  1.
         21   -1    0    0  502  503 -0.00000000000E+00 -0.00000000000E+00 -0.28527032147E+04  0.28527032147E+04  0.00000000000E+00 0.  1.
         -6    2    1    2    0  503 -0.51470823567E+02  0.66048802406E+02 -0.32709196722E+03  0.37923648994E+03  0.17268315002E+03 0.  0.
        -24    2    3    3    0    0 -0.10034444013E+03  0.34740241706E+02 -0.23894014163E+03  0.27358758684E+03  0.80510156712E+02 0.  0.
          6    2    1    2  501    0  0.51470823567E+02 -0.66048802406E+02 -0.24958552161E+04  0.25032227561E+04  0.17268241612E+03 0.  0.
         24    2    5    5    0    0  0.85819112948E+02 -0.51240581742E+02 -0.23073081240E+04  0.23109438328E+04  0.82462731556E+02 0.  0.
          5    1    5    5  501    0 -0.34348289382E+02 -0.14808220664E+02 -0.18854709210E+03  0.19227892324E+03  0.47000000000E+01 0. -1.
        -13    1    6    6    0    0 -0.28454177377E+00 -0.42812850569E+02 -0.83282406281E+03  0.83392382190E+03  0.00000000000E+00 0.  1.
         14    1    6    6    0    0  0.86103654722E+02 -0.84277311729E+01 -0.14744840612E+04  0.14770200109E+04  0.00000000000E+00 0. -1.
         -5    1    3    3    0  503  0.48873616565E+02  0.31308560700E+02 -0.88151825598E+02  0.10564890310E+03  0.47000000000E+01 0.  1.
         13    1    4    4    0    0  0.77212091568E+01 -0.23489600986E+00 -0.67462353470E+02  0.67903176528E+02  0.00000000000E+00 0. -1.
        -14    1    4    4    0    0 -0.10806564929E+03  0.34975137716E+02 -0.17147778816E+03  0.20568441031E+03  0.00000000000E+00 0.  1.
</event>
<event>
12    1  0.8461994E-002  0.1871570E+03  0.7818608E-02  0.1161251E+00
         21   -1    0    0  501  502  0.00000000000E+00  0.00000000000E+00  0.13463353046E+04  0.13463353046E+04  0.00000000000E+00 0.  1.
         21   -1    0    0  502  503 -0.00000000000E+00 -0.00000000000E+00 -0.16343655267E+03  0.16343655267E+03  0.00000000000E+00 0.  1.
         -6    2    1    2    0  503 -0.48327715153E+02 -0.53075674002E+02 -0.10126961990E+03  0.21203684578E+03  0.17190547645E+03 0.  0.
        -24    2    3    3    0    0 -0.52529143922E+02 -0.85862329421E+02 -0.11658144001E+03  0.17530595126E+03  0.83721525419E+02 0.  0.
          6    2    1    2  501    0  0.48327715153E+02  0.53075674002E+02  0.12841683718E+04  0.12977350114E+04  0.17284431607E+03 0.  0.
         24    2    5    5    0    0  0.30145174712E+02  0.60081105790E+02  0.12661159323E+04  0.12707598113E+04  0.85220145250E+02 0.  0.
          5    1    5    5  501    0  0.18182540441E+02 -0.70054317886E+01  0.18052439497E+02  0.26975200152E+02  0.47000000000E+01 0. -1.
        -11    1    6    6    0    0  0.49354191935E+02  0.29583114716E+02  0.10566424960E+04  0.10582080898E+04  0.00000000000E+00 0.  1.
         12    1    6    6    0    0 -0.19209017224E+02  0.30497991075E+02  0.20947343632E+03  0.21255172153E+03  0.00000000000E+00 0. -1.
         -5    1    3    3    0  503  0.42014287696E+01  0.32786655419E+02  0.15311820110E+02  0.36730894521E+02  0.47000000000E+01 0.  1.
         11    1    4    4    0    0  0.71898716556E+01  0.12570041329E+02 -0.60146878686E+01  0.15680454828E+02  0.00000000000E+00 0. -1.
        -12    1    4    4    0    0 -0.59719015578E+02 -0.98432370750E+02 -0.11056675214E+03  0.15962549644E+03  0.00000000000E+00 0.  1.
</event>
<event>
12    1  0.8461994E-002  0.1780925E+03  0.7818608E-02  0.1169802E+00
         21   -1    0    0  503  502  0.00000000000E+00  0.00000000000E+00  0.11176827566E+03  0.11176827566E+03  0.00000000000E+00 0.  1.
         21   -1    0    0  501  503 -0.00000000000E+00 -0.00000000000E+00 -0.40993394484E+03  0.40993394484E+03  0.00000000000E+00 0.  1.
          6    2    1    2  501    0 -0.22924343576E+02  0.35905902312E+02 -0.29447561532E+03  0.34414068937E+03  0.17292242975E+03 0.  0.
         24    2    3    3    0    0 -0.46822873244E+02  0.46341603453E+02 -0.29924540467E+03  0.31721701078E+03  0.82090767078E+02 0.  0.
         -6    2    1    2    0  502  0.22924343576E+02 -0.35905902312E+02 -0.36900538598E+01  0.17756153113E+03  0.17233607135E+03 0.  0.
        -24    2    5    5    0    0 -0.51869111298E+02 -0.21392697322E+02 -0.22336855753E+02  0.98983625634E+02  0.78426850078E+02 0.  0.
          5    1    3    3  501    0  0.23898529668E+02 -0.10435701141E+02  0.47697893493E+01  0.26923678594E+02  0.47000000000E+01 0. -1.
        -13    1    4    4    0    0 -0.15361523001E+02  0.53364516927E+02 -0.91855365091E+02  0.10733664869E+03  0.00000000000E+00 0.  1.
         14    1    4    4    0    0 -0.31461350244E+02 -0.70229134735E+01 -0.20739003958E+03  0.20988036209E+03  0.00000000000E+00 0. -1.
         -5    1    5    5    0  502  0.74793454874E+02 -0.14513204990E+02  0.18646801893E+02  0.78577905495E+02  0.47000000000E+01 0.  1.
         13    1    6    6    0    0 -0.42510550860E+02  0.68615833545E+00  0.22525260133E+02  0.48114499808E+02  0.00000000000E+00 0. -1.
        -14    1    6    6    0    0 -0.93585604381E+01 -0.22078855657E+02 -0.44862115885E+02  0.50869125826E+02  0.00000000000E+00 0.  1.
</event>
<event>
12    1  0.8461994E-002  0.1959911E+03  0.7818608E-02  0.1153340E+00
         21   -1    0    0  503  502  0.00000000000E+00  0.00000000000E+00  0.12705242921E+04  0.12705242921E+04  0.00000000000E+00 0.  1.
         21   -1    0    0  501  503 -0.00000000000E+00 -0.00000000000E+00 -0.50356541969E+02  0.50356541969E+02  0.00000000000E+00 0.  1.
          6    2    1    2  501    0 -0.90946353685E+02  0.97184608067E+01  0.19205601626E+03  0.27440484118E+03  0.17334017351E+03 0.  0.
         24    2    3    3    0    0 -0.69817453940E+02 -0.32815676867E+02  0.38767008219E+02  0.11385829573E+03  0.74225905562E+02 0.  0.
         -6    2    1    2    0  502  0.90946353685E+02 -0.97184608067E+01  0.10281117339E+04  0.10464759929E+04  0.17243137369E+03 0.  0.
        -24    2    5    5    0    0  0.62210626650E+02  0.58171477760E+02  0.73413211757E+03  0.74335738480E+03  0.79850814633E+02 0.  0.
          5    1    3    3  501    0 -0.21128899744E+02  0.42534137674E+02  0.15328900804E+03  0.16054654546E+03  0.47000000000E+01 0. -1.
        -13    1    4    4    0    0 -0.11918102326E+02 -0.45320386354E+02  0.96086230241E+01  0.47836222873E+02  0.00000000000E+00 0.  1.
         14    1    4    4    0    0 -0.57899351614E+02  0.12504709486E+02  0.29158385195E+02  0.66022072854E+02  0.00000000000E+00 0. -1.
         -5    1    5    5    0  502  0.28735727034E+02 -0.67889938567E+02  0.29397961633E+03  0.30311860811E+03  0.47000000000E+01 0.  1.
         13    1    6    6    0    0 -0.54331484060E+01  0.42402422071E+02  0.38630066558E+03  0.38865883333E+03  0.00000000000E+00 0. -1.
        -14    1    6    6    0    0  0.67643775056E+02  0.15769055690E+02  0.34783145199E+03  0.35469855147E+03  0.00000000000E+00 0.  1.
</event>
<event>
12    1  0.8461994E-002  0.2316770E+03  0.7818608E-02  0.1125573E+00
         21   -1    0    0  503  502  0.00000000000E+00  0.00000000000E+00  0.10670312259E+03  0.10670312259E+03  0.00000000000E+00 0. -1.
         21   -1    0    0  501  503 -0.00000000000E+00 -0.00000000000E+00 -0.65661998214E+03  0.65661998214E+03  0.00000000000E+00 0. -1.
          6    2    1    2  501    0 -0.14503404032E+03 -0.53537418296E+02 -0.46007203651E+03  0.51483505578E+03  0.17171991112E+03 0.  0.
         24    2    3    3    0    0 -0.35848326114E+02 -0.78567192861E+02 -0.26837974361E+03  0.29276291669E+03  0.78895705409E+02 0.  0.
         -6    2    1    2    0  502  0.14503404032E+03  0.53537418296E+02 -0.89844823043E+02  0.24848804896E+03  0.17254880538E+03 0.  0.
        -24    2    5    5    0    0  0.44511957531E+01  0.27024268962E+02 -0.96746858761E+01  0.84427620556E+02  0.79273572578E+02 0.  0.
          5    1    3    3  501    0 -0.10918571420E+03  0.25029774566E+02 -0.19169229290E+03  0.22207213908E+03  0.47000000000E+01 0. -1.
        -13    1    4    4    0    0 -0.96402087078E+00 -0.19611645208E+02 -0.45106521526E+01  0.20146760207E+02  0.00000000000E+00 0.  1.
         14    1    4    4    0    0 -0.34884305244E+02 -0.58955547653E+02 -0.26386909146E+03  0.27261615649E+03  0.00000000000E+00 0. -1.
         -5    1    5    5    0  502  0.14058284457E+03  0.26513149333E+02 -0.80170137167E+02  0.16406042840E+03  0.47000000000E+01 0.  1.
         13    1    6    6    0    0  0.15381041158E+02  0.25616378357E+02 -0.41278407216E+02  0.50957650746E+02  0.00000000000E+00 0. -1.
        -14    1    6    6    0    0 -0.10929845404E+02  0.14078906059E+01  0.31603721340E+02  0.33469969810E+02  0.00000000000E+00 0.  1.
</event>
<event>
12    1  0.8461994E-002  0.1814921E+03  0.7818608E-02  0.1167183E+00
         21   -1    0    0  503  502  0.00000000000E+00  0.00000000000E+00  0.40435844762E+03  0.40435844762E+03  0.00000000000E+00 0. -1.
         21   -1    0    0  501  503 -0.00000000000E+00 -0.00000000000E+00 -0.80343724027E+02  0.80343724027E+02  0.00000000000E+00 0. -1.
          6    2    1    2  501    0  0.51613992851E+02  0.10232216665E+02  0.17739123931E+03  0.25138300348E+03  0.17016774118E+03 0.  0.
         24    2    3    3    0    0  0.56780902775E+02 -0.55379055919E+02  0.11420062355E+03  0.16002283728E+03  0.79212469196E+02 0.  0.
         -6    2    1    2    0  502 -0.51613992851E+02 -0.10232216665E+02  0.14662348428E+03  0.23331916817E+03  0.17369710871E+03 0.  0.
        -24    2    5    5    0    0 -0.64285191644E+02  0.45466971932E+02  0.12782340977E+03  0.17299925694E+03  0.85965617626E+02 0.  0.
          5    1    3    3  501    0 -0.51669099241E+01  0.65611272585E+02  0.63190615760E+02  0.91360166202E+02  0.47000000000E+01 0. -1.
        -11    1    4    4    0    0  0.65361875424E+01 -0.58200664814E+02  0.42232634382E+02  0.72205502139E+02  0.00000000000E+00 0.  1.
         12    1    4    4    0    0  0.50244715233E+02  0.28216088946E+01  0.71967989169E+02  0.87817335138E+02  0.00000000000E+00 0. -1.
         -5    1    5    5    0  502  0.12671198792E+02 -0.55699188598E+02  0.18800074509E+02  0.60319911230E+02  0.47000000000E+01 0.  1.
         11    1    6    6    0    0 -0.78942701010E+02  0.16791207905E+02  0.70107112607E+02  0.10690604260E+03  0.00000000000E+00 0. -1.
        -12    1    6    6    0    0  0.14657509367E+02  0.28675764027E+02  0.57716297165E+02  0.66093214340E+02  0.00000000000E+00 0.  1.
</event>
<event>
12    1  0.8461994E-002  0.2226738E+03  0.7818608E-02  0.1135043E+00
         21   -1    0    0  503  502  0.00000000000E+00  0.00000000000E+00  0.17455988078E+03  0.17455988078E+03  0.00000000000E+00 0.  1.
         21   -1    0    0  501  503 -0.00000000000E+00 -0.00000000000E+00 -0.55777262856E+03  0.55777262856E+03  0.00000000000E+00 0.  1.
          6    2    1    2  501    0  0.95623138560E+02 -0.10346391235E+03  0.70804673011E+02  0.23365983280E+03  0.17243853966E+03 0.  0.
         24    2    3    3    0    0  0.12775682335E+03 -0.49068769658E+02  0.46702663151E+02  0.16587781361E+03  0.81269675971E+02 0.  0.
         -6    2    1    2    0  502 -0.95623138560E+02  0.10346391235E+03 -0.45401742079E+03  0.49867267654E+03  0.15064545848E+03 0.  0.
        -24    2    5    5    0    0 -0.15767547038E+01  0.28582831147E+02 -0.20498140639E+03  0.22209913279E+03  0.80567880854E+02 0.  0.
          5    1    3    3  501    0 -0.32133684793E+02 -0.54395142695E+02  0.24102009861E+02  0.67782019198E+02  0.47000000000E+01 0. -1.
        -11    1    4    4    0    0  0.65955783354E+02 -0.16369735399E+02  0.64539273394E+02  0.93720069383E+02  0.00000000000E+00 0.  1.
         12    1    4    4    0    0  0.61801040000E+02 -0.32699034259E+02 -0.17836610244E+02  0.72157744224E+02  0.00000000000E+00 0. -1.
         -5    1    5    5    0  502 -0.94046383857E+02  0.74881081207E+02 -0.24903601439E+03  0.27657354375E+03  0.47000000000E+01 0.  1.
         11    1    6    6    0    0  0.84782907411E+00  0.53183904504E+01  0.69995323880E+01  0.88316218654E+01  0.00000000000E+00 0. -1.
        -12    1    6    6    0    0 -0.24245837779E+01  0.23264440697E+02 -0.21198093878E+03  0.21326751092E+03  0.00000000000E+00 0.  1.
</event>
<event>
12    1  0.8461994E-002  0.1976714E+03  0.7818608E-02  0.1153867E+00
         21   -1    0    0  501  502  0.00000000000E+00  0.00000000000E+00  0.25096717925E+03  0.25096717925E+03  0.00000000000E+00 0.  1.
         21   -1    0    0  502  503 -0.00000000000E+00 -0.00000000000E+00 -0.27256453628E+03  0.27256453628E+03  0.00000000000E+00 0.  1.
         -6    2    1    2    0  503 -0.29535059910E+02  0.65679371632E+02 -0.18780688774E+03  0.27266357142E+03  0.18408665481E+03 0.  0.
        -24    2    3    3    0    0 -0.47203075498E+02  0.11037384846E+03 -0.16461920722E+03  0.21909573068E+03  0.80578775489E+02 0.  0.
          6    2    1    2  501    0  0.29535059910E+02 -0.65679371632E+02  0.16620953071E+03  0.25086814410E+03  0.17356012793E+03 0.  0.
         24    2    5    5    0    0 -0.54049048837E+01 -0.14803821843E+02  0.97720204685E+01  0.82630492800E+02  0.80522914865E+02 0.  0.
          5    1    5    5  501    0  0.34939964794E+02 -0.50875549788E+02  0.15643751024E+03  0.16823765130E+03  0.47000000000E+01 0. -1.
        -11    1    6    6    0    0 -0.94734253205E+00  0.31443448214E+02 -0.86889009177E+01  0.32635638382E+02  0.00000000000E+00 0.  1.
         12    1    6    6    0    0 -0.44575623517E+01 -0.46247270057E+02  0.18460921386E+02  0.49994854418E+02  0.00000000000E+00 0. -1.
         -5    1    3    3    0  503  0.17668015587E+02 -0.44694476826E+02 -0.23187680522E+02  0.53567840740E+02  0.47000000000E+01 0.  1.
         13    1    4    4    0    0 -0.14433457009E+02  0.29498581630E+02 -0.70222077360E-01  0.32840461789E+02  0.00000000000E+00 0. -1.
        -14    1    4    4    0    0 -0.32769618488E+02  0.80875266828E+02 -0.16454898514E+03  0.18625526889E+03  0.00000000000E+00 0.  1.
</event>
<event>
12    1  0.8461994E-002  0.2329976E+03  0.7818608E-02  0.1124632E+00
         21   -1    0    0  501  502  0.00000000000E+00  0.00000000000E+00  0.16069729241E+03  0.16069729241E+03  0.00000000000E+00 0. -1.
         21   -1    0    0  502  503 -0.00000000000E+00 -0.00000000000E+00 -0.12135850446E+04  0.12135850446E+04  0.00000000000E+00 0. -1.
         -6    2    1    2    0  503  0.33116882860E+02  0.15362387594E+03 -0.11102435449E+04  0.11343291090E+04  0.17136153390E+03 0.  0.
        -24    2    3    3    0    0  0.14199234107E+02  0.17931599786E+03 -0.85471839378E+03  0.87677687075E+03  0.76408789290E+02 0.  0.
          6    2    1    2  501    0 -0.33116882860E+02 -0.15362387594E+03  0.57355792731E+02  0.23995322802E+03  0.17201988689E+03 0.  0.
         24    2    5    5    0    0 -0.44917486646E+02 -0.11926458282E+03  0.10158824033E+03  0.18252140153E+03  0.82172197979E+02 0.  0.
          5    1    5    5  501    0  0.11800603786E+02 -0.34359293120E+02 -0.44232447596E+02  0.57431826488E+02  0.47000000000E+01 0. -1.
        -11    1    6    6    0    0  0.15538409367E+02 -0.18812543425E+02  0.47509583196E+02  0.53408936061E+02  0.00000000000E+00 0.  1.
         12    1    6    6    0    0 -0.60455896013E+02 -0.10045203940E+03  0.54078657132E+02  0.12911246547E+03  0.00000000000E+00 0. -1.
         -5    1    3    3    0  503  0.18917648753E+02 -0.25692121916E+02 -0.25552515112E+03  0.25755223823E+03  0.47000000000E+01 0.  1.
         11    1    4    4    0    0  0.21754918775E+02  0.79768483798E+01 -0.79160639839E+02  0.82482201115E+02  0.00000000000E+00 0. -1.
        -12    1    4    4    0    0 -0.75556846681E+01  0.17133914948E+03 -0.77555775394E+03  0.79429466964E+03  0.00000000000E+00 0.  1.
</event>
<event>
12    1  0.8461994E-002  0.2739430E+03  0.7818608E-02  0.1099393E+00
         21   -1    0    0  503  502  0.00000000000E+00  0.00000000000E+00  0.12721786549E+03  0.12721786549E+03  0.00000000000E+00 0. -1.
         21   -1    0    0  501  503 -0.00000000000E+00 -0.00000000000E+00 -0.63220526046E+03  0.63220526046E+03  0.00000000000E+00 0. -1.
          6    2    1    2  501    0 -0.16142424873E+03 -0.13908958819E+03 -0.14722234244E+03  0.30882284130E+03  0.16820650276E+03 0.  0.
         24    2    3    3    0    0 -0.50951398744E+02 -0.54400447466E+02 -0.75637198925E+01  0.11158409766E+03  0.82694300120E+02 0.  0.
         -6    2    1    2    0  502  0.16142424873E+03  0.13908958819E+03 -0.35776505252E+03  0.45060028465E+03  0.17216585639E+03 0.  0.
        -24    2    5    5    0    0  0.75477548021E+02  0.15029152053E+03 -0.26807138944E+03  0.32578297076E+03  0.77381346598E+02 0.  0.
          5    1    3    3  501    0 -0.11047284999E+03 -0.84689140720E+02 -0.13965862255E+03  0.19723874364E+03  0.47000000000E+01 0. -1.
        -11    1    4    4    0    0 -0.60002005670E+02 -0.60792229416E+02  0.14740993005E+02  0.86678905834E+02  0.00000000000E+00 0.  1.
         12    1    4    4    0    0  0.90506069264E+01  0.63917819497E+01 -0.22304712897E+02  0.24905191821E+02  0.00000000000E+00 0. -1.
         -5    1    5    5    0  502  0.85946700712E+02 -0.11201932343E+02 -0.89693663080E+02  0.12481731390E+03  0.47000000000E+01 0.  1.
         13    1    6    6    0    0  0.83972836939E+02  0.13187986521E+03 -0.19492979267E+03  0.24988269300E+03  0.00000000000E+00 0. -1.
        -14    1    6    6    0    0 -0.84952889179E+01  0.18411655320E+02 -0.73141596771E+02  0.75900277758E+02  0.00000000000E+00 0.  1.
</event>
<event>
12    1  0.8461994E-002  0.3415692E+03  0.7818608E-02  0.1066500E+00
         21   -1    0    0  501  502  0.00000000000E+00  0.00000000000E+00  0.29687808776E+03  0.29687808776E+03  0.00000000000E+00 0. -1.
         21   -1    0    0  502  503 -0.00000000000E+00 -0.00000000000E+00 -0.47099246146E+03  0.47099246146E+03  0.00000000000E+00 0. -1.
         -6    2    1    2    0  503 -0.16036981303E+03  0.24269528154E+03  0.72772069289E+02  0.34923530658E+03  0.17902527387E+03 0.  0.
        -24    2    3    3    0    0 -0.13689808045E+03  0.24476709898E+03  0.21109439755E+02  0.29225871535E+03  0.79482898038E+02 0.  0.
          6    2    1    2  501    0  0.16036981303E+03 -0.24269528154E+03 -0.24688644298E+03  0.41863524264E+03  0.17228776520E+03 0.  0.
         24    2    5    5    0    0  0.30519489301E+02 -0.34000828427E+02 -0.77757955977E+02  0.12023782903E+03  0.79519433164E+02 0.  0.
          5    1    5    5  501    0  0.12985032373E+03 -0.20869445311E+03 -0.16912848700E+03  0.29839741361E+03  0.47000000000E+01 0. -1.
        -13    1    6    6    0    0  0.30652566286E+02 -0.47380945115E+02 -0.18347857326E+02  0.59339511697E+02  0.00000000000E+00 0.  1.
         14    1    6    6    0    0 -0.13307698484E+00  0.13380116688E+02 -0.59410098651E+02  0.60898317331E+02  0.00000000000E+00 0. -1.
         -5    1    3    3    0  503 -0.23471732577E+02 -0.20718174384E+01  0.51662629534E+02  0.56976591229E+02  0.47000000000E+01 0.  1.
         11    1    4    4    0    0 -0.11823477505E+02  0.33812808767E+02  0.30188902249E+02  0.46845175590E+02  0.00000000000E+00 0. -1.
        -12    1    4    4    0    0 -0.12507460295E+03  0.21095429021E+03 -0.90794624939E+01  0.24541353977E+03  0.00000000000E+00 0.  1.
</event>
<event>
12    1  0.8461994E-002  0.1726642E+03  0.7818608E-02  0.1175134E+00
         21   -1    0    0  503  502  0.00000000000E+00  0.00000000000E+00  0.54689363425E+03  0.54689363425E+03  0.00000000000E+00 0.  1.
         21   -1    0    0  501  503 -0.00000000000E+00 -0.00000000000E+00 -0.17807565674E+03  0.17807565674E+03  0.00000000000E+00 0.  1.
          6    2    1    2  501    0 -0.49435247182E+01  0.50508428663E+01 -0.11756985992E+03  0.20889133407E+03  0.17251947148E+03 0.  0.
         24    2    3    3    0    0  0.57836460271E+01  0.52174764152E+02 -0.12172447251E+03  0.16015647022E+03  0.89875420270E+02 0.  0.
         -6    2    1    2    0  502  0.49435247182E+01 -0.50508428663E+01  0.48638783743E+03  0.51607795691E+03  0.17237569364E+03 0.  0.
        -24    2    5    5    0    0  0.17883850606E+02 -0.67370780229E+02  0.34269843671E+03  0.35885213045E+03  0.80461039403E+02 0.  0.
          5    1    3    3  501    0 -0.10727170745E+02 -0.47123921285E+02  0.41546125899E+01  0.48734863858E+02  0.47000000000E+01 0. -1.
        -13    1    4    4    0    0  0.34015218091E+02 -0.10120306105E+02 -0.46370129886E+02  0.58392162172E+02  0.00000000000E+00 0.  1.
         14    1    4    4    0    0 -0.28231572064E+02  0.62295070257E+02 -0.75354342623E+02  0.10176430804E+03  0.00000000000E+00 0. -1.
         -5    1    5    5    0  502 -0.12940325888E+02  0.62319937363E+02  0.14368940072E+03  0.15722582646E+03  0.47000000000E+01 0.  1.
         13    1    6    6    0    0  0.29112423855E+02  0.79937017294E+01  0.10315029197E+03  0.10747751032E+03  0.00000000000E+00 0. -1.
        -14    1    6    6    0    0 -0.11228573249E+02 -0.75364481959E+02  0.23954814474E+03  0.25137462013E+03  0.00000000000E+00 0.  1.
</event>
<event>
12    1  0.8461994E-002  0.2692468E+03  0.7818608E-02  0.1101719E+00
         21   -1    0    0  501  502  0.00000000000E+00  0.00000000000E+00  0.21161296475E+04  0.21161296475E+04  0.00000000000E+00 0. -1.
         21   -1    0    0  502  503 -0.00000000000E+00 -0.00000000000E+00 -0.53020904469E+02  0.53020904469E+02  0.00000000000E+00 0. -1.
         -6    2    1    2    0  503  0.20687562762E+03 -0.16589271803E+02  0.38631201290E+03  0.47088299000E+03  0.17152576984E+03 0.  0.
        -24    2    3    3    0    0  0.16069337195E+03 -0.69127520232E+02  0.32570071557E+03  0.37820673818E+03  0.79739619029E+02 0.  0.
          6    2    1    2  501    0 -0.20687562762E+03  0.16589271803E+02  0.16767967301E+04  0.16982675620E+04  0.17144301857E+03 0.  0.
         24    2    5    5    0    0 -0.67950188747E+02 -0.60309946144E+02  0.59488622491E+03  0.60475661160E+03  0.59886734107E+02 0.  0.
          5    1    5    5  501    0 -0.13892543887E+03  0.76899217947E+02  0.10819105052E+04  0.10935109504E+04  0.47000000000E+01 0. -1.
        -13    1    6    6    0    0 -0.77583410468E+02 -0.43782587254E+02  0.46328729707E+03  0.47177454378E+03  0.00000000000E+00 0.  1.
         14    1    6    6    0    0  0.96332217210E+01 -0.16527358890E+02  0.13159892784E+03  0.13298206782E+03  0.00000000000E+00 0. -1.
         -5    1    3    3    0  503  0.46182255666E+02  0.52538248429E+02  0.60611297334E+02  0.92676251817E+02  0.47000000000E+01 0.  1.
         13    1    4    4    0    0  0.54721934166E+02 -0.61111413405E+02  0.10493696181E+03  0.13319482302E+03  0.00000000000E+00 0. -1.
        -14    1    4    4    0    0  0.10597143779E+03 -0.80161068274E+01  0.22076375376E+03  0.24501191516E+03  0.00000000000E+00 0.  1.
</event>
<event>
12    1  0.8461994E-002  0.1860821E+03  0.7818608E-02  0.1162315E+00
         21   -1    0    0  503  502  0.00000000000E+00  0.00000000000E+00  0.57972172143E+03  0.57972172143E+03  0.00000000000E+00 0.  1.
         21   -1    0    0  501  503 -0.00000000000E+00 -0.00000000000E+00 -0.93012591162E+02  0.93012591162E+02  0.00000000000E+00 0.  1.
          6    2    1    2  501    0 -0.21307170442E+02 -0.63534252621E+02  0.41502921838E+02  0.19065424552E+03  0.17359709688E+03 0.  0.
         24    2    3    3    0    0 -0.55447512892E+02 -0.95104197423E+02  0.19614483715E+02  0.13904593106E+03  0.82642651946E+02 0.  0.
         -6    2    1    2    0  502  0.21307170442E+02  0.63534252621E+02  0.44520620843E+03  0.48208006708E+03  0.17234275813E+03 0.  0.
        -24    2    5    5    0    0  0.10729776326E+02 -0.29607521025E+01  0.33443371168E+03  0.35236459785E+03  0.11041289852E+03 0.  0.
          5    1    3    3  501    0  0.34140342449E+02  0.31569944802E+02  0.21888438123E+02  0.51608314454E+02  0.47000000000E+01 0. -1.
        -11    1    4    4    0    0  0.21223467146E+02 -0.31620732777E+02  0.41150171057E+01  0.38304564543E+02  0.00000000000E+00 0.  1.
         12    1    4    4    0    0 -0.76670980037E+02 -0.63483464645E+02  0.15499466610E+02  0.10074136652E+03  0.00000000000E+00 0. -1.
         -5    1    5    5    0  502  0.10577394117E+02  0.66495004723E+02  0.11077249675E+03  0.12971546922E+03  0.47000000000E+01 0.  1.
         11    1    6    6    0    0  0.33990937379E+02  0.35850199588E+02  0.26446698631E+03  0.26904164637E+03  0.00000000000E+00 0. -1.
        -12    1    6    6    0    0 -0.23261161053E+02 -0.38810951690E+02  0.69966725374E+02  0.83322951486E+02  0.00000000000E+00 0.  1.
</event>
<event>
12    1  0.8461994E-002  0.2048412E+03  0.7818608E-02  0.1145892E+00
         21   -1    0    0  503  502  0.00000000000E+00  0.00000000000E+00  0.41462399125E+02  0.41462399125E+02  0.00000000000E+00 0.  1.
         21   -1    0    0  501  503 -0.00000000000E+00 -0.00000000000E+00 -0.17971098539E+04  0.17971098539E+04  0.00000000000E+00 0. -1.
          6    2    1    2  501    0  0.68117841057E+02 -0.86573211035E+02 -0.14860364469E+04  0.14999721712E+04  0.17168934645E+03 0.  0.
         24    2    3    3    0    0  0.38560264895E+02 -0.79800227363E+02 -0.53921478654E+03  0.55265339160E+03  0.82572482816E+02 0.  0.
         -6    2    1    2    0  502 -0.68117841057E+02  0.86573211035E+02 -0.26961100792E+03  0.33860008188E+03  0.17269904087E+03 0.  0.
        -24    2    5    5    0    0 -0.86995572578E+02  0.18556846090E+02 -0.10358872944E+03  0.15813379250E+03  0.79768949353E+02 0.  0.
          5    1    3    3  501    0  0.29557576162E+02 -0.67729836714E+01 -0.94682166033E+03  0.94731877955E+03  0.47000000000E+01 0. -1.
        -11    1    4    4    0    0  0.54587108904E+02 -0.80894959113E+02 -0.36915502547E+03  0.38183658769E+03  0.00000000000E+00 0.  1.
         12    1    4    4    0    0 -0.16026844009E+02  0.10947317501E+01 -0.17005976106E+03  0.17081680391E+03  0.00000000000E+00 0. -1.
         -5    1    5    5    0  502  0.18877731522E+02  0.68016364945E+02 -0.16602227849E+03  0.18046628938E+03  0.47000000000E+01 0.  1.
         11    1    6    6    0    0 -0.80729902670E+01 -0.15212889539E+01 -0.69279858641E+02  0.69765222749E+02  0.00000000000E+00 0. -1.
        -12    1    6    6    0    0 -0.78922582311E+02  0.20078135044E+02 -0.34308870795E+02  0.88368569756E+02  0.00000000000E+00 0.  1.
</event>
<event>
12    1  0.8461994E-002  0.2372305E+03  0.7818608E-02  0.1121669E+00
         21   -1    0    0  501  502  0.00000000000E+00  0.00000000000E+00  0.19092618717E+04  0.19092618717E+04  0.00000000000E+00 0.  1.
         21   -1    0    0  502  503 -0.00000000000E+00 -0.00000000000E+00 -0.30296685648E+02  0.30296685648E+02  0.00000000000E+00 0.  1.
         -6    2    1    2    0  503 -0.10538475037E+03 -0.12490886783E+03  0.11004723500E+04  0.11257520536E+04  0.17195965274E+03 0.  0.
        -24    2    3    3    0    0 -0.24976634891E+02  0.44274086224E+01  0.29822961176E+03  0.30916841519E+03  0.77464658924E+02 0.  0.
          6    2    1    2  501    0  0.10538475037E+03  0.12490886783E+03  0.77849283597E+03  0.81380650368E+03  0.17181897131E+03 0.  0.
         24    2    5    5    0    0  0.21814787517E+02  0.12856829435E+03  0.47190302461E+03  0.49597520799E+03  0.79330013446E+02 0.  0.
          5    1    5    5  501    0  0.83569962848E+02 -0.36594265213E+01  0.30658981136E+03  0.31783129569E+03  0.47000000000E+01 0. -1.
        -11    1    6    6    0    0 -0.29829861372E+02  0.56438882114E+02  0.18908207155E+03  0.19956752698E+03  0.00000000000E+00 0.  1.
         12    1    6    6    0    0  0.51644648889E+02  0.72129412239E+02  0.28282095306E+03  0.29640768101E+03  0.00000000000E+00 0. -1.
         -5    1    3    3    0  503 -0.80408115474E+02 -0.12933627645E+03  0.80224273827E+03  0.81658363843E+03  0.47000000000E+01 0.  1.
         13    1    4    4    0    0 -0.50620675201E+02  0.13068248162E+02  0.22772241568E+03  0.23364659311E+03  0.00000000000E+00 0. -1.
        -14    1    4    4    0    0  0.25644040309E+02 -0.86408395400E+01  0.70507196076E+02  0.75521822077E+02  0.00000000000E+00 0.  1.
</event>
<event>
12    1  0.8461994E-002  0.1876150E+03  0.7818608E-02  0.1161569E+00
         21   -1    0    0  503  502  0.00000000000E+00  0.00000000000E+00  0.15574117633E+04  0.15574117633E+04  0.00000000000E+00 0. -1.
         21   -1    0    0  501  503 -0.00000000000E+00 -0.00000000000E+00 -0.41750116844E+02  0.41750116844E+02  0.00000000000E+00 0.  1.
          6    2    1    2  501    0  0.64230721233E+02  0.16061995030E+02  0.21390260026E+03  0.28452362722E+03  0.17554429303E+03 0.  0.
         24    2    3    3    0    0  0.27897090142E+02 -0.21279589334E+02  0.21472639973E+03  0.23220445945E+03  0.81119761377E+02 0.  0.
         -6    2    1    2    0  502 -0.64230721233E+02 -0.16061995030E+02  0.13017590462E+04  0.13146382529E+04  0.17121199859E+03 0.  0.
        -24    2    5    5    0    0 -0.15639495910E+02 -0.59809339389E+02  0.10503232159E+04  0.10547979095E+04  0.74819924500E+02 0.  0.
          5    1    3    3  501    0  0.36333631091E+02  0.37341584363E+02 -0.82379947032E+00  0.52319167774E+02  0.47000000000E+01 0. -1.
        -11    1    4    4    0    0  0.24647000542E+02  0.14270470378E+02  0.21437610494E+02  0.35646768496E+02  0.00000000000E+00 0.  1.
         12    1    4    4    0    0  0.32500895996E+01 -0.35550059711E+02  0.19328878924E+03  0.19655769095E+03  0.00000000000E+00 0. -1.
         -5    1    5    5    0  502 -0.48591225323E+02  0.43747344359E+02  0.25143583029E+03  0.25984034342E+03  0.47000000000E+01 0.  1.
         11    1    6    6    0    0  0.86317339097E+01 -0.83458912764E+01  0.68199145828E+03  0.68209714111E+03  0.00000000000E+00 0. -1.
        -12    1    6    6    0    0 -0.24271229820E+02 -0.51463448112E+02  0.36833175763E+03  0.37270076840E+03  0.00000000000E+00 0.  1.
</event>
<event>
12    1  0.8461994E-002  0.1726918E+03  0.7818608E-02  0.1175353E+00
         21   -1    0    0  501  502  0.00000000000E+00  0.00000000000E+00  0.69096350612E+02  0.69096350612E+02  0.00000000000E+00 0.  1.
         21   -1    0    0  502  503 -0.00000000000E+00 -0.00000000000E+00 -0.50662465422E+03  0.50662465422E+03  0.00000000000E+00 0.  1.
         -6    2    1    2    0  503  0.12149714013E+02  0.17052660514E+02 -0.33215066171E+03  0.37436149192E+03  0.17141778138E+03 0.  0.
        -24    2    3    3    0    0  0.53497048233E+02  0.58782316312E+02 -0.17501395976E+03  0.20653718105E+03  0.75567361750E+02 0.  0.
          6    2    1    2  501    0 -0.12149714013E+02 -0.17052660514E+02 -0.10537764189E+03  0.20135951291E+03  0.17030207646E+03 0.  0.
         24    2    5    5    0    0  0.17883184548E+02  0.43312155709E+02 -0.26790255617E+02  0.97706469950E+02  0.81443755760E+02 0.  0.
          5    1    5    5  501    0 -0.30032898561E+02 -0.60364816223E+02 -0.78587386277E+02  0.10365304296E+03  0.47000000000E+01 0. -1.
        -11    1    6    6    0    0 -0.96405390087E+01  0.60048989618E+02 -0.23966938451E+02  0.65369987649E+02  0.00000000000E+00 0.  1.
         12    1    6    6    0    0  0.27523723557E+02 -0.16736833910E+02 -0.28233171662E+01  0.32336482300E+02  0.00000000000E+00 0. -1.
         -5    1    3    3    0  503 -0.41347334220E+02 -0.41729655798E+02 -0.15713670195E+03  0.16782431087E+03  0.47000000000E+01 0.  1.
         13    1    4    4    0    0  0.49217499479E+02  0.37423121167E+00 -0.99185101519E+02  0.11072572721E+03  0.00000000000E+00 0. -1.
        -14    1    4    4    0    0  0.42795487535E+01  0.58408085100E+02 -0.75828858244E+02  0.95811453831E+02  0.00000000000E+00 0.  1.
</event>
<event>
12    1  0.8461994E-002  0.1827004E+03  0.7818608E-02  0.1165763E+00
         21   -1    0    0  503  502  0.00000000000E+00  0.00000000000E+00  0.11909121527E+03  0.11909121527E+03  0.00000000000E+00 0. -1.
         21   -1    0    0  501  503 -0.00000000000E+00 -0.00000000000E+00 -0.38840974294E+03  0.38840974294E+03  0.00000000000E+00 0. -1.
          6    2    1    2  501    0 -0.47344857920E+01 -0.66047192330E+02 -0.27129988012E+03  0.32708264437E+03  0.17027854921E+03 0.  0.
         24    2    3    3    0    0  0.40673072195E+00 -0.41699922544E+02 -0.28464801683E+03  0.29845600630E+03  0.79450898319E+02 0.  0.
         -6    2    1    2    0  502  0.47344857920E+01  0.66047192330E+02  0.19813524542E+01  0.18041831384E+03  0.16781595646E+03 0.  0.
        -24    2    5    5    0    0  0.38348213308E+02 -0.49926625146E+01 -0.31741177866E+02  0.94768779663E+02  0.80486688860E+02 0.  0.
          5    1    3    3  501    0 -0.51412165140E+01 -0.24347269787E+02  0.13348136706E+02  0.28626638064E+02  0.47000000000E+01 0. -1.
        -13    1    4    4    0    0 -0.62051056845E+01  0.12256478346E+02 -0.67782714164E+01  0.15318928206E+02  0.00000000000E+00 0.  1.
         14    1    4    4    0    0  0.66118364065E+01 -0.53956400889E+02 -0.27786974541E+03  0.28313707810E+03  0.00000000000E+00 0. -1.
         -5    1    5    5    0  502 -0.33613727516E+02  0.71039854845E+02  0.33722530321E+02  0.85649534179E+02  0.47000000000E+01 0.  1.
         13    1    6    6    0    0 -0.15269635211E+02  0.12751560793E+02  0.12088906191E+02  0.23278868423E+02  0.00000000000E+00 0. -1.
        -14    1    6    6    0    0  0.53617848519E+02 -0.17744223308E+02 -0.43830084058E+02  0.71489911240E+02  0.00000000000E+00 0.  1.
</event>
<event>
12    1  0.8461994E-002  0.2244998E+03  0.7818608E-02  0.1130643E+00
         21   -1    0    0  501  502  0.00000000000E+00  0.00000000000E+00  0.63366516723E+02  0.63366516723E+02  0.00000000000E+00 0.  1.
         21   -1    0    0  502  503 -0.00000000000E+00 -0.00000000000E+00 -0.16936404930E+04  0.16936404930E+04  0.00000000000E+00 0. -1.
         -6    2    1    2    0  503 -0.11991386631E+03  0.79293811405E+02 -0.14550841254E+04  0.14722410827E+04  0.17192192939E+03 0.  0.
        -24    2    3    3    0    0 -0.56993106636E+02  0.90881231513E+02 -0.59841911253E+03  0.61317745029E+03  0.79834446520E+02 0.  0.
          6    2    1    2  501    0  0.11991386631E+03 -0.79293811405E+02 -0.17518985095E+03  0.28476592707E+03  0.17243348134E+03 0.  0.
         24    2    5    5    0    0  0.11950601666E+03 -0.11663785989E+03 -0.13239504274E+03  0.22777268267E+03  0.80410628964E+02 0.  0.
          5    1    5    5  501    0  0.40784964807E+00  0.37344048482E+02 -0.42794808204E+02  0.56993244403E+02  0.47000000000E+01 0. -1.
        -11    1    6    6    0    0 -0.33199421887E+01 -0.12094150354E+02  0.71986728561E+01  0.14460683933E+02  0.00000000000E+00 0.  1.
         12    1    6    6    0    0  0.12282595885E+03 -0.10454370953E+03 -0.13959371560E+03  0.21331199874E+03  0.00000000000E+00 0. -1.
         -5    1    3    3    0  503 -0.62920759669E+02 -0.11587420108E+02 -0.85666501284E+03  0.85906363241E+03  0.47000000000E+01 0.  1.
         11    1    4    4    0    0 -0.26243814753E+02  0.98272319935E+02 -0.47524593999E+03  0.48600914617E+03  0.00000000000E+00 0. -1.
        -12    1    4    4    0    0 -0.30749291883E+02 -0.73910884217E+01 -0.12317317254E+03  0.12716830412E+03  0.00000000000E+00 0.  1.
</event>
<event>
12    1  0.8461994E-002  0.1905743E+03  0.7818608E-02  0.1158046E+00
         21   -1    0    0  501  502  0.00000000000E+00  0.00000000000E+00  0.32255104082E+03  0.32255104082E+03  0.00000000000E+00 0. -1.
         21   -1    0    0  502  503 -0.00000000000E+00 -0.00000000000E+00 -0.12903691222E+03  0.12903691222E+03  0.00000000000E+00 0. -1.
         -6    2    1    2    0  503  0.69397128795E+02  0.44627589309E+02  0.15411153934E+02  0.19074465869E+03  0.17128466931E+03 0.  0.
        -24    2    3    3    0    0  0.32918240927E+02 -0.34902434835E+02  0.37776269561E+02  0.10031223974E+03  0.79584598740E+02 0.  0.
          6    2    1    2  501    0 -0.69397128795E+02 -0.44627589309E+02  0.17810297467E+03  0.26084329435E+03  0.17178757641E+03 0.  0.
         24    2    5    5    0    0 -0.77310892275E+02  0.56451700763E+01  0.50039167644E+02  0.12295781050E+03  0.81276459409E+02 0.  0.
          5    1    5    5  501    0  0.79137634799E+01 -0.50272759385E+02  0.12806380702E+03  0.13788548386E+03  0.47000000000E+01 0. -1.
        -13    1    6    6    0    0 -0.14368459031E+02  0.79650293232E+01 -0.21877427024E+02  0.27359022647E+02  0.00000000000E+00 0.  1.
         14    1    6    6    0    0 -0.62942433244E+02 -0.23198592469E+01  0.71916594668E+02  0.95598787849E+02  0.00000000000E+00 0. -1.
         -5    1    3    3    0  503  0.36478887869E+02  0.79530024143E+02 -0.22365115627E+02  0.90432418951E+02  0.47000000000E+01 0.  1.
         11    1    4    4    0    0  0.29451609511E+02  0.20790304788E+02  0.74822313035E+01  0.36818716181E+02  0.00000000000E+00 0. -1.
        -12    1    4    4    0    0  0.34666314160E+01 -0.55692739622E+02  0.30294038257E+02  0.63493523559E+02  0.00000000000E+00 0.  1.
</event>
<event>
12    1  0.8461994E-002  0.2197272E+03  0.7818608E-02  0.1134889E+00
         21   -1    0    0  503  502  0.00000000000E+00  0.00000000000E+00  0.13679537376E+03  0.13679537376E+03  0.00000000000E+00 0.  1.
         21   -1    0    0  501  503 -0.00000000000E+00 -0.00000000000E+00 -0.39069321512E+03  0.39069321512E+03  0.00000000000E+00 0. -1.
          6    2    1    2  501    0 -0.11234934440E+03  0.64949263000E+02 -0.21491237701E+03  0.30432968286E+03  0.17201291849E+03 0.  0.
         24    2    3    3    0    0 -0.79575048921E+02 -0.15953806179E+00 -0.47488914527E+02  0.12166601321E+03  0.78836589887E+02 0.  0.
         -6    2    1    2    0  502  0.11234934440E+03 -0.64949263000E+02 -0.38985464351E+02  0.22315890601E+03  0.17731116420E+03 0.  0.
        -24    2    5    5    0    0  0.13809158110E+02  0.73070790496E+01 -0.57731115160E+02  0.99446995893E+02  0.79452734897E+02 0.  0.
          5    1    3    3  501    0 -0.32774295482E+02  0.65108801061E+02 -0.16742346249E+03  0.18266366965E+03  0.47000000000E+01 0. -1.
        -13    1    4    4    0    0 -0.52052425056E+01 -0.19431714022E+02  0.12942182698E+02  0.23920412880E+02  0.00000000000E+00 0.  1.
         14    1    4    4    0    0 -0.74369806415E+02  0.19272175960E+02 -0.60431097225E+02  0.97745600332E+02  0.00000000000E+00 0. -1.
         -5    1    5    5    0  502  0.98540186293E+02 -0.72256342049E+02  0.18745650808E+02  0.12371191012E+03  0.47000000000E+01 0.  1.
         11    1    6    6    0    0  0.38793090011E+02  0.10271697254E+02 -0.62073594022E+02  0.73915780940E+02  0.00000000000E+00 0. -1.
        -12    1    6    6    0    0 -0.24983931901E+02 -0.29646182047E+01  0.43424788626E+01  0.25531214953E+02  0.00000000000E+00 0.  1.
</event>
<event>
12    1  0.8461994E-002  0.2027057E+03  0.7818608E-02  0.1148145E+00
         21   -1    0    0  503  502  0.00000000000E+00  0.00000000000E+00  0.32619498664E+03  0.32619498664E+03  0.00000000000E+00 0. -1.
         21   -1    0    0  501  503 -0.00000000000E+00 -0.00000000000E+00 -0.33137289493E+03  0.33137289493E+03  0.00000000000E+00 0. -1.
          6    2    1    2  501    0 -0.73526538320E+02  0.73578103423E+02 -0.26268046173E+03  0.32985282027E+03  0.17024091437E+03 0.  0.
         24    2    3    3    0    0  0.13389806493E+02 -0.50738160287E+01 -0.84045127019E+02  0.11613981590E+03  0.78865980850E+02 0.  0.
         -6    2    1    2    0  502  0.73526538320E+02 -0.73578103423E+02  0.25750255344E+03  0.32771506131E+03  0.17398191641E+03 0.  0.
        -24    2    5    5    0    0 -0.76153176337E+01 -0.85719414306E+02  0.18063034369E+03  0.21518578134E+03  0.79194623414E+02 0.  0.
          5    1    3    3  501    0 -0.86916344813E+02  0.78651919452E+02 -0.17863533471E+03  0.21371300437E+03  0.47000000000E+01 0. -1.
        -11    1    4    4    0    0 -0.15694537572E+02 -0.19413175796E+02  0.11417091413E+01  0.24989866023E+02  0.00000000000E+00 0.  1.
         12    1    4    4    0    0  0.29084344064E+02  0.14339359767E+02 -0.85186836160E+02  0.91149949880E+02  0.00000000000E+00 0. -1.
         -5    1    5    5    0  502  0.81141855954E+02  0.12141310883E+02  0.76872209749E+02  0.11252927996E+03  0.47000000000E+01 0.  1.
         11    1    6    6    0    0 -0.27478969888E+02 -0.13781813214E+02  0.10304684931E+03  0.10753457730E+03  0.00000000000E+00 0. -1.
        -12    1    6    6    0    0  0.19863652255E+02 -0.71937601092E+02  0.77583494380E+02  0.10765120404E+03  0.00000000000E+00 0.  1.
</event>
<event>
12    1  0.8461994E-002  0.1836460E+03  0.7818608E-02  0.1164810E+00
         21   -1    0    0  503  502  0.00000000000E+00  0.00000000000E+00  0.32659053790E+03  0.32659053790E+03  0.00000000000E+00 0.  1.
         21   -1    0    0  501  503 -0.00000000000E+00 -0.00000000000E+00 -0.11084783072E+03  0.11084783072E+03  0.00000000000E+00 0. -1.
          6    2    1    2  501    0  0.44387479955E+02  0.46278321269E+02  0.16872151359E+03  0.24786819005E+03  0.16988160317E+03 0.  0.
         24    2    3    3    0    0  0.26137272564E+02  0.64839485545E+02  0.34116134473E+02  0.11068843580E+03  0.78744544479E+02 0.  0.
         -6    2    1    2    0  502 -0.44387479955E+02 -0.46278321269E+02  0.47021193585E+02  0.18957017856E+03  0.17208697963E+03 0.  0.
        -24    2    5    5    0    0 -0.59174560234E+02 -0.90812660527E+02  0.21667160521E+02  0.13602690533E+03  0.79279790848E+02 0.  0.
          5    1    3    3  501    0  0.18250207391E+02 -0.18561164276E+02  0.13460537912E+03  0.13717975425E+03  0.47000000000E+01 0. -1.
        -13    1    4    4    0    0  0.45221313074E+01  0.25143078433E+02  0.55191161133E+02  0.60816842502E+02  0.00000000000E+00 0.  1.
         14    1    4    4    0    0  0.21615141257E+02  0.39696407112E+02 -0.21075026660E+02  0.49871593296E+02  0.00000000000E+00 0. -1.
         -5    1    5    5    0  502  0.14787080279E+02  0.44534339258E+02  0.25354033064E+02  0.53543273237E+02  0.47000000000E+01 0.  1.
         11    1    6    6    0    0  0.15054921920E+02  0.34917006822E+00 -0.42421232873E+01  0.15645069630E+02  0.00000000000E+00 0. -1.
        -12    1    6    6    0    0 -0.74229482154E+02 -0.91161830595E+02  0.25909283808E+02  0.12038183570E+03  0.00000000000E+00 0.  1.
</event>
<event>
12    1  0.8461994E-002  0.1883636E+03  0.7818608E-02  0.1160508E+00
         21   -1    0    0  501  502  0.00000000000E+00  0.00000000000E+00  0.45519374395E+03  0.45519374395E+03  0.00000000000E+00 0.  1.
         21   -1    0    0  502  503 -0.00000000000E+00 -0.00000000000E+00 -0.20266150773E+03  0.20266150773E+03  0.00000000000E+00 0.  1.
         -6    2    1    2    0  503 -0.65257089816E+02  0.30292909143E+02 -0.13312064418E+03  0.22865950442E+03  0.17142903762E+03 0.  0.
        -24    2    3    3    0    0 -0.14752799050E+02  0.22803359702E+02  0.16624827987E+01  0.84453547348E+02  0.79949981346E+02 0.  0.
          6    2    1    2  501    0  0.65257089816E+02 -0.30292909143E+02  0.38565288040E+03  0.42919574727E+03  0.17408244368E+03 0.  0.
         24    2    5    5    0    0  0.32644843010E+02 -0.43168957671E+02  0.38192575089E+03  0.39362423111E+03  0.78380555254E+02 0.  0.
          5    1    5    5  501    0  0.32612246806E+02  0.12876048528E+02  0.37271295060E+01  0.35571516158E+02  0.47000000000E+01 0. -1.
        -13    1    6    6    0    0  0.20662400651E+02 -0.57903013043E+02  0.16868032806E+03  0.17953480664E+03  0.00000000000E+00 0.  1.
         14    1    6    6    0    0  0.11982442359E+02  0.14734055372E+02  0.21324542283E+03  0.21408942447E+03  0.00000000000E+00 0. -1.
         -5    1    3    3    0  503 -0.50504290766E+02  0.74895494413E+01 -0.13478312698E+03  0.14420595707E+03  0.47000000000E+01 0.  1.
         11    1    4    4    0    0 -0.34570610227E+02 -0.17143352862E+02  0.80134261757E+01  0.39411123276E+02  0.00000000000E+00 0. -1.
        -12    1    4    4    0    0  0.19817811177E+02  0.39946712564E+02 -0.63509433770E+01  0.45042424072E+02  0.00000000000E+00 0.  1.
</event>
<event>
12    1  0.8461994E-002  0.1899857E+03  0.7818608E-02  0.1158842E+00
         21   -1    0    0  503  502  0.00000000000E+00  0.00000000000E+00  0.20738887520E+03  0.20738887520E+03  0.00000000000E+00 0.  1.
         21   -1    0    0  501  503 -0.00000000000E+00 -0.00000000000E+00 -0.17288752346E+03  0.17288752346E+03  0.00000000000E+00 0. -1.
          6    2    1    2  501    0 -0.53431541891E+01  0.76870588188E+02  0.25469640747E+02  0.19007610354E+03  0.17187956805E+03 0.  0.
         24    2    3    3    0    0 -0.61334669703E+02  0.63436733242E+02 -0.15721948510E+02  0.11912291268E+03  0.78466093492E+02 0.  0.
         -6    2    1    2    0  502  0.53431541891E+01 -0.76870588188E+02  0.90317109891E+01  0.19020029512E+03  0.17365754759E+03 0.  0.
        -24    2    5    5    0    0  0.56790022055E+02 -0.88858947487E+02 -0.10442411133E+02  0.13370399078E+03  0.81527259532E+02 0.  0.
          5    1    3    3  501    0  0.55991515514E+02  0.13433854946E+02  0.41191589257E+02  0.70953190864E+02  0.47000000000E+01 0. -1.
        -13    1    4    4    0    0 -0.16434928828E+02  0.68229920170E+02  0.29886946433E+01  0.70245008275E+02  0.00000000000E+00 0.  1.
         14    1    4    4    0    0 -0.44899740875E+02 -0.47931869275E+01 -0.18710643153E+02  0.48877904402E+02  0.00000000000E+00 0. -1.
         -5    1    5    5    0  502 -0.51446867866E+02  0.11988359299E+02  0.19474122122E+02  0.56496304342E+02  0.47000000000E+01 0.  1.
         13    1    6    6    0    0 -0.17895994494E+02 -0.30381772871E+02  0.10039892539E+02  0.36662217390E+02  0.00000000000E+00 0. -1.
        -14    1    6    6    0    0  0.74686016549E+02 -0.58477174616E+02 -0.20482303672E+02  0.97041773390E+02  0.00000000000E+00 0.  1.
</event>
<event>
12    1  0.8461994E-002  0.1820953E+03  0.7818608E-02  0.1166082E+00
         21   -1    0    0  501  502  0.00000000000E+00  0.00000000000E+00  0.30218135236E+03  0.30218135236E+03  0.00000000000E+00 0. -1.
         21   -1    0    0  502  503 -0.00000000000E+00 -0.00000000000E+00 -0.10934450837E+03  0.10934450837E+03  0.00000000000E+00 0.  1.
         -6    2    1    2    0  503 -0.40273688983E+02  0.31102942993E+02  0.85163682952E+02  0.20102625937E+03  0.17484090190E+03 0.  0.
        -24    2    3    3    0    0 -0.90743724279E+02  0.24020248459E+02  0.35036556867E+02  0.12938683032E+03  0.81865717564E+02 0.  0.
          6    2    1    2  501    0  0.40273688983E+02 -0.31102942993E+02  0.10767316104E+03  0.21049960136E+03  0.17357191443E+03 0.  0.
         24    2    5    5    0    0 -0.32310317440E+02 -0.43837177757E+02  0.97048878279E+02  0.13589689292E+03  0.77998884366E+02 0.  0.
          5    1    5    5  501    0  0.72584006423E+02  0.12734234764E+02  0.10624282761E+02  0.74602708447E+02  0.47000000000E+01 0. -1.
        -13    1    6    6    0    0 -0.47730925541E+02  0.10846466189E+00  0.40181303595E+02  0.62392228492E+02  0.00000000000E+00 0.  1.
         14    1    6    6    0    0  0.15420608100E+02 -0.43945642419E+02  0.56867574684E+02  0.73504664425E+02  0.00000000000E+00 0. -1.
         -5    1    3    3    0  503  0.50470035296E+02  0.70826945333E+01  0.50127126085E+02  0.71639429047E+02  0.47000000000E+01 0.  1.
         11    1    4    4    0    0 -0.28080498520E+02 -0.30136713986E+02  0.60256963049E+01  0.41629856389E+02  0.00000000000E+00 0. -1.
        -12    1    4    4    0    0 -0.62663225759E+02  0.54156962445E+02  0.29010860562E+02  0.87756973936E+02  0.00000000000E+00 0.  1.
</event>
<event>
12    1  0.8461994E-002  0.1837369E+03  0.7818608E-02  0.1164471E+00
         21   -1    0    0  503  502  0.00000000000E+00  0.00000000000E+00  0.98606941456E+02  0.98606941456E+02  0.00000000000E+00 0.  1.
         21   -1    0    0  501  503 -0.00000000000E+00 -0.00000000000E+00 -0.64351346154E+03  0.64351346154E+03  0.00000000000E+00 0. -1.
          6    2    1    2  501    0  0.24901035705E+02 -0.54214644851E+02 -0.52668146469E+03  0.55748183104E+03  0.17272329717E+03 0.  0.
         24    2    3    3    0    0  0.76732614457E+02 -0.42893095783E+02 -0.43946427722E+03  0.45528781057E+03  0.80189947666E+02 0.  0.
         -6    2    1    2    0  502 -0.24901035705E+02  0.54214644851E+02 -0.18225055393E+02  0.18463857197E+03  0.17378135780E+03 0.  0.
        -24    2    5    5    0    0 -0.59859275732E+02  0.42882914828E+02 -0.62855321232E+02  0.12663480243E+03  0.81630291589E+02 0.  0.
          5    1    3    3  501    0 -0.51831578753E+02 -0.11321549068E+02 -0.87217187470E+02  0.10219402047E+03  0.47000000000E+01 0. -1.
        -11    1    4    4    0    0  0.68589205761E+02  0.16650913759E+01 -0.19639996009E+03  0.20803892905E+03  0.00000000000E+00 0.  1.
         12    1    4    4    0    0  0.81434086965E+01 -0.44558187158E+02 -0.24306431713E+03  0.24724888151E+03  0.00000000000E+00 0. -1.
         -5    1    5    5    0  502  0.34958240027E+02  0.11331730022E+02  0.44630265839E+02  0.58003769532E+02  0.47000000000E+01 0.  1.
         13    1    6    6    0    0 -0.51102541652E+01  0.51183744671E+02 -0.15362606473E+02  0.53683331620E+02  0.00000000000E+00 0. -1.
        -14    1    6    6    0    0 -0.54749021567E+02 -0.83008298430E+01 -0.47492714759E+02  0.72951470813E+02  0.00000000000E+00 0.  1.
</event>
<event>
12    1  0.8461994E-002  0.2773567E+03  0.7818608E-02  0.1097370E+00
         21   -1    0    0  503  502  0.00000000000E+00  0.00000000000E+00  0.15177216196E+03  0.15177216196E+03  0.00000000000E+00 0. -1.
         21   -1    0    0  501  503 -0.00000000000E+00 -0.00000000000E+00 -0.52136021620E+03  0.52136021620E+03  0.00000000000E+00 0.  1.
          6    2    1    2  501    0 -0.19957610191E+03 -0.85081635717E+02 -0.24701155579E+03  0.37140469307E+03  0.17279245398E+03 0.  0.
         24    2    3    3    0    0 -0.17074184015E+03 -0.93396839994E+02 -0.26324548506E+03  0.33696361682E+03  0.79815712501E+02 0.  0.
         -6    2    1    2    0  502  0.19957610191E+03  0.85081635717E+02 -0.12257649846E+03  0.30172768509E+03  0.17013257414E+03 0.  0.
        -24    2    5    5    0    0  0.20503595705E+03  0.89250729007E+02 -0.68614672979E+02  0.24712768540E+03  0.79741352085E+02 0.  0.
          5    1    3    3  501    0 -0.28834261765E+02  0.83152042770E+01  0.16233929270E+02  0.34441076250E+02  0.47000000000E+01 0. -1.
        -13    1    4    4    0    0 -0.15263090358E+03 -0.64196954635E+02 -0.16876852417E+03  0.23643235071E+03  0.00000000000E+00 0.  1.
         14    1    4    4    0    0 -0.18110936571E+02 -0.29199885360E+02 -0.94476960883E+02  0.10053126611E+03  0.00000000000E+00 0. -1.
         -5    1    5    5    0  502 -0.54598551350E+01 -0.41690932898E+01 -0.53961825480E+02  0.54599999689E+02  0.47000000000E+01 0.  1.
         11    1    6    6    0    0  0.99775253176E+02  0.66071159300E+02 -0.71323520548E+02  0.13931096088E+03  0.00000000000E+00 0. -1.
        -12    1    6    6    0    0  0.10526070387E+03  0.23179569707E+02  0.27088475692E+01  0.10781672452E+03  0.00000000000E+00 0.  1.
</event>
<event>
12    1  0.8461994E-002  0.1978352E+03  0.7818608E-02  0.1153537E+00
         21   -1    0    0  501  502  0.00000000000E+00  0.00000000000E+00  0.66054176747E+02  0.66054176747E+02  0.00000000000E+00 0. -1.
         21   -1    0    0  502  503 -0.00000000000E+00 -0.00000000000E+00 -0.11822401156E+04  0.11822401156E+04  0.00000000000E+00 0. -1.
         -6    2    1    2    0  503 -0.37015349010E+02 -0.70873403224E+02 -0.10147948463E+04  0.10338990988E+04  0.18095742908E+03 0.  0.
        -24    2    3    3    0    0  0.25878821676E+02  0.19320470164E+01 -0.66899464949E+03  0.67493367375E+03  0.85487874551E+02 0.  0.
          6    2    1    2  501    0  0.37015349010E+02  0.70873403224E+02 -0.10139109255E+03  0.21439519351E+03  0.17114897021E+03 0.  0.
         24    2    5    5    0    0  0.58726234739E+02 -0.13444724625E+02 -0.71692889620E+02  0.12228122877E+03  0.78633944455E+02 0.  0.
          5    1    5    5  501    0 -0.21710885729E+02  0.84318127848E+02 -0.29698202927E+02  0.92113964740E+02  0.47000000000E+01 0. -1.
        -11    1    6    6    0    0  0.54364707416E+02 -0.27314969768E+02 -0.83664218182E+02  0.10344723481E+03  0.00000000000E+00 0.  1.
         12    1    6    6    0    0  0.43615273226E+01  0.13870245144E+02  0.11971328562E+02  0.18833993960E+02  0.00000000000E+00 0. -1.
         -5    1    3    3    0  503 -0.62894170686E+02 -0.72805450240E+02 -0.34580019678E+03  0.35896542505E+03  0.47000000000E+01 0.  1.
         13    1    4    4    0    0  0.57539410184E+00 -0.38311584173E+02 -0.20846112625E+03  0.21195317812E+03  0.00000000000E+00 0. -1.
        -14    1    4    4    0    0  0.25303427574E+02  0.40243631190E+02 -0.46053352324E+03  0.46298049562E+03  0.00000000000E+00 0.  1.
</event>
<event>
12    1  0.8461994E-002  0.2236211E+03  0.7818608E-02  0.1131225E+00
         21   -1    0    0  501  502  0.00000000000E+00  0.00000000000E+00  0.36832370753E+03  0.36832370753E+03  0.00000000000E+00 0.  1.
         21   -1    0    0  502  503 -0.00000000000E+00 -0.00000000000E+00 -0.19654291338E+03  0.19654291338E+03  0.00000000000E+00 0. -1.
         -6    2    1    2    0  503  0.11034503928E+03  0.90388486616E+02 -0.71211399813E+02  0.23468584233E+03  0.17222158668E+03 0.  0.
        -24    2    3    3    0    0  0.13485593424E+03  0.10162496420E+03 -0.83296414857E+02  0.20476628370E+03  0.80480940995E+02 0.  0.
          6    2    1    2  501    0 -0.11034503928E+03 -0.90388486616E+02  0.24299219396E+03  0.33018077859E+03  0.17212795826E+03 0.  0.
         24    2    5    5    0    0 -0.97156972728E+02 -0.11861211036E+03  0.24370930895E+03  0.29866725307E+03  0.79369961034E+02 0.  0.
          5    1    5    5  501    0 -0.13188066554E+02  0.28223623745E+02 -0.71711498372E+00  0.31513525519E+02  0.47000000000E+01 0. -1.
        -11    1    6    6    0    0 -0.24115878314E+02 -0.75319684055E+01  0.98950067989E+02  0.10212454206E+03  0.00000000000E+00 0.  1.
         12    1    6    6    0    0 -0.73041094414E+02 -0.11108014196E+03  0.14475924096E+03  0.19654271101E+03  0.00000000000E+00 0. -1.
         -5    1    3    3    0  503 -0.24510894959E+02 -0.11236477580E+02  0.12085015045E+02  0.29919558632E+02  0.47000000000E+01 0.  1.
         13    1    4    4    0    0  0.53294203121E+02  0.33600440962E+02 -0.75415168050E+02  0.98268556982E+02  0.00000000000E+00 0. -1.
        -14    1    4    4    0    0  0.81561731120E+02  0.68024523234E+02 -0.78812468070E+01  0.10649772672E+03  0.00000000000E+00 0.  1.
</event>
<event>
12    1  0.8461994E-002  0.1750724E+03  0.7818608E-02  0.1172799E+00
         21   -1    0    0  501  502  0.00000000000E+00  0.00000000000E+00  0.16884029421E+03  0.16884029421E+03  0.00000000000E+00 0.  1.
         21   -1    0    0  502  503 -0.00000000000E+00 -0.00000000000E+00 -0.18149191325E+03  0.18149191325E+03  0.00000000000E+00 0.  1.
         -6    2    1    2    0  503 -0.23246386606E+02  0.12065001684E+02  0.31968868666E+01  0.17454394927E+03  0.17253814472E+03 0.  0.
        -24    2    3    3    0    0 -0.23432733340E+02 -0.51046592248E+02 -0.29072755963E+02  0.10350503133E+03  0.81934234596E+02 0.  0.
          6    2    1    2  501    0  0.23246386606E+02 -0.12065001684E+02 -0.15848505908E+02  0.17578825819E+03  0.17310221784E+03 0.  0.
         24    2    5    5    0    0  0.28510462275E+02 -0.74232532652E+02 -0.12503923318E+02  0.11313214410E+03  0.79493512743E+02 0.  0.
          5    1    5    5  501    0 -0.52640756692E+01  0.62167530968E+02 -0.33445825897E+01  0.62656114083E+02  0.47000000000E+01 0. -1.
        -11    1    6    6    0    0 -0.21536011777E+02 -0.47641568542E+02 -0.19976592927E+02  0.55969483840E+02  0.00000000000E+00 0.  1.
         12    1    6    6    0    0  0.50046474052E+02 -0.26590964111E+02  0.74726696092E+01  0.57162660264E+02  0.00000000000E+00 0. -1.
         -5    1    3    3    0  503  0.18634673451E+00  0.63111593932E+02  0.32269642829E+02  0.71038917940E+02  0.47000000000E+01 0.  1.
         11    1    4    4    0    0 -0.27143356912E+01 -0.70644349887E+02 -0.18371339918E+02  0.73044492740E+02  0.00000000000E+00 0. -1.
        -12    1    4    4    0    0 -0.20718397649E+02  0.19597757639E+02 -0.10701416045E+02  0.30460538587E+02  0.00000000000E+00 0.  1.
</event>
<event>
12    1  0.8461994E-002  0.1953223E+03  0.7818608E-02  0.1154315E+00
         21   -1    0    0  501  502  0.00000000000E+00  0.00000000000E+00  0.15396573528E+03  0.15396573528E+03  0.00000000000E+00 0. -1.
         21   -1    0    0  502  503 -0.00000000000E+00 -0.00000000000E+00 -0.62618074530E+03  0.62618074530E+03  0.00000000000E+00 0. -1.
         -6    2    1    2    0  503 -0.13456427604E+01  0.88108141934E+02 -0.54002746252E+03  0.57338738647E+03  0.17140180646E+03 0.  0.
        -24    2    3    3    0    0 -0.82712828833E+01 -0.11916114789E+01 -0.39544429920E+03  0.40324394238E+03  0.78483432903E+02 0.  0.
          6    2    1    2  501    0  0.13456427604E+01 -0.88108141934E+02  0.67812452501E+02  0.20675909411E+03  0.17431562997E+03 0.  0.
         24    2    5    5    0    0 -0.31827675530E+02  0.14334870023E+02  0.36536020000E+02  0.94530109551E+02  0.79890997152E+02 0.  0.
          5    1    5    5  501    0  0.33173318291E+02 -0.10244301196E+03  0.31276432501E+02  0.11222898456E+03  0.47000000000E+01 0. -1.
        -11    1    6    6    0    0  0.21682926652E+01 -0.96510478459E+01 -0.21182948518E+02  0.23378655340E+02  0.00000000000E+00 0.  1.
         12    1    6    6    0    0 -0.33995968196E+02  0.23985917869E+02  0.57718968517E+02  0.71151454210E+02  0.00000000000E+00 0. -1.
         -5    1    3    3    0  503  0.69256401228E+01  0.89299753413E+02 -0.14458316332E+03  0.17014344409E+03  0.47000000000E+01 0.  1.
         13    1    4    4    0    0  0.90436186519E+01  0.32008189902E+02 -0.27781164999E+03  0.27979568283E+03  0.00000000000E+00 0. -1.
        -14    1    4    4    0    0 -0.17314901535E+02 -0.33199801381E+02 -0.11763264921E+03  0.12344825955E+03  0.00000000000E+00 0.  1.
</event>
<event>
12    1  0.8461994E-002  0.1846464E+03  0.7818608E-02  0.1164084E+00
         21   -1    0    0  501  502  0.00000000000E+00  0.00000000000E+00  0.12467610820E+04  0.12467610820E+04  0.00000000000E+00 0.  1.
         21   -1    0    0  502  503 -0.00000000000E+00 -0.00000000000E+00 -0.38050627664E+02  0.38050627664E+02  0.00000000000E+00 0.  1.
         -6    2    1    2    0  503  0.67896195235E+02  0.34147861459E+01  0.25323958759E+03  0.31166275740E+03  0.16846908183E+03 0.  0.
        -24    2    3    3    0    0  0.39195284492E+02  0.46624607250E+02  0.23662356510E+03  0.25699088967E+03  0.79645975953E+02 0.  0.
          6    2    1    2  501    0 -0.67896195235E+02 -0.34147861459E+01  0.95547086679E+03  0.97314895231E+03  0.17167630009E+03 0.  0.
         24    2    5    5    0    0  0.27803977807E+02 -0.12291437009E+02  0.36474994457E+03  0.37464196322E+03  0.79937087340E+02 0.  0.
          5    1    5    5  501    0 -0.95700173042E+02  0.88766508631E+01  0.59072092222E+03  0.59850698910E+03  0.47000000000E+01 0. -1.
        -13    1    6    6    0    0 -0.23781442129E+02 -0.29792303974E+01  0.20762446377E+03  0.20900323146E+03  0.00000000000E+00 0.  1.
         14    1    6    6    0    0  0.51585419936E+02 -0.93122066116E+01  0.15712548080E+03  0.16563873175E+03  0.00000000000E+00 0. -1.
         -5    1    3    3    0  503  0.28700910743E+02 -0.43209821104E+02  0.16616022494E+02  0.54671867728E+02  0.47000000000E+01 0.  1.
         11    1    4    4    0    0  0.51938510065E+02  0.36382926974E+02  0.23124156779E+03  0.23977904178E+03  0.00000000000E+00 0. -1.
        -12    1    4    4    0    0 -0.12743225573E+02  0.10241680277E+02  0.53819973156E+01  0.17211847896E+02  0.00000000000E+00 0.  1.
</event>
<event>
12    1  0.8461994E-002  0.2120387E+03  0.7818608E-02  0.1140129E+00
         21   -1    0    0  501  502  0.00000000000E+00  0.00000000000E+00  0.24600085932E+04  0.24600085932E+04  0.00000000000E+00 0. -1.
         21   -1    0    0  502  503 -0.00000000000E+00 -0.00000000000E+00 -0.10227544491E+03  0.10227544491E+03  0.00000000000E+00 0. -1.
         -6    2    1    2    0  503  0.12310106038E+03 -0.40286616696E+01  0.16890641127E+02  0.21185768176E+03  0.17154673527E+03 0.  0.
        -24    2    3    3    0    0  0.41889635302E+02 -0.51016875608E+02  0.46375978834E+02  0.11339620223E+03  0.79690050345E+02 0.  0.
          6    2    1    2  501    0 -0.12310106038E+03  0.40286616696E+01  0.23408425072E+04  0.23504263563E+04  0.17259870244E+03 0.  0.
         24    2    5    5    0    0 -0.30195035175E+02  0.40072541777E+02  0.69335859717E+03  0.69992461006E+03  0.81429520092E+02 0.  0.
          5    1    5    5  501    0 -0.92906025209E+02 -0.36043880107E+02  0.16474839100E+04  0.16505017463E+04  0.47000000000E+01 0. -1.
        -13    1    6    6    0    0 -0.25921693096E+02  0.40556364456E+02  0.17362533048E+03  0.18017355038E+03  0.00000000000E+00 0.  1.
         14    1    6    6    0    0 -0.42733420788E+01 -0.48382267913E+00  0.51973326669E+03  0.51975105968E+03  0.00000000000E+00 0. -1.
         -5    1    3    3    0  503  0.81211425082E+02  0.46988213939E+02 -0.29485337707E+02  0.98461479537E+02  0.47000000000E+01 0.  1.
         13    1    4    4    0    0  0.29583612834E+02  0.21497615032E+01 -0.13320040986E+02  0.32515152078E+02  0.00000000000E+00 0. -1.
        -14    1    4    4    0    0  0.12306022468E+02 -0.53166637112E+02  0.59696019820E+02  0.80881050148E+02  0.00000000000E+00 0.  1.
</event>
<event>
12    1  0.8461994E-002  0.1824789E+03  0.7818608E-02  0.1166416E+00
         21   -1    0    0  501  502  0.00000000000E+00  0.00000000000E+00  0.16854613635E+04  0.16854613635E+04  0.00000000000E+00 0.  1.
         21   -1    0    0  502  503 -0.00000000000E+00 -0.00000000000E+00 -0.21140209044E+02  0.21140209044E+02  0.00000000000E+00 0.  1.
         -6    2    1    2    0  503 -0.72188610305E+02 -0.12713249847E+02  0.10916636874E+04  0.11068098995E+04  0.16710991877E+03 0.  0.
        -24    2    3    3    0    0 -0.45566926202E+01 -0.52167252748E+02  0.75178186217E+03  0.75799413180E+03  0.81467477311E+02 0.  0.
          6    2    1    2  501    0  0.72188610305E+02  0.12713249847E+02  0.57265746704E+03  0.59979167308E+03  0.16260582511E+03 0.  0.
         24    2    5    5    0    0  0.67500753727E+02 -0.23452755764E+02  0.54019283803E+03  0.55074069860E+03  0.80003945659E+02 0.  0.
          5    1    5    5  501    0  0.46878565774E+01  0.36166005612E+02  0.32464629007E+02  0.49050974483E+02  0.47000000000E+01 0. -1.
        -13    1    6    6    0    0  0.22424059155E+02  0.11084399460E+02  0.37923891976E+03  0.38006296926E+03  0.00000000000E+00 0.  1.
         14    1    6    6    0    0  0.45076694572E+02 -0.34537155224E+02  0.16095391827E+03  0.17067772934E+03  0.00000000000E+00 0. -1.
         -5    1    3    3    0  503 -0.67631917685E+02  0.39454002901E+02  0.33988182526E+03  0.34881576767E+03  0.47000000000E+01 0.  1.
         13    1    4    4    0    0  0.24746823718E+02  0.34056524444E+00  0.85657704913E+02  0.89161447273E+02  0.00000000000E+00 0. -1.
        -14    1    4    4    0    0 -0.29303516338E+02 -0.52507817993E+02  0.66612415725E+03  0.66883268453E+03  0.00000000000E+00 0.  1.
</event>
<event>
12    1  0.8461994E-002  0.2688885E+03  0.7818608E-02  0.1101983E+00
         21   -1    0    0  503  502  0.00000000000E+00  0.00000000000E+00  0.65956214120E+03  0.65956214120E+03  0.00000000000E+00 0.  1.
         21   -1    0    0  501  503 -0.00000000000E+00 -0.00000000000E+00 -0.19717264928E+03  0.19717264928E+03  0.00000000000E+00 0. -1.
          6    2    1    2  501    0  0.11404257826E+03  0.17202899346E+03 -0.54665031865E+02  0.27394289598E+03  0.17162971858E+03 0.  0.
         24    2    3    3    0    0  0.67310476983E+02  0.15749138754E+02 -0.30946981836E+02  0.10904317441E+03  0.78447195725E+02 0.  0.
         -6    2    1    2    0  502 -0.11404257826E+03 -0.17202899346E+03  0.51705452378E+03  0.58279189450E+03  0.17234073076E+03 0.  0.
        -24    2    5    5    0    0 -0.71018238759E+02 -0.14164985053E+03  0.22611338070E+03  0.28708456477E+03  0.78625797334E+02 0.  0.
          5    1    3    3  501    0  0.46732101279E+02  0.15627985471E+03 -0.23718050029E+02  0.16489972157E+03  0.47000000000E+01 0. -1.
        -13    1    4    4    0    0  0.34768274121E+02 -0.23655180610E+02  0.10385653503E+02  0.43315842988E+02  0.00000000000E+00 0.  1.
         14    1    4    4    0    0  0.32542202862E+02  0.39404319364E+02 -0.41332635339E+02  0.65727331421E+02  0.00000000000E+00 0. -1.
         -5    1    5    5    0  502 -0.43024339503E+02 -0.30379142929E+02  0.29094114309E+03  0.29570732973E+03  0.47000000000E+01 0.  1.
         13    1    6    6    0    0  0.85824530667E+01 -0.67240996017E+02  0.81186735027E+02  0.10576528727E+03  0.00000000000E+00 0. -1.
        -14    1    6    6    0    0 -0.79600691826E+02 -0.74408854516E+02  0.14492664567E+03  0.18131927751E+03  0.00000000000E+00 0.  1.
</event>
<event>
12    1  0.8461994E-002  0.2623407E+03  0.7818608E-02  0.1105750E+00
         21   -1    0    0  503  502  0.00000000000E+00  0.00000000000E+00  0.38323486869E+03  0.38323486869E+03  0.00000000000E+00 0. -1.
         21   -1    0    0  501  503 -0.00000000000E+00 -0.00000000000E+00 -0.20596111329E+03  0.20596111329E+03  0.00000000000E+00 0.  1.
          6    2    1    2  501    0  0.18479287619E+03  0.70112015309E+02 -0.16844151962E+02  0.26284587278E+03  0.17245325628E+03 0.  0.
         24    2    3    3    0    0  0.99009058014E+02  0.27237370240E+02 -0.75142001099E+02  0.15051676763E+03  0.80400927237E+02 0.  0.
         -6    2    1    2    0  502 -0.18479287619E+03 -0.70112015309E+02  0.19411790736E+03  0.32635010920E+03  0.17250660867E+03 0.  0.
        -24    2    5    5    0    0 -0.60713670531E+02 -0.96743086469E+02  0.10240087947E+03  0.16970092652E+03  0.72574718581E+02 0.  0.
          5    1    3    3  501    0  0.85783818176E+02  0.42874645069E+02  0.58297849137E+02  0.11232910515E+03  0.47000000000E+01 0. -1.
        -11    1    4    4    0    0  0.41116988864E+02  0.10813565393E+02 -0.79529583340E+02  0.90180344843E+02  0.00000000000E+00 0.  1.
         12    1    4    4    0    0  0.57892069151E+02  0.16423804847E+02  0.43875822411E+01  0.60336422782E+02  0.00000000000E+00 0. -1.
         -5    1    5    5    0  502 -0.12407920566E+03  0.26631071160E+02  0.91717027886E+02  0.15664918267E+03  0.47000000000E+01 0.  1.
         13    1    6    6    0    0  0.14386309131E+02 -0.34080541153E+02  0.34930213196E+02  0.50877981187E+02  0.00000000000E+00 0. -1.
        -14    1    6    6    0    0 -0.75099979662E+02 -0.62662545316E+02  0.67470666278E+02  0.11882294534E+03  0.00000000000E+00 0.  1.
</event>
<event>
12    1  0.8461994E-002  0.2033402E+03  0.7818608E-02  0.1151710E+00
         21   -1    0    0  501  502  0.00000000000E+00  0.00000000000E+00  0.36953129393E+03  0.36953129393E+03  0.00000000000E+00 0. -1.
         21   -1    0    0  502  503 -0.00000000000E+00 -0.00000000000E+00 -0.22208692640E+03  0.22208692640E+03  0.00000000000E+00 0. -1.
         -6    2    1    2    0  503  0.26423108409E+02 -0.66053886536E+02 -0.14332943725E+03  0.24877815324E+03  0.19048870140E+03 0.  0.
        -24    2    3    3    0    0 -0.45847918724E+02  0.41792014959E+01 -0.30558236837E+02  0.97466482637E+02  0.80289551141E+02 0.  0.
          6    2    1    2  501    0 -0.26423108409E+02  0.66053886536E+02  0.29077380477E+03  0.34284006709E+03  0.16711854917E+03 0.  0.
         24    2    5    5    0    0 -0.32013256276E+02  0.14212715368E+01  0.64804823851E+02  0.10769607926E+03  0.79824255108E+02 0.  0.
          5    1    5    5  501    0  0.55901478670E+01  0.64632614999E+02  0.22596898092E+03  0.23514398783E+03  0.47000000000E+01 0. -1.
        -13    1    6    6    0    0 -0.22653872904E+02 -0.18069638889E+02  0.77418602782E+02  0.82664078437E+02  0.00000000000E+00 0.  1.
         14    1    6    6    0    0 -0.93593833725E+01  0.19490910426E+02 -0.12613778931E+02  0.25032000824E+02  0.00000000000E+00 0. -1.
         -5    1    3    3    0  503  0.72271027133E+02 -0.70233088032E+02 -0.11277120041E+03  0.15131167060E+03  0.47000000000E+01 0.  1.
         13    1    4    4    0    0 -0.20435325536E+02  0.27192176181E+02 -0.48134016743E+02  0.58939804403E+02  0.00000000000E+00 0. -1.
        -14    1    4    4    0    0 -0.25412593188E+02 -0.23012974685E+02  0.17575779906E+02  0.38526678234E+02  0.00000000000E+00 0.  1.
</event>
<event>
12    1  0.8461994E-002  0.2243399E+03  0.7818608E-02  0.1130851E+00
         21   -1    0    0  501  502  0.00000000000E+00  0.00000000000E+00  0.26415277454E+03  0.26415277454E+03  0.00000000000E+00 0.  1.
         21   -1    0    0  502  503 -0.00000000000E+00 -0.00000000000E+00 -0.25042567938E+03  0.25042567938E+03  0.00000000000E+00 0. -1.
         -6    2    1    2    0  503 -0.90029464465E+02 -0.11094511037E+03 -0.11975333420E+03  0.25430152195E+03  0.17295745439E+03 0.  0.
        -24    2    3    3    0    0 -0.57971874424E+01 -0.74035846258E+02 -0.82506228438E+01  0.10969061327E+03  0.80305939686E+02 0.  0.
          6    2    1    2  501    0  0.90029464465E+02  0.11094511037E+03  0.13348042936E+03  0.26027693197E+03  0.17179328948E+03 0.  0.
         24    2    5    5    0    0  0.71155359996E+02  0.11092815593E+02  0.11282218721E+03  0.15647151034E+03  0.81045368822E+02 0.  0.
          5    1    5    5  501    0  0.18874104469E+02  0.99852294774E+02  0.20658242145E+02  0.10380542163E+03  0.47000000000E+01 0. -1.
        -13    1    6    6    0    0  0.12536656288E+02  0.29165892477E+00  0.92724971136E+02  0.93569081902E+02  0.00000000000E+00 0.  1.
         14    1    6    6    0    0  0.58618703708E+02  0.10801156669E+02  0.20097216079E+02  0.62902428442E+02  0.00000000000E+00 0. -1.
         -5    1    3    3    0  503 -0.84232277022E+02 -0.36909264109E+02 -0.11150271136E+03  0.14461090868E+03  0.47000000000E+01 0.  1.
         11    1    4    4    0    0 -0.34274083300E+02 -0.72587957225E+02 -0.11092777064E+02  0.81035634280E+02  0.00000000000E+00 0. -1.
        -12    1    4    4    0    0  0.28476895857E+02 -0.14478890332E+01  0.28421542201E+01  0.28654978990E+02  0.00000000000E+00 0.  1.
</event>
<event>
12    1  0.8461994E-002  0.1869407E+03  0.7818608E-02  0.1161523E+00
         21   -1    0    0  501  502  0.00000000000E+00  0.00000000000E+00  0.15052918868E+03  0.15052918868E+03  0.00000000000E+00 0.  1.
         21   -1    0    0  502  503 -0.00000000000E+00 -0.00000000000E+00 -0.23132898500E+03  0.23132898500E+03  0.00000000000E+00 0. -1.
         -6    2    1    2    0  503 -0.67445647991E+01 -0.74687613050E+02 -0.50539534563E+02  0.19365191858E+03  0.17123986779E+03 0.  0.
        -24    2    3    3    0    0 -0.65001559367E+02 -0.57942053874E+02 -0.58590092195E+02  0.13232335553E+03  0.80586519889E+02 0.  0.
          6    2    1    2  501    0  0.67445647991E+01  0.74687613050E+02 -0.30260261753E+02  0.18820625510E+03  0.16994758698E+03 0.  0.
         24    2    5    5    0    0  0.85622108980E+01  0.99531552530E+02 -0.65913278185E+02  0.14445979528E+03  0.80896420233E+02 0.  0.
          5    1    5    5  501    0 -0.18176460990E+01 -0.24843939480E+02  0.35653016431E+02  0.43746459821E+02  0.47000000000E+01 0. -1.
        -13    1    6    6    0    0 -0.13409323549E+02  0.48622079513E+01  0.12978209469E+02  0.19284318635E+02  0.00000000000E+00 0.  1.
         14    1    6    6    0    0  0.21971534447E+02  0.94669344578E+02 -0.78891487653E+02  0.12517547664E+03  0.00000000000E+00 0. -1.
         -5    1    3    3    0  503  0.58256994568E+02 -0.16745559176E+02  0.80505576313E+01  0.61328563055E+02  0.47000000000E+01 0.  1.
         13    1    4    4    0    0 -0.18483180765E+01 -0.51396344603E+02 -0.10049196677E+02  0.52402164766E+02  0.00000000000E+00 0. -1.
        -14    1    4    4    0    0 -0.63153241291E+02 -0.65457092712E+01 -0.48540895518E+02  0.79921190763E+02  0.00000000000E+00 0.  1.
</event>
<event>
12    1  0.8461994E-002  0.1956127E+03  0.7818608E-02  0.1154468E+00
         21   -1    0    0  503  502  0.00000000000E+00  0.00000000000E+00  0.21349462437E+03  0.21349462437E+03  0.00000000000E+00 0. -1.
         21   -1    0    0  501  503 -0.00000000000E+00 -0.00000000000E+00 -0.18592654808E+03  0.18592654808E+03  0.00000000000E+00 0.  1.
          6    2    1    2  501    0 -0.77806184745E+02 -0.40439796352E+02  0.61617340749E+02  0.20086716513E+03  0.16988743871E+03 0.  0.
         24    2    3    3    0    0  0.17018610391E+02 -0.21425542713E+02  0.61881800710E+02  0.10404029100E+03  0.79033777037E+02 0.  0.
         -6    2    1    2    0  502  0.77806184745E+02  0.40439796352E+02 -0.34049264463E+02  0.19855400733E+03  0.17485754745E+03 0.  0.
        -24    2    5    5    0    0  0.91918819794E+02  0.58066424629E+02  0.22513735393E+02  0.13746941479E+03  0.81056724706E+02 0.  0.
          5    1    3    3  501    0 -0.94824795136E+02 -0.19014253638E+02 -0.26445996022E+00  0.96826874127E+02  0.47000000000E+01 0. -1.
        -13    1    4    4    0    0  0.62263393556E+01 -0.58825013403E+01 -0.19070496602E+02  0.20905859572E+02  0.00000000000E+00 0.  1.
         14    1    4    4    0    0  0.10792271036E+02 -0.15543041373E+02  0.80952297312E+02  0.83134431431E+02  0.00000000000E+00 0. -1.
         -5    1    5    5    0  502 -0.14112635048E+02 -0.17626628277E+02 -0.56562999856E+02  0.61084592535E+02  0.47000000000E+01 0.  1.
         13    1    6    6    0    0  0.14843208253E+02  0.42082594218E+02  0.36340084068E+02  0.57548825161E+02  0.00000000000E+00 0. -1.
        -14    1    6    6    0    0  0.77075611541E+02  0.15983830411E+02 -0.13826348675E+02  0.79920589629E+02  0.00000000000E+00 0.  1.
</event>
<event>
12    1  0.8461994E-002  0.2712721E+03  0.7818608E-02  0.1100655E+00
         21   -1    0    0  501  502  0.00000000000E+00  0.00000000000E+00  0.33625271528E+03  0.33625271528E+03  0.00000000000E+00 0.  1.
         21   -1    0    0  502  503 -0.00000000000E+00 -0.00000000000E+00 -0.22606163939E+03  0.22606163939E+03  0.00000000000E+00 0. -1.
         -6    2    1    2    0  503  0.12362177258E+02 -0.20874782724E+03  0.10719814200E+03  0.29102573682E+03  0.17168593139E+03 0.  0.
        -24    2    3    3    0    0 -0.38180735853E+01 -0.45756640131E+02  0.87156986701E+02  0.12594495205E+03  0.78470012201E+02 0.  0.
          6    2    1    2  501    0 -0.12362177258E+02  0.20874782724E+03  0.29929338882E+01  0.27128861786E+03  0.17280068786E+03 0.  0.
         24    2    5    5    0    0  0.89806106375E+01  0.59555059756E+02  0.51396036080E+02  0.11292528004E+03  0.80517761006E+02 0.  0.
          5    1    5    5  501    0 -0.21342787895E+02  0.14919276748E+03 -0.48403102192E+02  0.15836333782E+03  0.47000000000E+01 0. -1.
        -13    1    6    6    0    0  0.25187882536E+02  0.73595654314E+02  0.47465447990E+02  0.91124741500E+02  0.00000000000E+00 0.  1.
         14    1    6    6    0    0 -0.16207271898E+02 -0.14040594558E+02  0.39305880904E+01  0.21800538541E+02  0.00000000000E+00 0. -1.
         -5    1    3    3    0  503  0.16180250843E+02 -0.16299118711E+03  0.20041155300E+02  0.16508078476E+03  0.47000000000E+01 0.  1.
         13    1    4    4    0    0 -0.45431947384E+01 -0.51080550199E+02  0.14781078800E+02  0.53369874626E+02  0.00000000000E+00 0. -1.
        -14    1    4    4    0    0  0.72512115311E+00  0.53239100678E+01  0.72375907901E+02  0.72575077427E+02  0.00000000000E+00 0.  1.
</event>
<event>
12    1  0.8461994E-002  0.1935903E+03  0.7818608E-02  0.1155380E+00
         21   -1    0    0  503  502  0.00000000000E+00  0.00000000000E+00  0.78363832749E+03  0.78363832749E+03  0.00000000000E+00 0. -1.
         21   -1    0    0  501  503 -0.00000000000E+00 -0.00000000000E+00 -0.55467532254E+02  0.55467532254E+02  0.00000000000E+00 0. -1.
          6    2    1    2  501    0 -0.80128844287E+02  0.36578308170E+02  0.20744485809E+03  0.28374384209E+03  0.17239081895E+03 0.  0.
         24    2    3    3    0    0 -0.97523359159E+01  0.55093258751E+02  0.50381555629E+02  0.11057736928E+03  0.80985666838E+02 0.  0.
         -6    2    1    2    0  502  0.80128844287E+02 -0.36578308170E+02  0.52072593715E+03  0.55536201766E+03  0.17179308695E+03 0.  0.
        -24    2    5    5    0    0 -0.24891972579E+01 -0.65729746444E+02  0.26185164396E+03  0.28202424710E+03  0.81515623255E+02 0.  0.
          5    1    3    3  501    0 -0.70376508371E+02 -0.18514950581E+02  0.15706330246E+03  0.17316647281E+03  0.47000000000E+01 0. -1.
        -13    1    4    4    0    0  0.23301910005E+02  0.59365419126E+01 -0.99526406267E+01  0.26024538329E+02  0.00000000000E+00 0.  1.
         14    1    4    4    0    0 -0.33054245921E+02  0.49156716838E+02  0.60334196256E+02  0.84552830950E+02  0.00000000000E+00 0. -1.
         -5    1    5    5    0  502  0.82618041545E+02  0.29151438274E+02  0.25887429318E+03  0.27333777056E+03  0.47000000000E+01 0.  1.
         11    1    6    6    0    0  0.20060408486E+02 -0.70422802050E+02  0.13977415682E+03  0.15779292111E+03  0.00000000000E+00 0. -1.
        -12    1    6    6    0    0 -0.22549605744E+02  0.46930556054E+01  0.12207748714E+03  0.12423132599E+03  0.00000000000E+00 0.  1.
</event>
<event>
12    1  0.8461994E-002  0.2036950E+03  0.7818608E-02  0.1146827E+00
         21   -1    0    0  503  502  0.00000000000E+00  0.00000000000E+00  0.41669412154E+02  0.41669412154E+02  0.00000000000E+00 0. -1.
         21   -1    0    0  501  503 -0.00000000000E+00 -0.00000000000E+00 -0.10657728246E+04  0.10657728246E+04  0.00000000000E+00 0. -1.
          6    2    1    2  501    0  0.63925719604E+02 -0.85398420523E+02 -0.65892615403E+03  0.68969218786E+03  0.17352881511E+03 0.  0.
         24    2    3    3    0    0  0.91863774678E+02 -0.95009683536E+02 -0.62414253481E+03  0.64381298272E+03  0.86460741921E+02 0.  0.
         -6    2    1    2    0  502 -0.63925719604E+02  0.85398420523E+02 -0.36517725843E+03  0.41775004891E+03  0.17257255122E+03 0.  0.
        -24    2    5    5    0    0 -0.13619858807E+02 -0.16697046756E+02 -0.11061927772E+03  0.13886652553E+03  0.81135660380E+02 0.  0.
          5    1    3    3  501    0 -0.27938055075E+02  0.96112630130E+01 -0.34783619214E+02  0.45879205134E+02  0.47000000000E+01 0. -1.
        -11    1    4    4    0    0  0.45406330988E+02 -0.67298728426E+02 -0.19427939158E+03  0.21055957763E+03  0.00000000000E+00 0.  1.
         12    1    4    4    0    0  0.46457443691E+02 -0.27710955110E+02 -0.42986314324E+03  0.43325340509E+03  0.00000000000E+00 0. -1.
         -5    1    5    5    0  502 -0.50305860796E+02  0.10209546728E+03 -0.25455798071E+03  0.27888352338E+03  0.47000000000E+01 0.  1.
         13    1    6    6    0    0  0.33558221339E+02 -0.11488852310E+02 -0.36858601829E+02  0.51153733741E+02  0.00000000000E+00 0. -1.
        -14    1    6    6    0    0 -0.47178080146E+02 -0.52081944458E+01 -0.73760675889E+02  0.87712791788E+02  0.00000000000E+00 0.  1.
</event>
<event>
12    1  0.8461994E-002  0.1772077E+03  0.7818608E-02  0.1170718E+00
         21   -1    0    0  501  502  0.00000000000E+00  0.00000000000E+00  0.19701325559E+03  0.19701325559E+03  0.00000000000E+00 0. -1.
         21   -1    0    0  502  503 -0.00000000000E+00 -0.00000000000E+00 -0.25127312730E+03  0.25127312730E+03  0.00000000000E+00 0. -1.
         -6    2    1    2    0  503 -0.27315313879E+02 -0.24369079253E+02 -0.16319806192E+03  0.24090696980E+03  0.17338564614E+03 0.  0.
        -24    2    3    3    0    0  0.17704164249E+01 -0.79469934024E+02 -0.11445057974E+03  0.16165742139E+03  0.81948654056E+02 0.  0.
          6    2    1    2  501    0  0.27315313879E+02  0.24369079253E+02  0.10893819022E+03  0.20737941309E+03  0.17262303812E+03 0.  0.
         24    2    5    5    0    0  0.60648605484E+02  0.76872265492E+02  0.72375406255E+02  0.13508404625E+03  0.58497021914E+02 0.  0.
          5    1    5    5  501    0 -0.33333291605E+02 -0.52503186238E+02  0.36562783961E+02  0.72295366832E+02  0.47000000000E+01 0. -1.
        -13    1    6    6    0    0  0.37485663639E+02  0.71916370070E+02  0.29872571040E+02  0.86426325637E+02  0.00000000000E+00 0.  1.
         14    1    6    6    0    0  0.23162941845E+02  0.49558954214E+01  0.42502835215E+02  0.48657720617E+02  0.00000000000E+00 0. -1.
         -5    1    3    3    0  503 -0.29085730304E+02  0.55100854770E+02 -0.48747482188E+02  0.79249548411E+02  0.47000000000E+01 0.  1.
         13    1    4    4    0    0 -0.34289154870E+02 -0.66598201766E+02 -0.85394042626E+02  0.11359229347E+03  0.00000000000E+00 0. -1.
        -14    1    4    4    0    0  0.36059571295E+02 -0.12871732258E+02 -0.29056537110E+02  0.48065127922E+02  0.00000000000E+00 0.  1.
</event>
<event>
12    1  0.8461994E-002  0.1775540E+03  0.7818608E-02  0.1170392E+00
         21   -1    0    0  501  502  0.00000000000E+00  0.00000000000E+00  0.16967726771E+04  0.16967726771E+04  0.00000000000E+00 0.  1.
         21   -1    0    0  502  503 -0.00000000000E+00 -0.00000000000E+00 -0.27624242121E+02  0.27624242121E+02  0.00000000000E+00 0.  1.
         -6    2    1    2    0  503 -0.40123242732E+02 -0.49152859382E+01  0.33762485265E+03  0.38108739585E+03  0.17205530364E+03 0.  0.
        -24    2    3    3    0    0 -0.21327951454E+02  0.36576189923E+02  0.31967692799E+03  0.33190382600E+03  0.78575519385E+02 0.  0.
          6    2    1    2  501    0  0.40123242732E+02  0.49152859382E+01  0.13315235823E+04  0.13433095233E+04  0.17289126822E+03 0.  0.
         24    2    5    5    0    0  0.72096074895E+02  0.52782906460E+02  0.90648507239E+03  0.91436500944E+03  0.79776593084E+02 0.  0.
          5    1    5    5  501    0 -0.31972832163E+02 -0.47867620521E+02  0.42503850991E+03  0.42894451389E+03  0.47000000000E+01 0. -1.
        -11    1    6    6    0    0  0.38550105126E+02 -0.14130550630E+02  0.21886230586E+03  0.22268024608E+03  0.00000000000E+00 0.  1.
         12    1    6    6    0    0  0.33545969769E+02  0.66913457090E+02  0.68762276652E+03  0.69168476336E+03  0.00000000000E+00 0. -1.
         -5    1    3    3    0  503 -0.18795291278E+02 -0.41491475862E+02  0.17947924661E+02  0.49183569848E+02  0.47000000000E+01 0.  1.
         13    1    4    4    0    0  0.23840321968E+01 -0.20578462226E+02  0.14745278469E+03  0.14890090809E+03  0.00000000000E+00 0. -1.
        -14    1    4    4    0    0 -0.23711983651E+02  0.57154652149E+02  0.17222414330E+03  0.18300291791E+03  0.00000000000E+00 0.  1.
</event>
<event>
12    1  0.8461994E-002  0.1838087E+03  0.7818608E-02  0.1164305E+00
         21   -1    0    0  503  502  0.00000000000E+00  0.00000000000E+00  0.82940735576E+03  0.82940735576E+03  0.00000000000E+00 0.  1.
         21   -1    0    0  501  503 -0.00000000000E+00 -0.00000000000E+00 -0.16575053455E+03  0.16575053455E+03  0.00000000000E+00 0.  1.
          6    2    1    2  501    0  0.55981914341E+02  0.28422350485E+02 -0.10065627176E+03  0.20905348877E+03  0.17213329539E+03 0.  0.
         24    2    3    3    0    0  0.99033516667E+02  0.10714469324E+02 -0.44091855294E+02  0.13564618173E+03  0.80829188028E+02 0.  0.
         -6    2    1    2    0  502 -0.55981914341E+02 -0.28422350485E+02  0.76431309297E+03  0.78610440154E+03  0.17275364337E+03 0.  0.
        -24    2    5    5    0    0 -0.67585129312E+02  0.41153970705E+02  0.48943418331E+03  0.50228050536E+03  0.80489050582E+02 0.  0.
          5    1    3    3  501    0 -0.43051602326E+02  0.17707881161E+02 -0.56564416462E+02  0.73407307046E+02  0.47000000000E+01 0. -1.
        -11    1    4    4    0    0  0.64139539882E+02  0.10482127915E+02  0.15295290012E+02  0.66766020388E+02  0.00000000000E+00 0.  1.
         12    1    4    4    0    0  0.34893976785E+02  0.23234140868E+00 -0.59387145306E+02  0.68880161338E+02  0.00000000000E+00 0. -1.
         -5    1    5    5    0  502  0.11603214971E+02 -0.69576321190E+02  0.27487890965E+03  0.28382389618E+03  0.47000000000E+01 0.  1.
         11    1    6    6    0    0 -0.42710386023E+02  0.14472713289E+02  0.43128823231E+03  0.43363945373E+03  0.00000000000E+00 0. -1.
        -12    1    6    6    0    0 -0.24874743288E+02  0.26681257415E+02  0.58145951003E+02  0.68641051631E+02  0.00000000000E+00 0.  1.
</event>
<event>
12    1  0.8461994E-002  0.2012610E+03  0.7818608E-02  0.1148811E+00
         21   -1    0    0  501  502  0.00000000000E+00  0.00000000000E+00  0.11026414623E+04  0.11026414623E+04  0.00000000000E+00 0.  1.
         21   -1    0    0  502  503 -0.00000000000E+00 -0.00000000000E+00 -0.61484927745E+02  0.61484927745E+02  0.00000000000E+00 0. -1.
         -6    2    1    2    0  503 -0.10279666657E+03 -0.23342278474E+02  0.89120430970E+03  0.91364715647E+03  0.17144675054E+03 0.  0.
        -24    2    3    3    0    0  0.68089362427E+01  0.19285418165E+02  0.29478915883E+03  0.30572970247E+03  0.78432862004E+02 0.  0.
          6    2    1    2  501    0  0.10279666657E+03  0.23342278474E+02  0.14995222484E+03  0.25047923356E+03  0.17071074978E+03 0.  0.
         24    2    5    5    0    0  0.12523842466E+02 -0.23314470825E+02  0.11563425309E+03  0.14312073035E+03  0.80074039426E+02 0.  0.
          5    1    5    5  501    0  0.90272824101E+02  0.46656749298E+02  0.34317971755E+02  0.10735850321E+03  0.47000000000E+01 0. -1.
        -13    1    6    6    0    0 -0.81144754907E+01  0.22666422084E+02  0.99815246584E+01  0.26062276130E+02  0.00000000000E+00 0.  1.
         14    1    6    6    0    0  0.20638317956E+02 -0.45980892909E+02  0.10565272843E+03  0.11705845422E+03  0.00000000000E+00 0. -1.
         -5    1    3    3    0  503 -0.10960560281E+03 -0.42627696638E+02  0.59641515086E+03  0.60791745399E+03  0.47000000000E+01 0.  1.
         11    1    4    4    0    0 -0.30220817626E+02  0.10118308772E+02  0.60750835501E+02  0.68602784232E+02  0.00000000000E+00 0. -1.
        -12    1    4    4    0    0  0.37029753869E+02  0.91671093928E+01  0.23403832333E+03  0.23712691824E+03  0.00000000000E+00 0.  1.
</event>
<event>
12    1  0.8461994E-002  0.2462209E+03  0.7818608E-02  0.1115767E+00
         21   -1    0    0  501  502  0.00000000000E+00  0.00000000000E+00  0.14761745409E+03  0.14761745409E+03  0.00000000000E+00 0. -1.
         21   -1    0    0  502  503 -0.00000000000E+00 -0.00000000000E+00 -0.41428597297E+03  0.41428597297E+03  0.00000000000E+00 0.  1.
         -6    2    1    2    0  503 -0.11821681619E+03  0.12989590343E+03 -0.10524201183E+03  0.26748325759E+03  0.17211406298E+03 0.  0.
        -24    2    3    3    0    0 -0.45638294237E+02  0.11110900374E+03 -0.85577700115E+01  0.14504747007E+03  0.80854613549E+02 0.  0.
          6    2    1    2  501    0  0.11821681619E+03 -0.12989590343E+03 -0.16142650705E+03  0.29442016948E+03  0.17255885274E+03 0.  0.
         24    2    5    5    0    0  0.14013906089E+03 -0.96940127690E+02 -0.16941247066E+03  0.25376880318E+03  0.81619087888E+02 0.  0.
          5    1    5    5  501    0 -0.21922244693E+02 -0.32955775739E+02  0.79859636192E+01  0.40651366297E+02  0.47000000000E+01 0. -1.
        -11    1    6    6    0    0  0.11939705093E+03 -0.52361720393E+02 -0.83620435301E+02  0.15488635425E+03  0.00000000000E+00 0.  1.
         12    1    6    6    0    0  0.20742009956E+02 -0.44578407297E+02 -0.85792035364E+02  0.98882448928E+02  0.00000000000E+00 0. -1.
         -5    1    3    3    0  503 -0.72578521956E+02  0.18786899689E+02 -0.96684241821E+02  0.12243578752E+03  0.47000000000E+01 0.  1.
         13    1    4    4    0    0 -0.43058477595E+02  0.33392234653E+02  0.25494721228E+02  0.60158579093E+02  0.00000000000E+00 0. -1.
        -14    1    4    4    0    0 -0.25798166415E+01  0.77716769086E+02 -0.34052491239E+02  0.84888890974E+02  0.00000000000E+00 0.  1.
</event>
<event>
12    1  0.8461994E-002  0.1813159E+03  0.7818608E-02  0.1166979E+00
         21   -1    0    0  503  502  0.00000000000E+00  0.00000000000E+00  0.13334819001E+04  0.13334819001E+04  0.00000000000E+00 0. -1.
         21   -1    0    0  501  503 -0.00000000000E+00 -0.00000000000E+00 -0.27578376588E+02  0.27578376588E+02  0.00000000000E+00 0. -1.
          6    2    1    2  501    0 -0.51027585408E+02  0.62230852566E+01  0.42502916340E+03  0.46208793773E+03  0.17387619503E+03 0.  0.
         24    2    3    3    0    0 -0.23266411042E+01 -0.55294222113E+02  0.29192376049E+03  0.30750689309E+03  0.79234734160E+02 0.  0.
         -6    2    1    2    0  502  0.51027585408E+02 -0.62230852566E+01  0.88087436011E+03  0.89897233895E+03  0.17195664173E+03 0.  0.
        -24    2    5    5    0    0  0.78688875271E+02 -0.56825651802E+01  0.84985529983E+03  0.85714278935E+03  0.78838442727E+02 0.  0.
          5    1    3    3  501    0 -0.48700944304E+02  0.61517307369E+02  0.13310540290E+03  0.15458104465E+03  0.47000000000E+01 0. -1.
        -13    1    4    4    0    0  0.17178541166E+02 -0.16124978912E+02  0.23260550558E+03  0.23379571948E+03  0.00000000000E+00 0.  1.
         14    1    4    4    0    0 -0.19505182270E+02 -0.39169243200E+02  0.59318254910E+02  0.73711173602E+02  0.00000000000E+00 0. -1.
         -5    1    5    5    0  502 -0.27661289863E+02 -0.54052007635E+00  0.31019060283E+02  0.41829549599E+02  0.47000000000E+01 0.  1.
         13    1    6    6    0    0  0.28350929062E+02  0.35963574663E+02  0.38675699322E+03  0.38945875993E+03  0.00000000000E+00 0. -1.
        -14    1    6    6    0    0  0.50337946210E+02 -0.41646139844E+02  0.46309830660E+03  0.46768402942E+03  0.00000000000E+00 0.  1.
</event>
<event>
12    1  0.8461994E-002  0.1774018E+03  0.7818608E-02  0.1173756E+00
         21   -1    0    0  501  502  0.00000000000E+00  0.00000000000E+00  0.21823680231E+03  0.21823680231E+03  0.00000000000E+00 0. -1.
         21   -1    0    0  502  503 -0.00000000000E+00 -0.00000000000E+00 -0.14965129873E+03  0.14965129873E+03  0.00000000000E+00 0. -1.
         -6    2    1    2    0  503  0.45923789723E+02 -0.61282570013E+01  0.93281550294E+02  0.18877559296E+03  0.15744277334E+03 0.  0.
        -24    2    3    3    0    0 -0.16287639237E+02 -0.14172880109E+02  0.63061357578E+01  0.81435988958E+02  0.78268098398E+02 0.  0.
          6    2    1    2  501    0 -0.45923789723E+02  0.61282570013E+01 -0.24696046713E+02  0.17911250808E+03  0.17124498776E+03 0.  0.
         24    2    5    5    0    0  0.22159324224E+02  0.48287837632E+02 -0.26937755119E+02  0.98863795320E+02  0.78902829233E+02 0.  0.
          5    1    5    5  501    0 -0.68083113947E+02 -0.42159580630E+02  0.22417084053E+01  0.80248712764E+02  0.47000000000E+01 0. -1.
        -13    1    6    6    0    0  0.45702351173E+02  0.63192814330E+01 -0.19839926459E+02  0.50222115671E+02  0.00000000000E+00 0.  1.
         14    1    6    6    0    0 -0.23543026949E+02  0.41968556199E+02 -0.70978286594E+01  0.48641679648E+02  0.00000000000E+00 0. -1.
         -5    1    3    3    0  503  0.62211428960E+02  0.80446231076E+01  0.86975414536E+02  0.10733960400E+03  0.47000000000E+01 0.  1.
         11    1    4    4    0    0  0.20650990427E+02 -0.32184365625E+02 -0.56053075597E+01  0.38648625708E+02  0.00000000000E+00 0. -1.
        -12    1    4    4    0    0 -0.36938629664E+02  0.18011485516E+02  0.11911443318E+02  0.42787363250E+02  0.00000000000E+00 0.  1.
</event>
<event>
12    1  0.8461994E-002  0.2054199E+03  0.7818608E-02  0.1145801E+00
         21   -1    0    0  501  502  0.00000000000E+00  0.00000000000E+00  0.20011025505E+03  0.20011025505E+03  0.00000000000E+00 0.  1.
         21   -1    0    0  502  503 -0.00000000000E+00 -0.00000000000E+00 -0.24983359857E+03  0.24983359857E+03  0.00000000000E+00 0.  1.
         -6    2    1    2    0  503  0.72956913616E+02  0.80255692568E+02 -0.11667471545E+03  0.23388875847E+03  0.17125207934E+03 0.  0.
        -24    2    3    3    0    0  0.22880343632E+02  0.95724172355E+02 -0.27090989413E+02  0.12999327878E+03  0.80484181823E+02 0.  0.
          6    2    1    2  501    0 -0.72956913616E+02 -0.80255692568E+02  0.66951371931E+02  0.21605509516E+03  0.17445237318E+03 0.  0.
         24    2    5    5    0    0 -0.24181781879E+01  0.17283935262E+02  0.43535182490E+02  0.93335495580E+02  0.80694613307E+02 0.  0.
          5    1    5    5  501    0 -0.70538735428E+02 -0.97539627830E+02  0.23416189441E+02  0.12271959958E+03  0.47000000000E+01 0. -1.
        -11    1    6    6    0    0 -0.12488911945E+02  0.41873960119E+02  0.49576528565E+02  0.66085048552E+02  0.00000000000E+00 0.  1.
         12    1    6    6    0    0  0.10070733757E+02 -0.24590024856E+02 -0.60413460745E+01  0.27250447028E+02  0.00000000000E+00 0. -1.
         -5    1    3    3    0  503  0.50076569983E+02 -0.15468479788E+02 -0.89583726037E+02  0.10389547968E+03  0.47000000000E+01 0.  1.
         13    1    4    4    0    0  0.17955673764E+02  0.35745611509E+02  0.27660200338E+02  0.48633750063E+02  0.00000000000E+00 0. -1.
        -14    1    4    4    0    0  0.49246698683E+01  0.59978560846E+02 -0.54751189751E+02  0.81359528721E+02  0.00000000000E+00 0.  1.
</event>
<event>
12    1  0.8461994E-002  0.1955797E+03  0.7818608E-02  0.1154363E+00
         21   -1    0    0  503  502  0.00000000000E+00  0.00000000000E+00  0.16816508445E+03  0.16816508445E+03  0.00000000000E+00 0. -1.
         21   -1    0    0  501  503 -0.00000000000E+00 -0.00000000000E+00 -0.38241958776E+03  0.38241958776E+03  0.00000000000E+00 0. -1.
          6    2    1    2  501    0  0.68165281018E+02  0.56575018893E+02 -0.28423056022E+03  0.34286353766E+03  0.17006221154E+03 0.  0.
         24    2    3    3    0    0 -0.11576143692E+02  0.64189076956E+02 -0.20524767748E+03  0.23027111136E+03  0.81510311682E+02 0.  0.
         -6    2    1    2    0  502 -0.68165281018E+02 -0.56575018893E+02  0.69976056915E+02  0.20772113455E+03  0.17436795261E+03 0.  0.
        -24    2    5    5    0    0 -0.38658744240E+02 -0.98438789233E+02  0.79909965228E+02  0.15533808849E+03  0.80991514752E+02 0.  0.
          5    1    3    3  501    0  0.79741424711E+02 -0.76140580638E+01 -0.78982882735E+02  0.11259242630E+03  0.47000000000E+01 0. -1.
        -13    1    4    4    0    0  0.10112586778E+02  0.72210207095E+02 -0.10798390344E+03  0.13029620801E+03  0.00000000000E+00 0.  1.
         14    1    4    4    0    0 -0.21688730470E+02 -0.80211301382E+01 -0.97263774041E+02  0.99974903345E+02  0.00000000000E+00 0. -1.
         -5    1    5    5    0  502 -0.29506536778E+02  0.41863770340E+02 -0.99339083131E+01  0.52383046056E+02  0.47000000000E+01 0.  1.
         13    1    6    6    0    0 -0.51693389215E+02 -0.51328750977E+02  0.15496666499E+02  0.74478143358E+02  0.00000000000E+00 0. -1.
        -14    1    6    6    0    0  0.13034644974E+02 -0.47110038255E+02  0.64413298729E+02  0.80859945135E+02  0.00000000000E+00 0.  1.
</event>
<event>
12    1  0.8461994E-002  0.1840180E+03  0.7818608E-02  0.1164711E+00
         21   -1    0    0  503  502  0.00000000000E+00  0.00000000000E+00  0.18566191153E+04  0.18566191153E+04  0.00000000000E+00 0.  1.
         21   -1    0    0  501  503 -0.00000000000E+00 -0.00000000000E+00 -0.42276596057E+02  0.42276596057E+02  0.00000000000E+00 0.  1.
          6    2    1    2  501    0  0.11364186956E+02 -0.61102061846E+02  0.18338632048E+03  0.25759112164E+03  0.16988242022E+03 0.  0.
         24    2    3    3    0    0  0.63605132798E+02 -0.38382474099E+02  0.67748377196E+02  0.12859685814E+03  0.80177815346E+02 0.  0.
         -6    2    1    2    0  502 -0.11364186956E+02  0.61102061846E+02  0.16309561988E+04  0.16413045897E+04  0.17320515939E+03 0.  0.
        -24    2    5    5    0    0  0.57798542179E+02  0.16290653888E+02  0.10092175472E+04  0.10141103724E+04  0.79333050860E+02 0.  0.
          5    1    3    3  501    0 -0.52240945842E+02 -0.22719587747E+02  0.11563794328E+03  0.12899426350E+03  0.47000000000E+01 0. -1.
        -13    1    4    4    0    0  0.58508023921E+02  0.10438093883E+02  0.44719896713E+02  0.74377495447E+02  0.00000000000E+00 0.  1.
         14    1    4    4    0    0  0.50971088770E+01 -0.48820567982E+02  0.23028480484E+02  0.54219362689E+02  0.00000000000E+00 0. -1.
         -5    1    5    5    0  502 -0.69162729135E+02  0.44811407958E+02  0.62173865162E+03  0.62719421737E+03  0.47000000000E+01 0.  1.
         11    1    6    6    0    0  0.21603715088E+02 -0.32327286891E+02  0.38969183187E+03  0.39162673276E+03  0.00000000000E+00 0. -1.
        -12    1    6    6    0    0  0.36194827091E+02  0.48617940778E+02  0.61952571530E+03  0.62248363961E+03  0.00000000000E+00 0.  1.
</event>
<event>
12    1  0.8461994E-002  0.1970759E+03  0.7818608E-02  0.1152335E+00
         21   -1    0    0  501  502  0.00000000000E+00  0.00000000000E+00  0.69445246167E+02  0.69445246167E+02  0.00000000000E+00 0. -1.
         21   -1    0    0  502  503 -0.00000000000E+00 -0.00000000000E+00 -0.62224279067E+03  0.62224279067E+03  0.00000000000E+00 0. -1.
         -6    2    1    2    0  503 -0.72644374443E+02 -0.63264976878E+02 -0.16548509307E+03  0.25734064993E+03  0.17192798387E+03 0.  0.
        -24    2    3    3    0    0 -0.73569323769E+02 -0.10479678757E+03 -0.12774041142E+03  0.20101571918E+03  0.87720548133E+02 0.  0.
          6    2    1    2  501    0  0.72644374443E+02  0.63264976878E+02 -0.38731245142E+03  0.43434738690E+03  0.17136818562E+03 0.  0.
         24    2    5    5    0    0  0.44686541029E+02  0.63601818970E+02 -0.10492251775E+03  0.15053773493E+03  0.74905250697E+02 0.  0.
          5    1    5    5  501    0  0.27957833415E+02 -0.33684209243E+00 -0.28238993367E+03  0.28380965197E+03  0.47000000000E+01 0. -1.
        -11    1    6    6    0    0  0.41572084126E+02  0.12642381749E+02 -0.12942508924E+02  0.45338466363E+02  0.00000000000E+00 0.  1.
         12    1    6    6    0    0  0.31144569022E+01  0.50959437222E+02 -0.91980008829E+02  0.10519926857E+03  0.00000000000E+00 0. -1.
         -5    1    3    3    0  503  0.92494932613E+00  0.41531810690E+02 -0.37744681657E+02  0.56324930749E+02  0.47000000000E+01 0.  1.
         11    1    4    4    0    0  0.31992783257E+01  0.25129437529E+00  0.10616929425E+02  0.11091335406E+02  0.00000000000E+00 0. -1.
        -12    1    4    4    0    0 -0.76768602095E+02 -0.10504808194E+03 -0.13835734084E+03  0.18992438378E+03  0.00000000000E+00 0.  1.
</event>
<event>
12    1  0.8461994E-002  0.4277905E+03  0.7818608E-02  0.1034590E+00
         21   -1    0    0  501  502  0.00000000000E+00  0.00000000000E+00  0.17653427951E+03  0.17653427951E+03  0.00000000000E+00 0.  1.
         21   -1    0    0  502  503 -0.00000000000E+00 -0.00000000000E+00 -0.12015994104E+04  0.12015994104E+04  0.00000000000E+00 0. -1.
         -6    2    1    2    0  503  0.38486623976E+03  0.70411705130E+02 -0.76874261451E+03  0.87975558036E+03  0.17298798535E+03 0.  0.
        -24    2    3    3    0    0  0.29299712679E+03 -0.96267963684E+01 -0.58407647825E+03  0.65846444289E+03  0.80561148128E+02 0.  0.
          6    2    1    2  501    0 -0.38486623976E+03 -0.70411705130E+02 -0.25632251635E+03  0.49837810952E+03  0.17204556643E+03 0.  0.
         24    2    5    5    0    0 -0.22198395637E+03 -0.26791709552E+02 -0.21320345952E+03  0.32426698030E+03  0.98481910890E+02 0.  0.
          5    1    5    5  501    0 -0.16288228339E+03 -0.43619995578E+02 -0.43119056835E+02  0.17411112922E+03  0.47000000000E+01 0. -1.
        -13    1    6    6    0    0  0.19052734307E+01  0.35863935279E+01 -0.38363738168E+02  0.38578085639E+02  0.00000000000E+00 0.  1.
         14    1    6    6    0    0 -0.22388922980E+03 -0.30378103080E+02 -0.17483972135E+03  0.28568889466E+03  0.00000000000E+00 0. -1.
         -5    1    3    3    0  503  0.91869112978E+02  0.80038501499E+02 -0.18466613626E+03  0.22129113747E+03  0.47000000000E+01 0.  1.
         13    1    4    4    0    0  0.48901348104E+02 -0.22363160605E+02 -0.16235809387E+03  0.17103100141E+03  0.00000000000E+00 0. -1.
        -14    1    4    4    0    0  0.24409577868E+03  0.12736364237E+02 -0.42171838438E+03  0.48743344148E+03  0.00000000000E+00 0.  1.
</event>
<event>
12    1  0.8461994E-002  0.2461773E+03  0.7818608E-02  0.1116163E+00
         21   -1    0    0  503  502  0.00000000000E+00  0.00000000000E+00  0.12071276949E+03  0.12071276949E+03  0.00000000000E+00 0.  1.
         21   -1    0    0  501  503 -0.00000000000E+00 -0.00000000000E+00 -0.54030593348E+03  0.54030593348E+03  0.00000000000E+00 0. -1.
          6    2    1    2  501    0  0.15312878811E+03 -0.80538129576E+02 -0.30257318473E+03  0.38844404696E+03  0.17147428213E+03 0.  0.
         24    2    3    3    0    0  0.11876430501E+03 -0.74154646234E+01 -0.26033882345E+03  0.29715509307E+03  0.79780305114E+02 0.  0.
         -6    2    1    2    0  502 -0.15312878811E+03  0.80538129576E+02 -0.11701997926E+03  0.27257465602E+03  0.17512410313E+03 0.  0.
        -24    2    5    5    0    0 -0.22908058533E+02  0.80790816977E+02 -0.59295335023E+02  0.13005544043E+03  0.79665209318E+02 0.  0.
          5    1    3    3  501    0  0.34364483095E+02 -0.73122664952E+02 -0.42234361286E+02  0.91288953885E+02  0.47000000000E+01 0. -1.
        -11    1    4    4    0    0  0.10912048364E+03 -0.18375100828E+02 -0.15296888118E+03  0.18879725339E+03  0.00000000000E+00 0.  1.
         12    1    4    4    0    0  0.96438213692E+01  0.10959636204E+02 -0.10736994227E+03  0.10835783968E+03  0.00000000000E+00 0. -1.
         -5    1    5    5    0  502 -0.13022072957E+03 -0.25268740130E+00 -0.57724644234E+02  0.14251921559E+03  0.47000000000E+01 0.  1.
         13    1    6    6    0    0 -0.32205638624E+01  0.97760506040E+01  0.19574046751E+02  0.22115300207E+02  0.00000000000E+00 0. -1.
        -14    1    6    6    0    0 -0.19687494671E+02  0.71014766373E+02 -0.78869381774E+02  0.10794014022E+03  0.00000000000E+00 0.  1.
</event>
<event>
12    1  0.8461994E-002  0.1970180E+03  0.7818608E-02  0.1152495E+00
         21   -1    0    0  501  502  0.00000000000E+00  0.00000000000E+00  0.30654989480E+03  0.30654989480E+03  0.00000000000E+00 0. -1.
         21   -1    0    0  502  503 -0.00000000000E+00 -0.00000000000E+00 -0.15976249368E+03  0.15976249368E+03  0.00000000000E+00 0.  1.
         -6    2    1    2    0  503  0.26215177556E+02 -0.90987095247E+02 -0.33671638682E+02  0.19987464718E+03  0.17277212825E+03 0.  0.
        -24    2    3    3    0    0  0.80107409333E+02 -0.72260240352E+02 -0.46227321416E+02  0.14126745557E+03  0.78617996613E+02 0.  0.
          6    2    1    2  501    0 -0.26215177556E+02  0.90987095247E+02  0.18045903980E+03  0.26643774130E+03  0.17163250831E+03 0.  0.
         24    2    5    5    0    0  0.44322365366E+02  0.82257137728E+02  0.12766250223E+03  0.17777364768E+03  0.81086660755E+02 0.  0.
          5    1    5    5  501    0 -0.70537542922E+02  0.87299575187E+01  0.52796537568E+02  0.88664093629E+02  0.47000000000E+01 0. -1.
        -13    1    6    6    0    0  0.18289924837E+02  0.15170267014E+02 -0.72716554632E+01  0.24850258047E+02  0.00000000000E+00 0.  1.
         14    1    6    6    0    0  0.26032440529E+02  0.67086870714E+02  0.13493415770E+03  0.15292338963E+03  0.00000000000E+00 0. -1.
         -5    1    3    3    0  503 -0.53892231777E+02 -0.18726854895E+02  0.12555682733E+02  0.58607191615E+02  0.47000000000E+01 0.  1.
         13    1    4    4    0    0  0.38640816807E+02 -0.86888126735E+01  0.16398453959E+02  0.42866274406E+02  0.00000000000E+00 0. -1.
        -14    1    4    4    0    0  0.41466592526E+02 -0.63571427678E+02 -0.62625775374E+02  0.98401181162E+02  0.00000000000E+00 0.  1.
</event>
<event>
12    1  0.8461994E-002  0.1858219E+03  0.7818608E-02  0.1162441E+00
         21   -1    0    0  503  502  0.00000000000E+00  0.00000000000E+00  0.30874983991E+03  0.30874983991E+03  0.00000000000E+00 0.  1.
         21   -1    0    0  501  503 -0.00000000000E+00 -0.00000000000E+00 -0.24716925047E+03  0.24716925047E+03  0.00000000000E+00 0.  1.
          6    2    1    2  501    0 -0.28665685687E+02 -0.63620833285E+02 -0.17521803644E+03  0.25491518013E+03  0.17149652125E+03 0.  0.
         24    2    3    3    0    0 -0.43734331572E+02  0.21239332615E+02 -0.12630604058E+03  0.15570436829E+03  0.76985929959E+02 0.  0.
         -6    2    1    2    0  502  0.28665685687E+02  0.63620833285E+02  0.23679862588E+03  0.30100391026E+03  0.17222204507E+03 0.  0.
        -24    2    5    5    0    0 -0.20860350960E+01  0.92513602908E+02  0.98931123247E+02  0.15674719898E+03  0.78861898116E+02 0.  0.
          5    1    3    3  501    0  0.15068645885E+02 -0.84860165900E+02 -0.48911995861E+02  0.99210811833E+02  0.47000000000E+01 0. -1.
        -13    1    4    4    0    0 -0.38980359750E+02 -0.21151767297E+02 -0.87222284856E+02  0.97849847632E+02  0.00000000000E+00 0.  1.
         14    1    4    4    0    0 -0.47539718216E+01  0.42391099912E+02 -0.39083755721E+02  0.57854520662E+02  0.00000000000E+00 0. -1.
         -5    1    5    5    0  502  0.30751720783E+02 -0.28892769623E+02  0.13786750263E+03  0.14425671128E+03  0.47000000000E+01 0.  1.
         13    1    6    6    0    0 -0.37584633767E+02  0.69169082722E+02  0.58290046643E+02  0.97952520323E+02  0.00000000000E+00 0. -1.
        -14    1    6    6    0    0  0.35498598671E+02  0.23344520186E+02  0.40641076604E+02  0.58794678653E+02  0.00000000000E+00 0.  1.
</event>
<event>
12    1  0.8461994E-002  0.2255256E+03  0.7818608E-02  0.1129956E+00
         21   -1    0    0  503  502  0.00000000000E+00  0.00000000000E+00  0.36615996894E+03  0.36615996894E+03  0.00000000000E+00 0. -1.
         21   -1    0    0  501  503 -0.00000000000E+00 -0.00000000000E+00 -0.16146735267E+03  0.16146735267E+03  0.00000000000E+00 0.  1.
          6    2    1    2  501    0 -0.14317841463E+03  0.16875699622E+02  0.29312044673E+01  0.22554468102E+03  0.17342711299E+03 0.  0.
         24    2    3    3    0    0 -0.56485886327E+01 -0.15405658922E+02 -0.12328183266E+02  0.83377603032E+02  0.80812125973E+02 0.  0.
         -6    2    1    2    0  502  0.14317841463E+03 -0.16875699622E+02  0.20176141180E+03  0.30208264060E+03  0.17251494661E+03 0.  0.
        -24    2    5    5    0    0  0.51154872517E+02  0.12354472649E+02  0.41968881212E+02  0.11532483459E+03  0.93642813423E+02 0.  0.
          5    1    3    3  501    0 -0.13752982600E+03  0.32281358545E+02  0.15259387733E+02  0.14216707798E+03  0.47000000000E+01 0. -1.
        -13    1    4    4    0    0 -0.20872778527E+02  0.11327791612E+02 -0.36983904035E+02  0.43952257097E+02  0.00000000000E+00 0.  1.
         14    1    4    4    0    0  0.15224189894E+02 -0.26733450534E+02  0.24655720769E+02  0.39425345935E+02  0.00000000000E+00 0. -1.
         -5    1    5    5    0  502  0.92023542115E+02 -0.29230172271E+02  0.15979253059E+03  0.18675780601E+03  0.47000000000E+01 0.  1.
         13    1    6    6    0    0  0.36746105622E+02 -0.29724928628E+02  0.51432838833E+02  0.69851160125E+02  0.00000000000E+00 0. -1.
        -14    1    6    6    0    0  0.14408766895E+02  0.42079401277E+02 -0.94639576210E+01  0.45473674463E+02  0.00000000000E+00 0.  1.
</event>
<event>
12    1  0.8461994E-002  0.1798477E+03  0.7818608E-02  0.1171051E+00
         21   -1    0    0  503  502  0.00000000000E+00  0.00000000000E+00  0.95079128761E+02  0.95079128761E+02  0.00000000000E+00 0.  1.
         21   -1    0    0  501  503 -0.00000000000E+00 -0.00000000000E+00 -0.31751814479E+03  0.31751814479E+03  0.00000000000E+00 0.  1.
          6    2    1    2  501    0  0.21296997768E+02  0.45323394399E+02 -0.10163854552E+03  0.19594557468E+03  0.15986401129E+03 0.  0.
         24    2    3    3    0    0  0.53620412072E+02 -0.10417364612E+02 -0.35573640048E+02  0.10354158633E+03  0.80446915152E+02 0.  0.
         -6    2    1    2    0  502 -0.21296997768E+02 -0.45323394399E+02 -0.12080047051E+03  0.21665169887E+03  0.17273515205E+03 0.  0.
        -24    2    5    5    0    0 -0.49216544563E+02 -0.40701949171E+02 -0.14582546387E+03  0.17858335057E+03  0.80919900286E+02 0.  0.
          5    1    3    3  501    0 -0.32323414304E+02  0.55740759011E+02 -0.66064905471E+02  0.92403988346E+02  0.47000000000E+01 0. -1.
        -13    1    4    4    0    0 -0.38473873267E+01  0.13822119902E+02  0.16803500196E+02  0.22095497430E+02  0.00000000000E+00 0.  1.
         14    1    4    4    0    0  0.57467799399E+02 -0.24239484514E+02 -0.52377140243E+02  0.81446088902E+02  0.00000000000E+00 0. -1.
         -5    1    5    5    0  502  0.27919546795E+02 -0.46214452284E+01  0.25024993365E+02  0.38068348299E+02  0.47000000000E+01 0.  1.
         13    1    6    6    0    0 -0.19882228019E+02  0.14702138855E+02 -0.61451461110E+01  0.25479770380E+02  0.00000000000E+00 0. -1.
        -14    1    6    6    0    0 -0.29334316544E+02 -0.55404088026E+02 -0.13968031776E+03  0.15310358019E+03  0.00000000000E+00 0.  1.
</event>
<event>
12    1  0.8461994E-002  0.1952658E+03  0.7818608E-02  0.1153972E+00
         21   -1    0    0  503  502  0.00000000000E+00  0.00000000000E+00  0.86637494079E+03  0.86637494079E+03  0.00000000000E+00 0.  1.
         21   -1    0    0  501  503 -0.00000000000E+00 -0.00000000000E+00 -0.44480202562E+02  0.44480202562E+02  0.00000000000E+00 0. -1.
          6    2    1    2  501    0 -0.93682952125E+02 -0.98637464617E+01  0.35494907543E+03  0.40472573624E+03  0.17011844817E+03 0.  0.
         24    2    3    3    0    0 -0.57791371348E+02  0.13754783831E+02  0.82870101259E+02  0.12923508534E+03  0.79405396038E+02 0.  0.
         -6    2    1    2    0  502  0.93682952125E+02  0.98637464617E+01  0.46694566280E+03  0.50612940712E+03  0.17104074289E+03 0.  0.
        -24    2    5    5    0    0  0.15468808778E+02 -0.46339925773E+01  0.93346087535E+02  0.12412630596E+03  0.80206544877E+02 0.  0.
          5    1    3    3  501    0 -0.35891580777E+02 -0.23618530292E+02  0.27207897417E+03  0.27549065090E+03  0.47000000000E+01 0. -1.
        -13    1    4    4    0    0 -0.18155557016E+02 -0.94547093791E+01  0.80696690727E+02  0.83252457467E+02  0.00000000000E+00 0.  1.
         14    1    4    4    0    0 -0.39635814332E+02  0.23209493210E+02  0.21734105319E+01  0.45982627874E+02  0.00000000000E+00 0. -1.
         -5    1    5    5    0  502  0.78214143347E+02  0.14497739039E+02  0.37359957526E+03  0.38200310116E+03  0.47000000000E+01 0.  1.
         13    1    6    6    0    0  0.32824933813E+02 -0.23333370520E+02  0.89736626739E+02  0.98359466439E+02  0.00000000000E+00 0. -1.
        -14    1    6    6    0    0 -0.17356125035E+02  0.18699377943E+02  0.36094607954E+01  0.25766839521E+02  0.00000000000E+00 0.  1.
</event>
<event>
12    1  0.8461994E-002  0.1893291E+03  0.7818608E-02  0.1159609E+00
         21   -1    0    0  501  502  0.00000000000E+00  0.00000000000E+00  0.20978460610E+02  0.20978460610E+02  0.00000000000E+00 0. -1.
         21   -1    0    0  502  503 -0.00000000000E+00 -0.00000000000E+00 -0.20038620358E+04  0.20038620358E+04  0.00000000000E+00 0. -1.
         -6    2    1    2    0  503 -0.50784569836E+02  0.53658981015E+02 -0.13885431058E+04  0.14010728397E+04  0.17174046338E+03 0.  0.
        -24    2    3    3    0    0  0.24560710619E+02 -0.74129520770E+01 -0.81537239709E+03  0.81973520665E+03  0.80470384147E+02 0.  0.
          6    2    1    2  501    0  0.50784569836E+02 -0.53658981015E+02 -0.59434046937E+03  0.62376765667E+03  0.17431906723E+03 0.  0.
         24    2    5    5    0    0  0.20561948792E+02  0.40465409379E+02 -0.34471940196E+03  0.35524284407E+03  0.72840710299E+02 0.  0.
          5    1    5    5  501    0  0.30222621044E+02 -0.94124390394E+02 -0.24962106741E+03  0.26852481260E+03  0.47000000000E+01 0. -1.
        -11    1    6    6    0    0  0.66935067699E+01  0.50022740606E+02 -0.32670921483E+03  0.33058431401E+03  0.00000000000E+00 0.  1.
         12    1    6    6    0    0  0.13868442022E+02 -0.95573312267E+01 -0.18010187131E+02  0.24658530061E+02  0.00000000000E+00 0. -1.
         -5    1    3    3    0  503 -0.75345280455E+02  0.61071933092E+02 -0.57317070872E+03  0.58133763308E+03  0.47000000000E+01 0.  1.
         13    1    4    4    0    0 -0.49620629188E+01 -0.26500121145E+01 -0.71453092283E+03  0.71455306612E+03  0.00000000000E+00 0. -1.
        -14    1    4    4    0    0  0.29522773538E+02 -0.47629399624E+01 -0.10084147427E+03  0.10518214053E+03  0.00000000000E+00 0.  1.
</event>
<event>
12    1  0.8461994E-002  0.1864204E+03  0.7818608E-02  0.1162270E+00
         21   -1    0    0  503  502  0.00000000000E+00  0.00000000000E+00  0.73901480394E+02  0.73901480394E+02  0.00000000000E+00 0.  1.
         21   -1    0    0  501  503 -0.00000000000E+00 -0.00000000000E+00 -0.46466402845E+03  0.46466402845E+03  0.00000000000E+00 0.  1.
          6    2    1    2  501    0 -0.66071749638E+02  0.11972132832E+02 -0.20281417086E+03  0.27547440936E+03  0.17390731510E+03 0.  0.
         24    2    3    3    0    0 -0.46747981113E+02  0.50159635199E+02 -0.47970334098E+02  0.11475603098E+03  0.78526625743E+02 0.  0.
         -6    2    1    2    0  502  0.66071749638E+02 -0.11972132832E+02 -0.18794837719E+03  0.26309109948E+03  0.17141623631E+03 0.  0.
        -24    2    5    5    0    0 -0.86798281820E+01 -0.52987355482E+02 -0.73969639137E+02  0.12067168506E+03  0.78785460604E+02 0.  0.
          5    1    3    3  501    0 -0.19323768525E+02 -0.38187502368E+02 -0.15484383676E+03  0.16071837838E+03  0.47000000000E+01 0. -1.
        -11    1    4    4    0    0 -0.63364787329E+02  0.31900983825E+02 -0.13274616501E+02  0.72173294822E+02  0.00000000000E+00 0.  1.
         12    1    4    4    0    0  0.16616806216E+02  0.18258651374E+02 -0.34695717597E+02  0.42582736155E+02  0.00000000000E+00 0. -1.
         -5    1    5    5    0  502  0.74751577820E+02  0.41015222651E+02 -0.11397873806E+03  0.14241941442E+03  0.47000000000E+01 0.  1.
         11    1    6    6    0    0 -0.33828718218E+02  0.93817389169E-01 -0.13652066536E+02  0.36479719005E+02  0.00000000000E+00 0. -1.
        -12    1    6    6    0    0  0.25148890036E+02 -0.53081172872E+02 -0.60317572602E+02  0.84191966054E+02  0.00000000000E+00 0.  1.
</event>
<event>
12    1  0.8461994E-002  0.2355054E+03  0.7818608E-02  0.1122950E+00
         21   -1    0    0  501  502  0.00000000000E+00  0.00000000000E+00  0.17649627598E+03  0.17649627598E+03  0.00000000000E+00 0. -1.
         21   -1    0    0  502  503 -0.00000000000E+00 -0.00000000000E+00 -0.41279370501E+03  0.41279370501E+03  0.00000000000E+00 0.  1.
         -6    2    1    2    0  503 -0.58902572680E+02  0.14951554154E+03 -0.26269336873E+03  0.35230989811E+03  0.17114335542E+03 0.  0.
        -24    2    3    3    0    0  0.88208402238E+01  0.10187755504E+03 -0.81488680602E+02  0.15302852063E+03  0.79501444118E+02 0.  0.
          6    2    1    2  501    0  0.58902572680E+02 -0.14951554154E+03  0.26395939697E+02  0.23698008287E+03  0.17215807798E+03 0.  0.
         24    2    5    5    0    0  0.39470862240E+02 -0.17060029961E+03 -0.67274307241E+01  0.19291869318E+03  0.80684277672E+02 0.  0.
          5    1    5    5  501    0  0.19431710439E+02  0.21084758066E+02  0.33123370422E+02  0.44061389690E+02  0.47000000000E+01 0. -1.
        -13    1    6    6    0    0  0.60064458448E+02 -0.13966971765E+03  0.95797041963E+01  0.15233889828E+03  0.00000000000E+00 0.  1.
         14    1    6    6    0    0 -0.20593596208E+02 -0.30930581956E+02 -0.16307134920E+02  0.40579794901E+02  0.00000000000E+00 0. -1.
         -5    1    3    3    0  503 -0.67723412904E+02  0.47637986503E+02 -0.18120468812E+03  0.19928137748E+03  0.47000000000E+01 0.  1.
         11    1    4    4    0    0 -0.18727248765E+02  0.78506223463E+02 -0.22380618386E+02  0.83754576281E+02  0.00000000000E+00 0. -1.
        -12    1    4    4    0    0  0.27548088989E+02  0.23371331574E+02 -0.59108062215E+02  0.69273944347E+02  0.00000000000E+00 0.  1.
</event>
<event>
12    1  0.8461994E-002  0.1933390E+03  0.7818608E-02  0.1155577E+00
         21   -1    0    0  503  502  0.00000000000E+00  0.00000000000E+00  0.26383935966E+03  0.26383935966E+03  0.00000000000E+00 0. -1.
         21   -1    0    0  501  503 -0.00000000000E+00 -0.00000000000E+00 -0.17309812572E+03  0.17309812572E+03  0.00000000000E+00 0. -1.
          6    2    1    2  501    0  0.58279727896E+02 -0.69515717725E+02 -0.48207815048E+02  0.19884753141E+03  0.17025682254E+03 0.  0.
         24    2    3    3    0    0 -0.25637916362E+02 -0.77931303988E+01 -0.16222404802E+01  0.84636522477E+02  0.80266267112E+02 0.  0.
         -6    2    1    2    0  502 -0.58279727896E+02  0.69515717725E+02  0.13894904899E+03  0.23808995396E+03  0.17073671623E+03 0.  0.
        -24    2    5    5    0    0 -0.12284182177E+02  0.79228696804E+02  0.27301377573E+02  0.11685784303E+03  0.80512748881E+02 0.  0.
          5    1    3    3  501    0  0.83917644258E+02 -0.61722587326E+02 -0.46585574568E+02  0.11421100893E+03  0.47000000000E+01 0. -1.
        -13    1    4    4    0    0 -0.44627574712E+02 -0.80965787831E+01  0.25111281925E+02  0.51843528936E+02  0.00000000000E+00 0.  1.
         14    1    4    4    0    0  0.18989658350E+02  0.30344838430E+00 -0.26733522405E+02  0.32792993541E+02  0.00000000000E+00 0. -1.
         -5    1    5    5    0  502 -0.45995545719E+02 -0.97129790789E+01  0.11164767141E+03  0.12123211093E+03  0.47000000000E+01 0.  1.
         11    1    6    6    0    0 -0.27467453670E+02  0.54160998048E+02  0.50893979740E+02  0.79234284842E+02  0.00000000000E+00 0. -1.
        -12    1    6    6    0    0  0.15183271493E+02  0.25067698756E+02 -0.23592602166E+02  0.37623558193E+02  0.00000000000E+00 0.  1.
</event>
<event>
12    1  0.8461994E-002  0.2313721E+03  0.7818608E-02  0.1126016E+00
         21   -1    0    0  501  502  0.00000000000E+00  0.00000000000E+00  0.21745128333E+03  0.21745128333E+03  0.00000000000E+00 0.  1.
         21   -1    0    0  502  503 -0.00000000000E+00 -0.00000000000E+00 -0.62131108272E+03  0.62131108272E+03  0.00000000000E+00 0.  1.
         -6    2    1    2    0  503  0.11049732541E+03 -0.10410018580E+03 -0.52901731938E+03  0.57740138667E+03  0.17460392182E+03 0.  0.
        -24    2    3    3    0    0  0.13952429871E+03 -0.89895572267E+02 -0.35089193626E+03  0.39630727208E+03  0.79912822056E+02 0.  0.
          6    2    1    2  501    0 -0.11049732541E+03  0.10410018580E+03  0.12515751999E+03  0.26136097939E+03  0.17204257941E+03 0.  0.
         24    2    5    5    0    0 -0.36942589648E+02  0.72259401871E+02  0.13869895670E+03  0.17993865332E+03  0.80958892551E+02 0.  0.
          5    1    5    5  501    0 -0.73554735757E+02  0.31840783931E+02 -0.13541436704E+02  0.81422326064E+02  0.47000000000E+01 0. -1.
        -11    1    6    6    0    0 -0.92473382169E+01  0.84024806185E+02  0.10328795176E+03  0.13346940585E+03  0.00000000000E+00 0.  1.
         12    1    6    6    0    0 -0.27695251432E+02 -0.11765404314E+02  0.35411004935E+02  0.46469247476E+02  0.00000000000E+00 0. -1.
         -5    1    3    3    0  503 -0.29026973308E+02 -0.14204613535E+02 -0.17812538312E+03  0.18109411458E+03  0.47000000000E+01 0.  1.
         13    1    4    4    0    0 -0.62356264277E+01 -0.19896466346E+01 -0.26871541861E+00  0.65508731214E+01  0.00000000000E+00 0. -1.
        -14    1    4    4    0    0  0.14575992514E+03 -0.87905925632E+02 -0.35062322084E+03  0.38975639896E+03  0.00000000000E+00 0.  1.
</event>
<event>
12    1  0.8461994E-002  0.1778592E+03  0.7818608E-02  0.1170008E+00
         21   -1    0    0  503  502  0.00000000000E+00  0.00000000000E+00  0.13068618508E+03  0.13068618508E+03  0.00000000000E+00 0. -1.
         21   -1    0    0  501  503 -0.00000000000E+00 -0.00000000000E+00 -0.35494154251E+03  0.35494154251E+03  0.00000000000E+00 0. -1.
          6    2    1    2  501    0  0.39390660009E+02  0.20167380296E+02 -0.24935005595E+03  0.30600693070E+03  0.17177439829E+03 0.  0.
         24    2    3    3    0    0  0.52959092748E+01 -0.27084087477E+02 -0.51033417360E+02  0.99254101510E+02  0.80531810669E+02 0.  0.
         -6    2    1    2    0  502 -0.39390660009E+02 -0.20167380296E+02  0.25094698515E+02  0.17962079689E+03  0.17226589755E+03 0.  0.
        -24    2    5    5    0    0 -0.30973339264E+02 -0.10232748667E+02  0.83966047305E+02  0.11914374420E+03  0.77979983274E+02 0.  0.
          5    1    3    3  501    0  0.34094750734E+02  0.47251467773E+02 -0.19831663859E+03  0.20675282919E+03  0.47000000000E+01 0. -1.
        -13    1    4    4    0    0  0.30853574551E+02 -0.19921145847E+01  0.63950504483E+01  0.31572270323E+02  0.00000000000E+00 0.  1.
         14    1    4    4    0    0 -0.25557665276E+02 -0.25091972893E+02 -0.57428467809E+02  0.67681831187E+02  0.00000000000E+00 0. -1.
         -5    1    5    5    0  502 -0.84173207448E+01 -0.99346316294E+01 -0.58871348791E+02  0.60477052694E+02  0.47000000000E+01 0.  1.
         13    1    6    6    0    0 -0.19061254178E+02  0.31086663370E+02  0.59172069378E+02  0.69505725266E+02  0.00000000000E+00 0. -1.
        -14    1    6    6    0    0 -0.11912085086E+02 -0.41319412037E+02  0.24793977928E+02  0.49638018934E+02  0.00000000000E+00 0.  1.
</event>
<event>
12    1  0.8461994E-002  0.3073722E+03  0.7818608E-02  0.1081632E+00
         21   -1    0    0  503  502  0.00000000000E+00  0.00000000000E+00  0.21535030385E+03  0.21535030385E+03  0.00000000000E+00 0. -1.
         21   -1    0    0  501  503 -0.00000000000E+00 -0.00000000000E+00 -0.44961094739E+03  0.44961094739E+03  0.00000000000E+00 0.  1.
          6    2    1    2  501    0 -0.22182903946E+03  0.12510968868E+03 -0.16941352860E+03  0.35082307657E+03  0.17180026319E+03 0.  0.
         24    2    3    3    0    0 -0.15403730496E+03  0.35041573193E+02 -0.45417560576E+02  0.18317739431E+03  0.80844293595E+02 0.  0.
         -6    2    1    2    0  502  0.22182903946E+03 -0.12510968868E+03 -0.64847114940E+02  0.31413817467E+03  0.17209615777E+03 0.  0.
        -24    2    5    5    0    0  0.22754537783E+03 -0.13540343633E+03 -0.86043418173E+02  0.28943977319E+03  0.79125994158E+02 0.  0.
          5    1    3    3  501    0 -0.67791734502E+02  0.90068115487E+02 -0.12399596803E+03  0.16764568226E+03  0.47000000000E+01 0. -1.
        -13    1    4    4    0    0 -0.10013528661E+03 -0.70830287880E+01  0.12021702406E+01  0.10039267969E+03  0.00000000000E+00 0.  1.
         14    1    4    4    0    0 -0.53902018351E+02  0.42124601981E+02 -0.46619730816E+02  0.82784714626E+02  0.00000000000E+00 0. -1.
         -5    1    5    5    0  502 -0.57163383663E+01  0.10293747650E+02  0.21196303233E+02  0.24698401482E+02  0.47000000000E+01 0.  1.
         11    1    6    6    0    0  0.12304150602E+03 -0.63974134728E+02 -0.42773783304E+01  0.13874508310E+03  0.00000000000E+00 0. -1.
        -12    1    6    6    0    0  0.10450387180E+03 -0.71429301602E+02 -0.81766039843E+02  0.15069469009E+03  0.00000000000E+00 0.  1.
</event>
<event>
12    1  0.8461994E-002  0.1722389E+03  0.7818608E-02  0.1175615E+00
         21   -1    0    0  503  502  0.00000000000E+00  0.00000000000E+00  0.30712492071E+02  0.30712492071E+02  0.00000000000E+00 0. -1.
         21   -1    0    0  501  503 -0.00000000000E+00 -0.00000000000E+00 -0.10871242526E+04  0.10871242526E+04  0.00000000000E+00 0. -1.
          6    2    1    2  501    0 -0.12045795491E+02  0.78281085276E+01 -0.71576407369E+03  0.73612074974E+03  0.17131599029E+03 0.  0.
         24    2    3    3    0    0  0.47024914430E+02  0.30787153634E+02 -0.31147970379E+03  0.32687215992E+03  0.81649321172E+02 0.  0.
         -6    2    1    2    0  502  0.12045795491E+02 -0.78281085276E+01 -0.34064768682E+03  0.38171599492E+03  0.17163878865E+03 0.  0.
        -24    2    5    5    0    0  0.48409297113E+02  0.37854610289E+02 -0.27899009589E+03  0.29666916330E+03  0.80004295406E+02 0.  0.
          5    1    3    3  501    0 -0.59070709921E+02 -0.22959045106E+02 -0.40428436990E+03  0.40924858982E+03  0.47000000000E+01 0. -1.
        -11    1    4    4    0    0 -0.10266823249E+02  0.31075711405E+02 -0.54401781787E+02  0.63487489796E+02  0.00000000000E+00 0.  1.
         12    1    4    4    0    0  0.57291737679E+02 -0.28855777100E+00 -0.25707792201E+03  0.26338467012E+03  0.00000000000E+00 0. -1.
         -5    1    5    5    0  502 -0.36363501621E+02 -0.45682718817E+02 -0.61657590931E+02  0.85046831617E+02  0.47000000000E+01 0.  1.
         13    1    6    6    0    0 -0.19301756730E+02  0.18213453947E+02 -0.44528826540E+02  0.51837284946E+02  0.00000000000E+00 0. -1.
        -14    1    6    6    0    0  0.67711053843E+02  0.19641156343E+02 -0.23446126935E+03  0.24483187836E+03  0.00000000000E+00 0.  1.
</event>
<event>
12    1  0.8461994E-002  0.2080346E+03  0.7818608E-02  0.1143140E+00
         21   -1    0    0  503  502  0.00000000000E+00  0.00000000000E+00  0.13384928204E+04  0.13384928204E+04  0.00000000000E+00 0. -1.
         21   -1    0    0  501  503 -0.00000000000E+00 -0.00000000000E+00 -0.37910563482E+02  0.37910563482E+02  0.00000000000E+00 0.  1.
          6    2    1    2  501    0 -0.10361287416E+03 -0.53689306500E+02  0.38623998421E+03  0.43870229029E+03  0.17222138305E+03 0.  0.
         24    2    3    3    0    0 -0.48990951777E+01 -0.30200731741E+01  0.88456029720E+02  0.12088291562E+03  0.82189343097E+02 0.  0.
         -6    2    1    2    0  502  0.10361287416E+03  0.53689306500E+02  0.91434227268E+03  0.93770109356E+03  0.17217252955E+03 0.  0.
        -24    2    5    5    0    0  0.88900914573E+02  0.61409269992E+02  0.38408491539E+03  0.40716269292E+03  0.81152727775E+02 0.  0.
          5    1    3    3  501    0 -0.98713778984E+02 -0.50669233326E+02  0.29778395449E+03  0.31781937468E+03  0.47000000000E+01 0. -1.
        -11    1    4    4    0    0  0.22931348736E+02 -0.29647641733E+02  0.20373962700E+02  0.42660611474E+02  0.00000000000E+00 0.  1.
         12    1    4    4    0    0 -0.27830443914E+02  0.26627568559E+02  0.68082067020E+02  0.78222304144E+02  0.00000000000E+00 0. -1.
         -5    1    5    5    0  502  0.14711959589E+02 -0.77199634923E+01  0.53025735729E+03  0.53053840064E+03  0.47000000000E+01 0.  1.
         11    1    6    6    0    0  0.98150074944E+01 -0.17666385714E+02  0.96579657509E+02  0.98671504502E+02  0.00000000000E+00 0. -1.
        -12    1    6    6    0    0  0.79085907079E+02  0.79075655706E+02  0.28750525788E+03  0.30849118842E+03  0.00000000000E+00 0.  1.
</event>
<event>
12    1  0.8461994E-002  0.1985544E+03  0.7818608E-02  0.1152483E+00
         21   -1    0    0  501  502  0.00000000000E+00  0.00000000000E+00  0.52830236102E+03  0.52830236102E+03  0.00000000000E+00 0. -1.
         21   -1    0    0  502  503 -0.00000000000E+00 -0.00000000000E+00 -0.12645537359E+03  0.12645537359E+03  0.00000000000E+00 0. -1.
         -6    2    1    2    0  503 -0.18115338240E+02 -0.82451274270E+02 -0.15909974904E+02  0.19221613703E+03  0.17195213847E+03 0.  0.
        -24    2    3    3    0    0 -0.41808207697E+02  0.67860986250E+00 -0.43983272120E+02  0.10120993001E+03  0.80997129355E+02 0.  0.
          6    2    1    2  501    0  0.18115338240E+02  0.82451274270E+02  0.41775696233E+03  0.46254159759E+03  0.17971497383E+03 0.  0.
         24    2    5    5    0    0  0.65148976121E+01  0.14402341806E+01  0.84540348301E+02  0.11939037625E+03  0.84038522630E+02 0.  0.
          5    1    5    5  501    0  0.11600440628E+02  0.81011040089E+02  0.33321661402E+03  0.34315122133E+03  0.47000000000E+01 0. -1.
        -11    1    6    6    0    0 -0.24527623188E+02  0.31321432119E+02  0.29689006201E+02  0.49639434913E+02  0.00000000000E+00 0.  1.
         12    1    6    6    0    0  0.31042520800E+02 -0.29881197938E+02  0.54851342100E+02  0.69750941342E+02  0.00000000000E+00 0. -1.
         -5    1    3    3    0  503  0.23692869457E+02 -0.83129884132E+02  0.28073297216E+02  0.91006207017E+02  0.47000000000E+01 0.  1.
         11    1    4    4    0    0  0.76847257171E+01 -0.31124891597E+02 -0.11876990178E+02  0.34188840021E+02  0.00000000000E+00 0. -1.
        -12    1    4    4    0    0 -0.49492933414E+02  0.31803501459E+02 -0.32106281942E+02  0.67021089988E+02  0.00000000000E+00 0.  1.
</event>
<event>
12    1  0.8461994E-002  0.3508728E+03  0.7818608E-02  0.1062298E+00
         21   -1    0    0  501  502  0.00000000000E+00  0.00000000000E+00  0.16313552742E+04  0.16313552742E+04  0.00000000000E+00 0. -1.
         21   -1    0    0  502  503 -0.00000000000E+00 -0.00000000000E+00 -0.84478611925E+02  0.84478611925E+02  0.00000000000E+00 0. -1.
         -6    2    1    2    0  503 -0.25560730146E+03 -0.16746272110E+03  0.49228856772E+03  0.60453268492E+03  0.17243224092E+03 0.  0.
        -24    2    3    3    0    0 -0.12049491677E+03 -0.48549556930E+02  0.13125484081E+03  0.20109354567E+03  0.79590806186E+02 0.  0.
          6    2    1    2  501    0  0.25560730146E+03  0.16746272110E+03  0.10545880946E+04  0.11113012012E+04  0.17162591621E+03 0.  0.
         24    2    5    5    0    0  0.10571542540E+03  0.12712715122E+03  0.71167102833E+03  0.73485899181E+03  0.78771959114E+02 0.  0.
          5    1    5    5  501    0  0.14989187606E+03  0.40335569877E+02  0.34291706625E+03  0.37644220942E+03  0.47000000000E+01 0. -1.
        -13    1    6    6    0    0  0.81705560520E+02  0.36681413854E+02  0.35069137041E+03  0.36194718126E+03  0.00000000000E+00 0.  1.
         14    1    6    6    0    0  0.24009864878E+02  0.90445737367E+02  0.36097965792E+03  0.37291181055E+03  0.00000000000E+00 0. -1.
         -5    1    3    3    0  503 -0.13511238469E+03 -0.11891316417E+03  0.36103372691E+03  0.40343913925E+03  0.47000000000E+01 0.  1.
         11    1    4    4    0    0 -0.46605839293E+02 -0.61604050138E+02  0.63533344149E+02  0.10001824368E+03  0.00000000000E+00 0. -1.
        -12    1    4    4    0    0 -0.73889077478E+02  0.13054493207E+02  0.67721496659E+02  0.10107530199E+03  0.00000000000E+00 0.  1.
</event>
<event>
12    1  0.8461994E-002  0.1795346E+03  0.7818608E-02  0.1168651E+00
         21   -1    0    0  503  502  0.00000000000E+00  0.00000000000E+00  0.23981666029E+03  0.23981666029E+03  0.00000000000E+00 0.  1.
         21   -1    0    0  501  503 -0.00000000000E+00 -0.00000000000E+00 -0.31166850784E+03  0.31166850784E+03  0.00000000000E+00 0.  1.
          6    2    1    2  501    0 -0.46521451807E+02 -0.21023993281E+02 -0.24465979718E+03  0.30346516227E+03  0.17212331214E+03 0.  0.
         24    2    3    3    0    0 -0.62838464951E+02 -0.72145176663E+02 -0.18592166781E+03  0.22376649133E+03  0.79693016543E+02 0.  0.
         -6    2    1    2    0  502  0.46521451807E+02  0.21023993281E+02  0.17280794963E+03  0.24802000585E+03  0.17042617779E+03 0.  0.
        -24    2    5    5    0    0 -0.16652575280E+02 -0.84088363524E+01  0.15668760343E+03  0.17633175912E+03  0.78701127130E+02 0.  0.
          5    1    3    3  501    0  0.16317013144E+02  0.51121183382E+02 -0.58738129369E+02  0.79698670943E+02  0.47000000000E+01 0. -1.
        -13    1    4    4    0    0 -0.37990794790E+02  0.45676832304E+01 -0.93994023999E+02  0.10148418974E+03  0.00000000000E+00 0.  1.
         14    1    4    4    0    0 -0.24847670161E+02 -0.76712859893E+02 -0.91927643813E+02  0.12228230159E+03  0.00000000000E+00 0. -1.
         -5    1    5    5    0  502  0.63174027088E+02  0.29432829633E+02  0.16120346203E+02  0.71688246738E+02  0.47000000000E+01 0.  1.
         13    1    6    6    0    0 -0.65418528414E+01 -0.20044566434E+02  0.23379721462E+01  0.21214301682E+02  0.00000000000E+00 0. -1.
        -14    1    6    6    0    0 -0.10110722439E+02  0.11635730081E+02  0.15434963129E+03  0.15511745743E+03  0.00000000000E+00 0.  1.
</event>
<event>
12    1  0.8461994E-002  0.1788466E+03  0.7818608E-02  0.1169358E+00
         21   -1    0    0  501  502  0.00000000000E+00  0.00000000000E+00  0.75845191167E+03  0.75845191167E+03  0.00000000000E+00 0. -1.
         21   -1    0    0  502  503 -0.00000000000E+00 -0.00000000000E+00 -0.57338633563E+02  0.57338633563E+02  0.00000000000E+00 0. -1.
         -6    2    1    2    0  503 -0.38022807996E+02 -0.27389283824E+02  0.13919212681E+03  0.22662869842E+03  0.17259841247E+03 0.  0.
        -24    2    3    3    0    0 -0.77183143245E+02 -0.57833318707E+02  0.80589424287E+02  0.14970836393E+03  0.81338850302E+02 0.  0.
          6    2    1    2  501    0  0.38022807996E+02  0.27389283824E+02  0.56192115130E+03  0.58916184681E+03  0.17076414923E+03 0.  0.
         24    2    5    5    0    0  0.47783402237E+02 -0.45262952865E+02  0.31810084082E+03  0.33451689693E+03  0.79883796670E+02 0.  0.
          5    1    5    5  501    0 -0.97605942404E+01  0.72652236689E+02  0.24382031048E+03  0.25464494988E+03  0.47000000000E+01 0. -1.
        -13    1    6    6    0    0  0.37479197524E+01  0.13118169674E+02  0.77989677196E+01  0.15714871159E+02  0.00000000000E+00 0.  1.
         14    1    6    6    0    0  0.44035482484E+02 -0.58381122539E+02  0.31030187310E+03  0.31880202577E+03  0.00000000000E+00 0. -1.
         -5    1    3    3    0  503  0.39160335248E+02  0.30444034883E+02  0.58602702520E+02  0.76920334499E+02  0.47000000000E+01 0.  1.
         11    1    4    4    0    0 -0.72982367505E+02 -0.50943993668E+01  0.43811234188E+02  0.85274868002E+02  0.00000000000E+00 0. -1.
        -12    1    4    4    0    0 -0.42007757393E+01 -0.52738919340E+02  0.36778190099E+02  0.64433495924E+02  0.00000000000E+00 0.  1.
</event>
<event>
12    1  0.8461994E-002  0.1961198E+03  0.7818608E-02  0.1153385E+00
         21   -1    0    0  501  502  0.00000000000E+00  0.00000000000E+00  0.15635374623E+03  0.15635374623E+03  0.00000000000E+00 0.  1.
         21   -1    0    0  502  503 -0.00000000000E+00 -0.00000000000E+00 -0.42397008703E+03  0.42397008703E+03  0.00000000000E+00 0.  1.
         -6    2    1    2    0  503  0.80462954916E+02 -0.42507429903E+02 -0.32310319662E+03  0.37796649279E+03  0.17372917226E+03 0.  0.
        -24    2    3    3    0    0  0.79325929189E+02 -0.23201317787E+02 -0.97568418654E+02  0.15155526324E+03  0.81354147461E+02 0.  0.
          6    2    1    2  501    0 -0.80462954916E+02  0.42507429903E+02  0.55486855824E+02  0.20235734047E+03  0.17201317787E+03 0.  0.
         24    2    5    5    0    0 -0.12260514162E+03  0.34241156225E+02  0.33840549454E+02  0.15403604330E+03  0.79858890033E+02 0.  0.
          5    1    5    5  501    0  0.42142186703E+02  0.82662736781E+01  0.21646306370E+02  0.48321297169E+02  0.47000000000E+01 0. -1.
        -11    1    6    6    0    0 -0.91748121370E+02  0.53792916056E+02  0.45516597336E+02  0.11568559213E+03  0.00000000000E+00 0.  1.
         12    1    6    6    0    0 -0.30857020249E+02 -0.19551759830E+02 -0.11676047881E+02  0.38350451174E+02  0.00000000000E+00 0. -1.
         -5    1    3    3    0  503  0.11370257271E+01 -0.19306112116E+02 -0.22553477796E+03  0.22641122954E+03  0.47000000000E+01 0.  1.
         11    1    4    4    0    0  0.24167089532E+02  0.26100755810E+02 -0.56979969290E+02  0.67171530953E+02  0.00000000000E+00 0. -1.
        -12    1    4    4    0    0  0.55158839657E+02 -0.49302073597E+02 -0.40588449364E+02  0.84383732289E+02  0.00000000000E+00 0.  1.
</event>
<event>
12    1  0.8461994E-002  0.1909136E+03  0.7818608E-02  0.1157704E+00
         21   -1    0    0  503  502  0.00000000000E+00  0.00000000000E+00  0.13451937503E+03  0.13451937503E+03  0.00000000000E+00 0.  1.
         21   -1    0    0  501  503 -0.00000000000E+00 -0.00000000000E+00 -0.49224638966E+03  0.49224638966E+03  0.00000000000E+00 0.  1.
          6    2    1    2  501    0  0.76861743241E+02 -0.29519256489E+02 -0.38910497521E+03  0.43329070780E+03  0.17192743136E+03 0.  0.
         24    2    3    3    0    0  0.62356089986E+02 -0.85038054694E+02 -0.26330620081E+03  0.29494269527E+03  0.80878213398E+02 0.  0.
         -6    2    1    2    0  502 -0.76861743241E+02  0.29519256489E+02  0.31377960578E+02  0.19347505689E+03  0.17224664627E+03 0.  0.
        -24    2    5    5    0    0  0.25355110980E+02  0.17057639416E+01 -0.23587361092E+01  0.82200035624E+02  0.78137640975E+02 0.  0.
          5    1    3    3  501    0  0.14505653255E+02  0.55518798205E+02 -0.12579877440E+03  0.13834801253E+03  0.47000000000E+01 0. -1.
        -11    1    4    4    0    0  0.33995424038E+02  0.81450282244E+01 -0.58381974525E+02  0.68047669245E+02  0.00000000000E+00 0.  1.
         12    1    4    4    0    0  0.28360665948E+02 -0.93183082918E+02 -0.20492422629E+03  0.22689502603E+03  0.00000000000E+00 0. -1.
         -5    1    5    5    0  502 -0.10221685422E+03  0.27813492547E+02  0.33736696687E+02  0.11127502127E+03  0.47000000000E+01 0.  1.
         13    1    6    6    0    0  0.43414671539E+02  0.22609121804E+02  0.12928972181E+02  0.50627704030E+02  0.00000000000E+00 0. -1.
        -14    1    6    6    0    0 -0.18059560559E+02 -0.20903357863E+02 -0.15287708290E+02  0.31572331594E+02  0.00000000000E+00 0.  1.
</event>
<event>
12    1  0.8461994E-002  0.1833870E+03  0.7818608E-02  0.1164877E+00
         21   -1    0    0  501  502  0.00000000000E+00  0.00000000000E+00  0.16939872932E+03  0.16939872932E+03  0.00000000000E+00 0.  1.
         21   -1    0    0  502  503 -0.00000000000E+00 -0.00000000000E+00 -0.20468073548E+03  0.20468073548E+03  0.00000000000E+00 0.  1.
         -6    2    1    2    0  503  0.13117118813E+02 -0.58683826536E+02  0.18394730928E+02  0.18299838891E+03  0.17185515388E+03 0.  0.
        -24    2    3    3    0    0  0.56447324931E+02 -0.69625664178E+02  0.47751251037E+02  0.12932226902E+03  0.80062685970E+02 0.  0.
          6    2    1    2  501    0 -0.13117118813E+02  0.58683826536E+02 -0.53676737084E+02  0.19108107590E+03  0.17324818948E+03 0.  0.
         24    2    5    5    0    0 -0.12810090622E+02  0.64355689847E+02  0.27839849428E+02  0.10923177427E+03  0.82769378742E+02 0.  0.
          5    1    5    5  501    0 -0.30702819118E+00 -0.56718633107E+01 -0.81516586512E+02  0.81849301624E+02  0.47000000000E+01 0. -1.
        -11    1    6    6    0    0 -0.25764744460E+01  0.56243478826E+02 -0.19917145173E+02  0.59721518759E+02  0.00000000000E+00 0.  1.
         12    1    6    6    0    0 -0.10233616176E+02  0.81122110204E+01  0.47756994602E+02  0.49510255514E+02  0.00000000000E+00 0. -1.
         -5    1    3    3    0  503 -0.43330206118E+02  0.10941837642E+02 -0.29356520109E+02  0.53676119887E+02  0.47000000000E+01 0.  1.
         13    1    4    4    0    0  0.26012305761E+02 -0.41744626143E+02  0.67537335494E+02  0.83549659175E+02  0.00000000000E+00 0. -1.
        -14    1    4    4    0    0  0.30435019170E+02 -0.27881038036E+02 -0.19786084456E+02  0.45772609844E+02  0.00000000000E+00 0.  1.
</event>
<event>
12    1  0.8461994E-002  0.2309908E+03  0.7818608E-02  0.1125979E+00
         21   -1    0    0  503  502  0.00000000000E+00  0.00000000000E+00  0.88647047816E+03  0.88647047816E+03  0.00000000000E+00 0.  1.
         21   -1    0    0  501  503 -0.00000000000E+00 -0.00000000000E+00 -0.89363125526E+02  0.89363125526E+02  0.00000000000E+00 0.  1.
          6    2    1    2  501    0  0.14869673539E+03  0.39987536788E+02  0.11941043356E+03  0.25985186056E+03  0.17191397726E+03 0.  0.
         24    2    3    3    0    0  0.17358026241E+03  0.57426903283E+02  0.10853470969E+03  0.22723755709E+03  0.80182089167E+02 0.  0.
         -6    2    1    2    0  502 -0.14869673539E+03 -0.39987536788E+02  0.67769691907E+03  0.71598174313E+03  0.17218310069E+03 0.  0.
        -24    2    5    5    0    0 -0.14147304895E+03  0.25551847084E+02  0.49870178497E+03  0.52517047377E+03  0.80206207461E+02 0.  0.
          5    1    3    3  501    0 -0.24883527026E+02 -0.17439366495E+02  0.10875723866E+02  0.32614303467E+02  0.47000000000E+01 0. -1.
        -11    1    4    4    0    0  0.66922767170E+02 -0.15404267344E+02  0.23398458983E+02  0.72549542389E+02  0.00000000000E+00 0.  1.
         12    1    4    4    0    0  0.10665749524E+03  0.72831170627E+02  0.85136250712E+02  0.15468801470E+03  0.00000000000E+00 0. -1.
         -5    1    5    5    0  502 -0.72236864360E+01 -0.65539383872E+02  0.17899513410E+03  0.19081126936E+03  0.47000000000E+01 0.  1.
         13    1    6    6    0    0 -0.73998289641E+02 -0.68654212819E+01  0.13755052382E+03  0.15634266047E+03  0.00000000000E+00 0. -1.
        -14    1    6    6    0    0 -0.67474759309E+02  0.32417268366E+02  0.36115126115E+03  0.36882781330E+03  0.00000000000E+00 0.  1.
</event>
<event>
12    1  0.8461994E-002  0.2699806E+03  0.7818608E-02  0.1101305E+00
         21   -1    0    0  503  502  0.00000000000E+00  0.00000000000E+00  0.39639815117E+03  0.39639815117E+03  0.00000000000E+00 0. -1.
         21   -1    0    0  501  503 -0.00000000000E+00 -0.00000000000E+00 -0.22138165192E+03  0.22138165192E+03  0.00000000000E+00 0. -1.
          6    2    1    2  501    0  0.59820046155E+02 -0.19903214327E+03  0.21477416631E+03  0.34498906973E+03  0.17232899854E+03 0.  0.
         24    2    3    3    0    0  0.64546854985E+02 -0.59330188420E+02  0.47598743667E+02  0.12702418529E+03  0.78632916159E+02 0.  0.
         -6    2    1    2    0  502 -0.59820046155E+02  0.19903214327E+03 -0.39757667060E+02  0.27279073336E+03  0.17216817401E+03 0.  0.
        -24    2    5    5    0    0  0.10846408729E+02  0.12405350117E+03  0.25676078857E+02  0.15064651647E+03  0.80797253431E+02 0.  0.
          5    1    3    3  501    0 -0.47268088299E+01 -0.13970195486E+03  0.16717542265E+03  0.21796488444E+03  0.47000000000E+01 0. -1.
        -13    1    4    4    0    0  0.54369399745E+02  0.31258834659E+01  0.23442063493E+02  0.59290244703E+02  0.00000000000E+00 0.  1.
         14    1    4    4    0    0  0.10177455240E+02 -0.62456071886E+02  0.24156680174E+02  0.67733940588E+02  0.00000000000E+00 0. -1.
         -5    1    5    5    0  502 -0.70666454884E+02  0.74978642102E+02 -0.65433745917E+02  0.12214421690E+03  0.47000000000E+01 0.  1.
         13    1    6    6    0    0 -0.32969393754E+02  0.75150301080E+02  0.21599597262E+02  0.84859243921E+02  0.00000000000E+00 0. -1.
        -14    1    6    6    0    0  0.43815802484E+02  0.48903200093E+02  0.40764815950E+01  0.65787272544E+02  0.00000000000E+00 0.  1.
</event>
<event>
12    1  0.8461994E-002  0.1803104E+03  0.7818608E-02  0.1167796E+00
         21   -1    0    0  503  502  0.00000000000E+00  0.00000000000E+00  0.26728839505E+03  0.26728839505E+03  0.00000000000E+00 0. -1.
         21   -1    0    0  501  503 -0.00000000000E+00 -0.00000000000E+00 -0.12143701408E+03  0.12143701408E+03  0.00000000000E+00 0. -1.
          6    2    1    2  501    0 -0.31538727036E+00 -0.50067913079E+02  0.87000181822E+02  0.20020207925E+03  0.17321935662E+03 0.  0.
         24    2    3    3    0    0  0.76116862336E+01 -0.48617457542E+02  0.12741096885E+03  0.15872842467E+03  0.80867563767E+02 0.  0.
         -6    2    1    2    0  502  0.31538727036E+00  0.50067913079E+02  0.58851199150E+02  0.18852332988E+03  0.17196129471E+03 0.  0.
        -24    2    5    5    0    0 -0.33462464102E+02  0.56782387160E+02 -0.17162766075E+02  0.10493959752E+03  0.79835973050E+02 0.  0.
          5    1    3    3  501    0 -0.79270735040E+01 -0.14504555367E+01 -0.40410787029E+02  0.41473654576E+02  0.47000000000E+01 0. -1.
        -11    1    4    4    0    0 -0.14652024770E+02 -0.20163438083E+02  0.11906778750E+03  0.12164860905E+03  0.00000000000E+00 0.  1.
         12    1    4    4    0    0  0.22263711004E+02 -0.28454019459E+02  0.83431813532E+01  0.37079815616E+02  0.00000000000E+00 0. -1.
         -5    1    5    5    0  502  0.33777851373E+02 -0.67144740808E+01  0.76013965225E+02  0.83583732357E+02  0.47000000000E+01 0.  1.
         11    1    6    6    0    0 -0.31876609903E+02  0.27519923654E+02  0.28380083442E+02  0.50782808045E+02  0.00000000000E+00 0. -1.
        -12    1    6    6    0    0 -0.15858541998E+01  0.29262463506E+02 -0.45542849517E+02  0.54156789474E+02  0.00000000000E+00 0.  1.
</event>
<event>
12    1  0.8461994E-002  0.2502153E+03  0.7818608E-02  0.1113190E+00
         21   -1    0    0  503  502  0.00000000000E+00  0.00000000000E+00  0.38883701925E+03  0.38883701925E+03  0.00000000000E+00 0.  1.
         21   -1    0    0  501  503 -0.00000000000E+00 -0.00000000000E+00 -0.18509117591E+03  0.18509117591E+03  0.00000000000E+00 0.  1.
          6    2    1    2  501    0 -0.13362074541E+03 -0.12352573831E+03 -0.17915852711E+01  0.25022171585E+03  0.17173987794E+03 0.  0.
         24    2    3    3    0    0 -0.15032880829E+03 -0.78977545158E+02 -0.36306755033E+02  0.19125487922E+03  0.80150141137E+02 0.  0.
         -6    2    1    2    0  502  0.13362074541E+03  0.12352573831E+03  0.20553742862E+03  0.32370647930E+03  0.17154340137E+03 0.  0.
        -24    2    5    5    0    0 -0.15129260119E+02  0.64116593654E+02  0.86682813073E+02  0.12419577721E+03  0.59756580403E+02 0.  0.
          5    1    3    3  501    0  0.16708062878E+02 -0.44548193157E+02  0.34515169762E+02  0.58966836632E+02  0.47000000000E+01 0. -1.
        -11    1    4    4    0    0 -0.34436063133E+02 -0.54791351997E+02  0.72234505433E+01  0.65116149575E+02  0.00000000000E+00 0.  1.
         12    1    4    4    0    0 -0.11589274515E+03 -0.24186193161E+02 -0.43530205577E+02  0.12613872964E+03  0.00000000000E+00 0. -1.
         -5    1    5    5    0  502  0.14875000553E+03  0.59409144660E+02  0.11885461554E+03  0.19951070209E+03  0.47000000000E+01 0.  1.
         11    1    6    6    0    0  0.42968140662E+01  0.92684678082E+01 -0.80593393058E+01  0.13012304050E+02  0.00000000000E+00 0. -1.
        -12    1    6    6    0    0 -0.19426074185E+02  0.54848125846E+02  0.94742152378E+02  0.11118347316E+03  0.00000000000E+00 0.  1.
</event>
<event>
12    1  0.8461994E-002  0.2111910E+03  0.7818608E-02  0.1140835E+00
         21   -1    0    0  501  502  0.00000000000E+00  0.00000000000E+00  0.46116504605E+03  0.46116504605E+03  0.00000000000E+00 0.  1.
         21   -1    0    0  502  503 -0.00000000000E+00 -0.00000000000E+00 -0.11391624617E+03  0.11391624617E+03  0.00000000000E+00 0. -1.
         -6    2    1    2    0  503  0.76596499585E+02  0.92445746106E+02  0.59959874919E+02  0.21851913418E+03  0.17245922904E+03 0.  0.
        -24    2    3    3    0    0  0.42112404473E+01 -0.54801987753E+01 -0.15053328375E+01  0.82030386708E+02  0.81724850516E+02 0.  0.
          6    2    1    2  501    0 -0.76596499585E+02 -0.92445746106E+02  0.28728892496E+03  0.35656215805E+03  0.17374811200E+03 0.  0.
         24    2    5    5    0    0 -0.11152290890E+03 -0.44134198558E+02  0.24153010445E+03  0.28126395522E+03  0.79921426798E+02 0.  0.
          5    1    5    5  501    0  0.34926409312E+02 -0.48311547548E+02  0.45758820516E+02  0.75298202827E+02  0.47000000000E+01 0. -1.
        -11    1    6    6    0    0 -0.10065226898E+02  0.21125775272E+02  0.43058565533E+02  0.49006604036E+02  0.00000000000E+00 0.  1.
         12    1    6    6    0    0 -0.10145768200E+03 -0.65259973830E+02  0.19847153891E+03  0.23225735118E+03  0.00000000000E+00 0. -1.
         -5    1    3    3    0  503  0.72385259138E+02  0.97925944881E+02  0.61465207756E+02  0.13648874747E+03  0.47000000000E+01 0.  1.
         13    1    4    4    0    0  0.32926072529E+02  0.12022724333E+02 -0.23178358159E+02  0.42022713377E+02  0.00000000000E+00 0. -1.
        -14    1    4    4    0    0 -0.28714832082E+02 -0.17502923108E+02  0.21673025322E+02  0.40007673332E+02  0.00000000000E+00 0.  1.
</event>
<event>
12    1  0.8461994E-002  0.1840803E+03  0.7818608E-02  0.1164467E+00
         21   -1    0    0  501  502  0.00000000000E+00  0.00000000000E+00  0.19732297492E+04  0.19732297492E+04  0.00000000000E+00 0. -1.
         21   -1    0    0  502  503 -0.00000000000E+00 -0.00000000000E+00 -0.30148614399E+02  0.30148614399E+02  0.00000000000E+00 0. -1.
         -6    2    1    2    0  503  0.31635429286E+02  0.51987954090E+02  0.30537974683E+03  0.35536398393E+03  0.17124025094E+03 0.  0.
        -24    2    3    3    0    0  0.86138989842E+02  0.50326160418E+02  0.21393835981E+03  0.24879467816E+03  0.78590852460E+02 0.  0.
          6    2    1    2  501    0 -0.31635429286E+02 -0.51987954090E+02  0.16377013879E+04  0.16480143796E+04  0.17372970867E+03 0.  0.
         24    2    5    5    0    0 -0.48847244336E+02 -0.95808737224E+02  0.13278508714E+04  0.13345722954E+04  0.79560715117E+02 0.  0.
          5    1    5    5  501    0  0.17211815050E+02  0.43820783134E+02  0.30985051648E+03  0.31344208424E+03  0.47000000000E+01 0. -1.
        -13    1    6    6    0    0  0.21697943741E+02 -0.29843762227E+02  0.32880406299E+03  0.33086789319E+03  0.00000000000E+00 0.  1.
         14    1    6    6    0    0 -0.70545188077E+02 -0.65964974997E+02  0.99904680845E+03  0.10037044022E+04  0.00000000000E+00 0. -1.
         -5    1    3    3    0  503 -0.54503560556E+02  0.16617936728E+01  0.91441387022E+02  0.10656930577E+03  0.47000000000E+01 0.  1.
         13    1    4    4    0    0  0.82061670968E+01  0.30347896065E+02  0.16307583750E+02  0.35415720546E+02  0.00000000000E+00 0. -1.
        -14    1    4    4    0    0  0.77932822745E+02  0.19978264352E+02  0.19763077606E+03  0.21337895761E+03  0.00000000000E+00 0.  1.
</event>
<event>
12    1  0.8461994E-002  0.3419791E+03  0.7818608E-02  0.1066525E+00
         21   -1    0    0  501  502  0.00000000000E+00  0.00000000000E+00  0.36384356097E+03  0.36384356097E+03  0.00000000000E+00 0. -1.
         21   -1    0    0  502  503 -0.00000000000E+00 -0.00000000000E+00 -0.31947420865E+03  0.31947420865E+03  0.00000000000E+00 0.  1.
         -6    2    1    2    0  503  0.11692825912E+03  0.26246625610E+03 -0.10983335482E+02  0.34215538379E+03  0.18544249682E+03 0.  0.
        -24    2    3    3    0    0 -0.83228606574E+01  0.16310921431E+03 -0.18778324682E+02  0.18202257449E+03  0.78139019336E+02 0.  0.
          6    2    1    2  501    0 -0.11692825912E+03 -0.26246625610E+03  0.55352687801E+02  0.34116238582E+03  0.17540553036E+03 0.  0.
         24    2    5    5    0    0 -0.88267153338E+02 -0.58999033063E+02  0.56918576355E+02  0.13562671534E+03  0.62312962681E+02 0.  0.
          5    1    5    5  501    0 -0.28661105786E+02 -0.20346722304E+03 -0.15658885538E+01  0.20553567049E+03  0.47000000000E+01 0. -1.
        -13    1    6    6    0    0 -0.39204447325E+02 -0.62306335517E+02  0.38859874041E+02  0.83241563814E+02  0.00000000000E+00 0.  1.
         14    1    6    6    0    0 -0.49062706013E+02  0.33073024542E+01  0.18058702313E+02  0.52385151523E+02  0.00000000000E+00 0. -1.
         -5    1    3    3    0  503  0.12525111978E+03  0.99357041785E+02  0.77949892000E+01  0.16013280930E+03  0.47000000000E+01 0.  1.
         13    1    4    4    0    0  0.25104975846E+02  0.10133175791E+03 -0.34677431187E+02  0.11000413268E+03  0.00000000000E+00 0. -1.
        -14    1    4    4    0    0 -0.33427836503E+02  0.61777456407E+02  0.15899106505E+02  0.72018441812E+02  0.00000000000E+00 0.  1.
</event>
<event>
12    1  0.8461994E-002  0.2399415E+03  0.7818608E-02  0.1121862E+00
         21   -1    0    0  501  502  0.00000000000E+00  0.00000000000E+00  0.15286464567E+04  0.15286464567E+04  0.00000000000E+00 0.  1.
         21   -1    0    0  502  503 -0.00000000000E+00 -0.00000000000E+00 -0.41978608389E+02  0.41978608389E+02  0.00000000000E+00 0. -1.
         -6    2    1    2    0  503  0.13416127446E+03  0.64293246409E+02  0.42662097196E+03  0.48376201894E+03  0.17287963487E+03 0.  0.
        -24    2    3    3    0    0  0.82585223057E+02  0.24432049123E+01  0.11940968721E+03  0.16613585473E+03  0.80722738493E+02 0.  0.
          6    2    1    2  501    0 -0.13416127446E+03 -0.64293246409E+02  0.10600468763E+04  0.10868630461E+04  0.18825257482E+03 0.  0.
         24    2    5    5    0    0 -0.92340730440E+02  0.39741218685E+02  0.57189609726E+03  0.58597842774E+03  0.78736248060E+02 0.  0.
          5    1    5    5  501    0 -0.41820544016E+02 -0.10403446509E+03  0.48815077907E+03  0.50088461839E+03  0.47000000000E+01 0. -1.
        -11    1    6    6    0    0 -0.33870909831E+02 -0.17232156505E+02  0.29063545861E+03  0.29310946002E+03  0.00000000000E+00 0.  1.
         12    1    6    6    0    0 -0.58469820608E+02  0.56973375190E+02  0.28126063864E+03  0.29286896772E+03  0.00000000000E+00 0. -1.
         -5    1    3    3    0  503  0.51576051399E+02  0.61850041497E+02  0.30721128476E+03  0.31762616421E+03  0.47000000000E+01 0.  1.
         13    1    4    4    0    0  0.78161038519E+01  0.33603171132E+02  0.34829777699E+02  0.49024259343E+02  0.00000000000E+00 0. -1.
        -14    1    4    4    0    0  0.74769119205E+02 -0.31159966219E+02  0.84579909507E+02  0.11711159539E+03  0.00000000000E+00 0.  1.
</event>
<event>
12    1  0.8461994E-002  0.1835072E+03  0.7818608E-02  0.1165279E+00
         21   -1    0    0  503  502  0.00000000000E+00  0.00000000000E+00  0.90655370430E+02  0.90655370430E+02  0.00000000000E+00 0. -1.
         21   -1    0    0  501  503 -0.00000000000E+00 -0.00000000000E+00 -0.42772393635E+03  0.42772393635E+03  0.00000000000E+00 0. -1.
          6    2    1    2  501    0 -0.35043093926E+02 -0.40556563662E+02 -0.67486172846E+02  0.19226653027E+03  0.17186966529E+03 0.  0.
         24    2    3    3    0    0 -0.81161270604E+02 -0.49631724655E+02 -0.74994115413E+02  0.14443658182E+03  0.78659703038E+02 0.  0.
         -6    2    1    2    0  502  0.35043093926E+02  0.40556563662E+02 -0.26958239307E+03  0.32611277651E+03  0.17550505139E+03 0.  0.
        -24    2    5    5    0    0  0.31044777456E+02 -0.44040232091E+02 -0.12794803404E+03  0.16102193472E+03  0.81572322483E+02 0.  0.
          5    1    3    3  501    0  0.46118176679E+02  0.90751609931E+01  0.75079425662E+01  0.47829948450E+02  0.47000000000E+01 0. -1.
        -11    1    4    4    0    0 -0.39547523833E+02 -0.19741297174E+02 -0.81574130530E+02  0.92779654166E+02  0.00000000000E+00 0.  1.
         12    1    4    4    0    0 -0.41613746771E+02 -0.29890427480E+02  0.65800151177E+01  0.51656927650E+02  0.00000000000E+00 0. -1.
         -5    1    5    5    0  502  0.39983164699E+01  0.84596795752E+02 -0.14163435903E+03  0.16509084179E+03  0.47000000000E+01 0.  1.
         13    1    6    6    0    0 -0.53114208546E+01 -0.30801280904E+02 -0.11657646318E+03  0.12069383523E+03  0.00000000000E+00 0. -1.
        -14    1    6    6    0    0  0.36356198310E+02 -0.13238951187E+02 -0.11371570867E+02  0.40328099485E+02  0.00000000000E+00 0.  1.
</event>
<event>
12    1  0.8461994E-002  0.2104636E+03  0.7818608E-02  0.1141226E+00
         21   -1    0    0  501  502  0.00000000000E+00  0.00000000000E+00  0.12616172791E+03  0.12616172791E+03  0.00000000000E+00 0. -1.
         21   -1    0    0  502  503 -0.00000000000E+00 -0.00000000000E+00 -0.55737030021E+03  0.55737030021E+03  0.00000000000E+00 0. -1.
         -6    2    1    2    0  503 -0.84875891360E+02 -0.85704285082E+02 -0.42367308036E+03  0.47306850157E+03  0.17246966906E+03 0.  0.
        -24    2    3    3    0    0 -0.10190908434E+03 -0.64103909167E+02 -0.42093832723E+03  0.44502790997E+03  0.79787171167E+02 0.  0.
          6    2    1    2  501    0  0.84875891360E+02  0.85704285082E+02 -0.75354919375E+01  0.21046352655E+03  0.17230487791E+03 0.  0.
         24    2    5    5    0    0  0.56135084010E+02  0.12283208470E+03  0.16904305871E+02  0.15732313486E+03  0.78904654596E+02 0.  0.
          5    1    5    5  501    0  0.28740807351E+02 -0.37127799618E+02 -0.24439797809E+02  0.53140391687E+02  0.47000000000E+01 0. -1.
        -13    1    6    6    0    0 -0.11669708562E+02 -0.40336909351E+01  0.35964105398E+01  0.12860284960E+02  0.00000000000E+00 0.  1.
         14    1    6    6    0    0  0.67804792572E+02  0.12686577564E+03  0.13307895331E+02  0.14446284990E+03  0.00000000000E+00 0. -1.
         -5    1    3    3    0  503  0.17033192980E+02 -0.21600375914E+02 -0.27347531312E+01  0.28040591603E+02  0.47000000000E+01 0.  1.
         13    1    4    4    0    0 -0.87039083325E+02 -0.76602281064E+02 -0.28459353646E+03  0.30730634957E+03  0.00000000000E+00 0. -1.
        -14    1    4    4    0    0 -0.14870001015E+02  0.12498371897E+02 -0.13634479077E+03  0.13772156041E+03  0.00000000000E+00 0.  1.
</event>
<event>
12    1  0.8461994E-002  0.2001304E+03  0.7818608E-02  0.1149696E+00
         21   -1    0    0  503  502  0.00000000000E+00  0.00000000000E+00  0.20520467649E+03  0.20520467649E+03  0.00000000000E+00 0.  1.
         21   -1    0    0  501  503 -0.00000000000E+00 -0.00000000000E+00 -0.22092672070E+03  0.22092672070E+03  0.00000000000E+00 0.  1.
          6    2    1    2  501    0 -0.18699725943E+01 -0.10160001082E+03 -0.81036111182E+02  0.21591442615E+03  0.17241267096E+03 0.  0.
         24    2    3    3    0    0  0.35506906083E+02  0.18229997199E+01 -0.59703077239E+02  0.10379601328E+03  0.77104417723E+02 0.  0.
         -6    2    1    2    0  502  0.18699725943E+01  0.10160001082E+03  0.65314066974E+02  0.21021697104E+03  0.17204414716E+03 0.  0.
        -24    2    5    5    0    0  0.32601969364E+02  0.76077112860E+02 -0.20054303048E+02  0.11584683516E+03  0.78534697036E+02 0.  0.
          5    1    3    3  501    0 -0.37376878677E+02 -0.10342301054E+03 -0.21333033943E+02  0.11211841287E+03  0.47000000000E+01 0. -1.
        -11    1    4    4    0    0 -0.24033379137E+02 -0.54423762842E+01 -0.21317185960E+02  0.32582897195E+02  0.00000000000E+00 0.  1.
         12    1    4    4    0    0  0.59540285220E+02  0.72653760041E+01 -0.38385891279E+02  0.71213116080E+02  0.00000000000E+00 0. -1.
         -5    1    5    5    0  502 -0.30731996770E+02  0.25522897957E+02  0.85368370023E+02  0.94370135880E+02  0.47000000000E+01 0.  1.
         13    1    6    6    0    0 -0.23659635745E+02  0.24969522280E+02 -0.20094880151E+02  0.39837916797E+02  0.00000000000E+00 0. -1.
        -14    1    6    6    0    0  0.56261605109E+02  0.51107590580E+02  0.40577102236E-01  0.76008918363E+02  0.00000000000E+00 0.  1.
</event>
<event>
12    1  0.8461994E-002  0.1778170E+03  0.7818608E-02  0.1170109E+00
         21   -1    0    0  503  502  0.00000000000E+00  0.00000000000E+00  0.49576822404E+03  0.49576822404E+03  0.00000000000E+00 0.  1.
         21   -1    0    0  501  503 -0.00000000000E+00 -0.00000000000E+00 -0.26620615596E+03  0.26620615596E+03  0.00000000000E+00 0.  1.
          6    2    1    2  501    0 -0.40383537165E+01 -0.45380016688E+02 -0.21760240615E+03  0.28101548012E+03  0.17188146698E+03 0.  0.
         24    2    3    3    0    0 -0.61617260597E+02 -0.32927310762E+02 -0.86355552738E+02  0.13707720539E+03  0.80324243865E+02 0.  0.
         -6    2    1    2    0  502  0.40383537165E+01  0.45380016688E+02  0.44716447422E+03  0.48095889988E+03  0.17114246157E+03 0.  0.
        -24    2    5    5    0    0 -0.13054724286E+02  0.43217717468E+02  0.11047911910E+03  0.14380023217E+03  0.80216420310E+02 0.  0.
          5    1    3    3  501    0  0.57578906880E+02 -0.12452705927E+02 -0.13124685341E+03  0.14393827473E+03  0.47000000000E+01 0. -1.
        -13    1    4    4    0    0 -0.42700887965E+02 -0.11093882331E+02 -0.96783208220E+02  0.10636460620E+03  0.00000000000E+00 0.  1.
         14    1    4    4    0    0 -0.18916372632E+02 -0.21833428430E+02  0.10427655482E+02  0.30712599197E+02  0.00000000000E+00 0. -1.
         -5    1    5    5    0  502  0.17093078002E+02  0.21622992199E+01  0.33668535513E+03  0.33715866771E+03  0.47000000000E+01 0.  1.
         11    1    6    6    0    0 -0.13894805018E+02 -0.22149964659E+02  0.38789593831E+02  0.46779473388E+02  0.00000000000E+00 0. -1.
        -12    1    6    6    0    0  0.84008073179E+00  0.65367682128E+02  0.71689525264E+02  0.97020758784E+02  0.00000000000E+00 0.  1.
</event>
<event>
12    1  0.8461994E-002  0.1747319E+03  0.7818608E-02  0.1173333E+00
         21   -1    0    0  503  502  0.00000000000E+00  0.00000000000E+00  0.25091487482E+03  0.25091487482E+03  0.00000000000E+00 0. -1.
         21   -1    0    0  501  503 -0.00000000000E+00 -0.00000000000E+00 -0.15795295119E+03  0.15795295119E+03  0.00000000000E+00 0. -1.
          6    2    1    2  501    0 -0.27826487508E+02 -0.38565605863E+01 -0.52578443163E+02  0.18247117973E+03  0.17245884228E+03 0.  0.
         24    2    3    3    0    0 -0.92099393652E+01 -0.13232774809E+02 -0.10132726438E+03  0.12924499419E+03  0.78594686228E+02 0.  0.
         -6    2    1    2    0  502  0.27826487508E+02  0.38565605863E+01  0.14554036680E+03  0.22639664628E+03  0.17112643458E+03 0.  0.
        -24    2    5    5    0    0 -0.44197342502E+02 -0.13251195216E+02  0.11563230065E+03  0.14641733759E+03  0.77059772481E+02 0.  0.
          5    1    3    3  501    0 -0.18616548143E+02  0.93762142222E+01  0.48748821217E+02  0.53226185548E+02  0.47000000000E+01 0. -1.
        -11    1    4    4    0    0  0.10403844773E+02 -0.32870204040E+02 -0.13313289932E+02  0.36958544188E+02  0.00000000000E+00 0.  1.
         12    1    4    4    0    0 -0.19613784139E+02  0.19637429232E+02 -0.88013974448E+02  0.92286449998E+02  0.00000000000E+00 0. -1.
         -5    1    5    5    0  502  0.72023830010E+02  0.17107755802E+02  0.29908066148E+02  0.79979308691E+02  0.47000000000E+01 0.  1.
         13    1    6    6    0    0 -0.47130738169E+02  0.14428261204E+02  0.33240623901E+02  0.59450990564E+02  0.00000000000E+00 0. -1.
        -14    1    6    6    0    0  0.29333956669E+01 -0.27679456420E+02  0.82391676748E+02  0.86966347026E+02  0.00000000000E+00 0.  1.
</event>
<event>
12    1  0.8461994E-002  0.1742045E+03  0.7818608E-02  0.1174138E+00
         21   -1    0    0  503  502  0.00000000000E+00  0.00000000000E+00  0.99783636696E+02  0.99783636696E+02  0.00000000000E+00 0.  1.
         21   -1    0    0  501  503 -0.00000000000E+00 -0.00000000000E+00 -0.32207748311E+03  0.32207748311E+03  0.00000000000E+00 0.  1.
          6    2    1    2  501    0 -0.23912987042E+02  0.60757925025E+01 -0.56624307624E+02  0.18317624590E+03  0.17244848113E+03 0.  0.
         24    2    3    3    0    0 -0.57517278353E+02 -0.19205508902E+02  0.13334153875E+02  0.10141642122E+03  0.80189787086E+02 0.  0.
         -6    2    1    2    0  502  0.23912987042E+02 -0.60757925025E+01 -0.16566953879E+03  0.23868487391E+03  0.17004507269E+03 0.  0.
        -24    2    5    5    0    0  0.19607029791E+02 -0.70127905132E+02 -0.10710598602E+03  0.15166192226E+03  0.78913165742E+02 0.  0.
          5    1    3    3  501    0  0.33604291311E+02  0.25281301405E+02 -0.69958461499E+02  0.81759824673E+02  0.47000000000E+01 0. -1.
        -11    1    4    4    0    0 -0.30588894947E+02  0.30549406593E+02  0.11834580691E+02  0.44821914700E+02  0.00000000000E+00 0.  1.
         12    1    4    4    0    0 -0.26928383406E+02 -0.49754915496E+02  0.14995731842E+01  0.56594506523E+02  0.00000000000E+00 0. -1.
         -5    1    5    5    0  502  0.43059572514E+01  0.64052112629E+02 -0.58563552767E+02  0.87022951644E+02  0.47000000000E+01 0.  1.
         11    1    6    6    0    0  0.28000369230E+02 -0.54445137566E+02 -0.22532423051E+02  0.65238054617E+02  0.00000000000E+00 0. -1.
        -12    1    6    6    0    0 -0.83933394395E+01 -0.15682767565E+02 -0.84573562968E+02  0.86423867644E+02  0.00000000000E+00 0.  1.
</event>
<event>
12    1  0.8461994E-002  0.2316790E+03  0.7818608E-02  0.1125593E+00
         21   -1    0    0  501  502  0.00000000000E+00  0.00000000000E+00  0.12106386337E+03  0.12106386337E+03  0.00000000000E+00 0. -1.
         21   -1    0    0  502  503 -0.00000000000E+00 -0.00000000000E+00 -0.44384650591E+03  0.44384650591E+03  0.00000000000E+00 0. -1.
         -6    2    1    2    0  503 -0.11612157526E+03  0.10267734178E+03 -0.18015713540E+03  0.29348213691E+03  0.17218685923E+03 0.  0.
        -24    2    3    3    0    0 -0.15037928807E+03  0.71772873451E+02 -0.15337629297E+03  0.23992860695E+03  0.79222304578E+02 0.  0.
          6    2    1    2  501    0  0.11612157526E+03 -0.10267734178E+03 -0.14262550714E+03  0.27142823238E+03  0.17118526014E+03 0.  0.
         24    2    5    5    0    0 -0.24060277671E+01 -0.66984555121E+02 -0.38317772793E+02  0.10948700494E+03  0.77630103344E+02 0.  0.
          5    1    5    5  501    0  0.11852760303E+03 -0.35692786663E+02 -0.10430773434E+03  0.16194122743E+03  0.47000000000E+01 0. -1.
        -13    1    6    6    0    0  0.21767838554E+01 -0.41551891461E+01  0.21865614638E+02  0.22363118931E+02  0.00000000000E+00 0.  1.
         14    1    6    6    0    0 -0.45828116224E+01 -0.62829365975E+02 -0.60183387432E+02  0.87123886012E+02  0.00000000000E+00 0. -1.
         -5    1    3    3    0  503  0.34257712809E+02  0.30904468333E+02 -0.26780842426E+02  0.53553529957E+02  0.47000000000E+01 0.  1.
         13    1    4    4    0    0 -0.15193056969E+03  0.80647994564E+02 -0.15403110510E+03  0.23089516750E+03  0.00000000000E+00 0. -1.
        -14    1    4    4    0    0  0.15512816220E+01 -0.88751211126E+01  0.65481212881E+00  0.90334394534E+01  0.00000000000E+00 0.  1.
</event>
<event>
12    1  0.8461994E-002  0.2173463E+03  0.7818608E-02  0.1135877E+00
         21   -1    0    0  503  502  0.00000000000E+00  0.00000000000E+00  0.93033345530E+02  0.93033345530E+02  0.00000000000E+00 0. -1.
         21   -1    0    0  501  503 -0.00000000000E+00 -0.00000000000E+00 -0.52371973312E+03  0.52371973312E+03  0.00000000000E+00 0.  1.
          6    2    1    2  501    0  0.13200934107E+03 -0.18620728069E+02 -0.16151967148E+03  0.27079044701E+03  0.17165565610E+03 0.  0.
         24    2    3    3    0    0  0.13047492880E+03  0.40125268492E+02 -0.11988284835E+03  0.19861592537E+03  0.80266084156E+02 0.  0.
         -6    2    1    2    0  502 -0.13200934107E+03  0.18620728069E+02 -0.26916671611E+03  0.34596263164E+03  0.17165728586E+03 0.  0.
        -24    2    5    5    0    0 -0.10352624749E+03 -0.43027030110E+02 -0.18837174698E+03  0.24031392249E+03  0.98477698206E+02 0.  0.
          5    1    3    3  501    0  0.15344122705E+01 -0.58745996561E+02 -0.41636823138E+02  0.72174521640E+02  0.47000000000E+01 0. -1.
        -11    1    4    4    0    0  0.85925287436E+02  0.61154172476E+02 -0.10048315475E+03  0.14567035464E+03  0.00000000000E+00 0.  1.
         12    1    4    4    0    0  0.44549641365E+02 -0.21028903984E+02 -0.19399693601E+02  0.52945570734E+02  0.00000000000E+00 0. -1.
         -5    1    5    5    0  502 -0.28483093581E+02  0.61647758179E+02 -0.80794969132E+02  0.10564870915E+03  0.47000000000E+01 0.  1.
         13    1    6    6    0    0 -0.13209291424E+02  0.21024924861E+02 -0.86014264196E+02  0.89526456930E+02  0.00000000000E+00 0. -1.
        -14    1    6    6    0    0 -0.90316956067E+02 -0.64051954971E+02 -0.10235748278E+03  0.15078746556E+03  0.00000000000E+00 0.  1.
</event>
<event>
12    1  0.8461994E-002  0.1843134E+03  0.7818608E-02  0.1163978E+00
         21   -1    0    0  501  502  0.00000000000E+00  0.00000000000E+00  0.14103058621E+03  0.14103058621E+03  0.00000000000E+00 0.  1.
         21   -1    0    0  502  503 -0.00000000000E+00 -0.00000000000E+00 -0.23972858032E+03  0.23972858032E+03  0.00000000000E+00 0.  1.
         -6    2    1    2    0  503 -0.17623728854E+02  0.60478255919E+02 -0.57561012039E+02  0.19309245009E+03  0.17321434386E+03 0.  0.
        -24    2    3    3    0    0  0.69654646844E+01 -0.28391787143E+02  0.19732079937E+00  0.84185939704E+02  0.78946958352E+02 0.  0.
          6    2    1    2  501    0  0.17623728854E+02 -0.60478255919E+02 -0.41136982071E+02  0.18766671643E+03  0.17192536144E+03 0.  0.
         24    2    5    5    0    0  0.40177330651E+02 -0.45259670009E+02 -0.85882353129E+02  0.13508812248E+03  0.84913877714E+02 0.  0.
          5    1    5    5  501    0 -0.22553601797E+02 -0.15218585910E+02  0.44745371057E+02  0.52578593954E+02  0.47000000000E+01 0. -1.
        -13    1    6    6    0    0 -0.61257940457E+00 -0.58191830444E+02 -0.32441849495E+02  0.66626856317E+02  0.00000000000E+00 0.  1.
         14    1    6    6    0    0  0.40789910056E+02  0.12932160436E+02 -0.53440503634E+02  0.68461266162E+02  0.00000000000E+00 0. -1.
         -5    1    3    3    0  503 -0.24589193538E+02  0.88870043062E+02 -0.57758332838E+02  0.10890651039E+03  0.47000000000E+01 0.  1.
         13    1    4    4    0    0 -0.32869869378E+02  0.35433158745E+01 -0.15930743324E+01  0.33098659885E+02  0.00000000000E+00 0. -1.
        -14    1    4    4    0    0  0.39835334063E+02 -0.31935103018E+02  0.17903951318E+01  0.51087279820E+02  0.00000000000E+00 0.  1.
</event>
<event>
12    1  0.8461994E-002  0.2518341E+03  0.7818608E-02  0.1112192E+00
         21   -1    0    0  501  502  0.00000000000E+00  0.00000000000E+00  0.13052568662E+03  0.13052568662E+03  0.00000000000E+00 0. -1.
         21   -1    0    0  502  503 -0.00000000000E+00 -0.00000000000E+00 -0.72053779299E+03  0.72053779299E+03  0.00000000000E+00 0.  1.
         -6    2    1    2    0  503  0.12606765804E+02 -0.18344486050E+03 -0.53800160742E+03  0.59391463909E+03  0.17169135549E+03 0.  0.
        -24    2    3    3    0    0 -0.44821516268E+02 -0.10756094771E+03 -0.41379528285E+03  0.43737174763E+03  0.80555469872E+02 0.  0.
          6    2    1    2  501    0 -0.12606765804E+02  0.18344486050E+03 -0.52010498949E+02  0.25714884052E+03  0.17207407356E+03 0.  0.
         24    2    5    5    0    0 -0.17211571664E+01  0.69708086972E+02 -0.88596543764E+02  0.13708561217E+03  0.77980367561E+02 0.  0.
          5    1    5    5  501    0 -0.10885608638E+02  0.11373677353E+03  0.36586044815E+02  0.12006322835E+03  0.47000000000E+01 0. -1.
        -13    1    6    6    0    0  0.18580882411E+02 -0.10678592818E+02 -0.14365126904E+02  0.25799969123E+02  0.00000000000E+00 0.  1.
         14    1    6    6    0    0 -0.20302039578E+02  0.80386679790E+02 -0.74231416860E+02  0.11128564304E+03  0.00000000000E+00 0. -1.
         -5    1    3    3    0  503  0.57428282072E+02 -0.75883912792E+02 -0.12420632457E+03  0.15654289146E+03  0.47000000000E+01 0.  1.
         13    1    4    4    0    0  0.19652627503E+02 -0.20309482525E+02 -0.14082700179E+03  0.14363476349E+03  0.00000000000E+00 0. -1.
        -14    1    4    4    0    0 -0.64474143771E+02 -0.87251465180E+02 -0.27296828106E+03  0.29373698415E+03  0.00000000000E+00 0.  1.
</event>
<event>
12    1  0.8461994E-002  0.1814921E+03  0.7818608E-02  0.1166369E+00
         21   -1    0    0  503  502  0.00000000000E+00  0.00000000000E+00  0.10943228641E+04  0.10943228641E+04  0.00000000000E+00 0. -1.
         21   -1    0    0  501  503 -0.00000000000E+00 -0.00000000000E+00 -0.95600323877E+02  0.95600323877E+02  0.00000000000E+00 0. -1.
          6    2    1    2  501    0  0.57568957821E+02  0.53155438620E+01  0.68808184536E+01  0.18161303231E+03  0.17202763712E+03 0.  0.
         24    2    3    3    0    0  0.49000306455E+02 -0.39664504188E+02 -0.42218356408E+02  0.11431187719E+03  0.85501536382E+02 0.  0.
         -6    2    1    2    0  502 -0.57568957821E+02 -0.53155438620E+01  0.99184172179E+03  0.10083101557E+04  0.17203758038E+03 0.  0.
        -24    2    5    5    0    0 -0.94262786170E+02  0.25490633394E+02  0.55646924784E+03  0.57028419907E+03  0.77658217012E+02 0.  0.
          5    1    3    3  501    0  0.85686513666E+01  0.44980048050E+02  0.49099174861E+02  0.67301155123E+02  0.47000000000E+01 0. -1.
        -11    1    4    4    0    0 -0.10247355669E+02 -0.45391711487E+02 -0.15303900650E+02  0.48985968859E+02  0.00000000000E+00 0.  1.
         12    1    4    4    0    0  0.59247662123E+02  0.57272072989E+01 -0.26914455757E+02  0.65325908331E+02  0.00000000000E+00 0. -1.
         -5    1    5    5    0  502  0.36693828348E+02 -0.30806177256E+02  0.43537247396E+03  0.43802595662E+03  0.47000000000E+01 0.  1.
         13    1    6    6    0    0 -0.78392979335E+02  0.32101386266E+02  0.53956367182E+03  0.54617297092E+03  0.00000000000E+00 0. -1.
        -14    1    6    6    0    0 -0.15869806834E+02 -0.66107528712E+01  0.16905576012E+02  0.24111228147E+02  0.00000000000E+00 0.  1.
</event>
<event>
12    1  0.8461994E-002  0.2362041E+03  0.7818608E-02  0.1122417E+00
         21   -1    0    0  503  502  0.00000000000E+00  0.00000000000E+00  0.13655792582E+03  0.13655792582E+03  0.00000000000E+00 0. -1.
         21   -1    0    0  501  503 -0.00000000000E+00 -0.00000000000E+00 -0.45083736037E+03  0.45083736037E+03  0.00000000000E+00 0.  1.
          6    2    1    2  501    0  0.77273738215E+02 -0.14164668621E+03 -0.24770182377E+03  0.34198752299E+03  0.17194260104E+03 0.  0.
         24    2    3    3    0    0  0.93076149653E+02 -0.12629143005E+03 -0.26129744115E+03  0.31567344100E+03  0.82223315825E+02 0.  0.
         -6    2    1    2    0  502 -0.77273738215E+02  0.14164668621E+03 -0.66577610777E+02  0.24540776319E+03  0.17250326851E+03 0.  0.
        -24    2    5    5    0    0 -0.86022518981E+02  0.35822893417E+02 -0.55773576437E+02  0.13857128326E+03  0.86070641049E+02 0.  0.
          5    1    3    3  501    0 -0.15802411437E+02 -0.15355256159E+02  0.13595617380E+02  0.26314081989E+02  0.47000000000E+01 0. -1.
        -11    1    4    4    0    0  0.23598692024E+02 -0.56446061750E+02 -0.17255926117E+03  0.18308401013E+03  0.00000000000E+00 0.  1.
         12    1    4    4    0    0  0.69477457629E+02 -0.69845368304E+02 -0.88738179984E+02  0.13258943087E+03  0.00000000000E+00 0. -1.
         -5    1    5    5    0  502  0.87487807655E+01  0.10582379280E+03 -0.10804034340E+02  0.10683647993E+03  0.47000000000E+01 0.  1.
         13    1    6    6    0    0 -0.55468549641E+02 -0.47638231973E+01  0.88482370880E+01  0.56371493774E+02  0.00000000000E+00 0. -1.
        -14    1    6    6    0    0 -0.30553969340E+02  0.40586716614E+02 -0.64621813525E+02  0.82199789484E+02  0.00000000000E+00 0.  1.
</event>
<event>
12    1  0.8461994E-002  0.2452857E+03  0.7818608E-02  0.1116491E+00
         21   -1    0    0  503  502  0.00000000000E+00  0.00000000000E+00  0.69399114507E+02  0.69399114507E+02  0.00000000000E+00 0.  1.
         21   -1    0    0  501  503 -0.00000000000E+00 -0.00000000000E+00 -0.87104280465E+03  0.87104280465E+03  0.00000000000E+00 0.  1.
          6    2    1    2  501    0  0.51618136543E+02 -0.16650069047E+03 -0.35718711281E+03  0.43329864516E+03  0.17256352568E+03 0.  0.
         24    2    3    3    0    0 -0.61414117033E+00 -0.16422020836E+03 -0.20159736067E+03  0.26909245647E+03  0.69286364446E+02 0.  0.
         -6    2    1    2    0  502 -0.51618136543E+02  0.16650069047E+03 -0.44445657733E+03  0.50714327400E+03  0.17107232178E+03 0.  0.
        -24    2    5    5    0    0  0.18976041642E+02  0.14697267225E+03 -0.34441813511E+03  0.38306804919E+03  0.78461595503E+02 0.  0.
          5    1    3    3  501    0  0.52232277713E+02 -0.22804821105E+01 -0.15558975214E+03  0.16420618869E+03  0.47000000000E+01 0. -1.
        -13    1    4    4    0    0 -0.30111945699E+02 -0.38225406870E+02 -0.60518240592E+02  0.77655446998E+02  0.00000000000E+00 0.  1.
         14    1    4    4    0    0  0.29497804529E+02 -0.12599480149E+03 -0.14107912008E+03  0.19143700948E+03  0.00000000000E+00 0. -1.
         -5    1    5    5    0  502 -0.70594178185E+02  0.19528018216E+02 -0.10003844222E+03  0.12407522481E+03  0.47000000000E+01 0.  1.
         13    1    6    6    0    0 -0.23255048052E+02  0.28373365541E+02 -0.43676955155E+02  0.57039648874E+02  0.00000000000E+00 0. -1.
        -14    1    6    6    0    0  0.42231089694E+02  0.11859930671E+03 -0.30074117996E+03  0.32602840032E+03  0.00000000000E+00 0.  1.
</event>
<event>
12    1  0.8461994E-002  0.1860465E+03  0.7818608E-02  0.1162101E+00
         21   -1    0    0  501  502  0.00000000000E+00  0.00000000000E+00  0.57378238989E+02  0.57378238989E+02  0.00000000000E+00 0.  1.
         21   -1    0    0  502  503 -0.00000000000E+00 -0.00000000000E+00 -0.21368592920E+04  0.21368592920E+04  0.00000000000E+00 0.  1.
         -6    2    1    2    0  503 -0.26481661365E+02  0.64691871167E+02 -0.19692051217E+04  0.19779643519E+04  0.17230162316E+03 0.  0.
        -24    2    3    3    0    0 -0.63001579336E+02 -0.71445921796E+01 -0.12706642090E+04  0.12747747056E+04  0.80266891409E+02 0.  0.
          6    2    1    2  501    0  0.26481661365E+02 -0.64691871167E+02 -0.11027593123E+03  0.21627317904E+03  0.17241516865E+03 0.  0.
         24    2    5    5    0    0 -0.47393828802E+02 -0.42321209331E+02 -0.10956406943E+02  0.90398271044E+02  0.63360435502E+02 0.  0.
          5    1    5    5  501    0  0.73875490167E+02 -0.22370661836E+02 -0.99319524285E+02  0.12587490799E+03  0.47000000000E+01 0. -1.
        -11    1    6    6    0    0 -0.15220315979E+02 -0.53473912850E+02 -0.49131871655E+01  0.55814485415E+02  0.00000000000E+00 0.  1.
         12    1    6    6    0    0 -0.32173512823E+02  0.11152703520E+02 -0.60432197777E+01  0.34583785629E+02  0.00000000000E+00 0. -1.
         -5    1    3    3    0  503  0.36519917971E+02  0.71836463346E+02 -0.69854091275E+03  0.70318964630E+03  0.47000000000E+01 0.  1.
         11    1    4    4    0    0  0.25915517829E+01 -0.26771138233E+02 -0.18396118520E+03  0.18591699127E+03  0.00000000000E+00 0. -1.
        -12    1    4    4    0    0 -0.65593131119E+02  0.19626546054E+02 -0.10867030238E+04  0.10888577143E+04  0.00000000000E+00 0.  1.
</event>
<event>
12    1  0.8461994E-002  0.1897189E+03  0.7818608E-02  0.1159053E+00
         21   -1    0    0  501  502  0.00000000000E+00  0.00000000000E+00  0.22112725641E+04  0.22112725641E+04  0.00000000000E+00 0.  1.
         21   -1    0    0  502  503 -0.00000000000E+00 -0.00000000000E+00 -0.16206072872E+02  0.16206072872E+02  0.00000000000E+00 0. -1.
         -6    2    1    2    0  503  0.40555640041E+02  0.67603723635E+02  0.10362264291E+04  0.10534507420E+04  0.17256369824E+03 0.  0.
        -24    2    3    3    0    0  0.61195069398E+02  0.10429549214E+03  0.86133612914E+03  0.87350358598E+03  0.80536955209E+02 0.  0.
          6    2    1    2  501    0 -0.40555640041E+02 -0.67603723635E+02  0.11588400621E+04  0.11740278950E+04  0.17092742706E+03 0.  0.
         24    2    5    5    0    0  0.41740363736E+02 -0.28686623242E+02  0.66236009268E+03  0.66924910882E+03  0.81291432297E+02 0.  0.
          5    1    5    5  501    0 -0.82296003777E+02 -0.38917100394E+02  0.49647996944E+03  0.50477878620E+03  0.47000000000E+01 0. -1.
        -11    1    6    6    0    0  0.23108554255E+02 -0.34534639998E+02  0.63058770351E+03  0.63195529783E+03  0.00000000000E+00 0.  1.
         12    1    6    6    0    0  0.18631809481E+02  0.58480167568E+01  0.31772389169E+02  0.37293810988E+02  0.00000000000E+00 0. -1.
         -5    1    3    3    0  503 -0.20639429358E+02 -0.36691768508E+02  0.17489029997E+03  0.17994715598E+03  0.47000000000E+01 0.  1.
         11    1    4    4    0    0  0.25757491997E+02  0.50208456813E+02  0.16937953620E+03  0.17853225147E+03  0.00000000000E+00 0. -1.
        -12    1    4    4    0    0  0.35437577401E+02  0.54087035330E+02  0.69195659294E+03  0.69497133451E+03  0.00000000000E+00 0.  1.
</event>
<event>
12    1  0.8461994E-002  0.3060210E+03  0.7818608E-02  0.1082330E+00
         21   -1    0    0  503  502  0.00000000000E+00  0.00000000000E+00  0.85680277395E+03  0.85680277395E+03  0.00000000000E+00 0.  1.
         21   -1    0    0  501  503 -0.00000000000E+00 -0.00000000000E+00 -0.11006194716E+03  0.11006194716E+03  0.00000000000E+00 0. -1.
          6    2    1    2  501    0  0.21913178111E+03 -0.12594060770E+03  0.41834658333E+03  0.51832686261E+03  0.17253723816E+03 0.  0.
         24    2    3    3    0    0  0.92810906601E+02 -0.44014999834E+02  0.29852924669E+03  0.32585075312E+03  0.80671045541E+02 0.  0.
         -6    2    1    2    0  502 -0.21913178111E+03  0.12594060770E+03  0.32839424346E+03  0.44853785851E+03  0.17164980985E+03 0.  0.
        -24    2    5    5    0    0 -0.36179752639E+02  0.18114895663E+02  0.82673603624E+02  0.12373245255E+03  0.82690211833E+02 0.  0.
          5    1    3    3  501    0  0.12632087451E+03 -0.81925607869E+02  0.11981733665E+03  0.19247610948E+03  0.47000000000E+01 0. -1.
        -13    1    4    4    0    0  0.84656661334E+02 -0.14995170960E+02  0.13855734386E+03  0.16306361641E+03  0.00000000000E+00 0.  1.
         14    1    4    4    0    0  0.81542452673E+01 -0.29019828875E+02  0.15997190283E+03  0.16278713671E+03  0.00000000000E+00 0. -1.
         -5    1    5    5    0  502 -0.18295202847E+03  0.10782571204E+03  0.24572063983E+03  0.32480540596E+03  0.47000000000E+01 0.  1.
         13    1    6    6    0    0 -0.39756229905E+02 -0.14328771879E+02  0.90782119061E+01  0.43223667721E+02  0.00000000000E+00 0. -1.
        -14    1    6    6    0    0  0.35764772659E+01  0.32443667542E+02  0.73595391718E+02  0.80508784834E+02  0.00000000000E+00 0.  1.
</event>
<event>
12    1  0.8461994E-002  0.2309172E+03  0.7818608E-02  0.1126088E+00
         21   -1    0    0  501  502  0.00000000000E+00  0.00000000000E+00  0.28466891419E+03  0.28466891419E+03  0.00000000000E+00 0.  1.
         21   -1    0    0  502  503 -0.00000000000E+00 -0.00000000000E+00 -0.45387040372E+03  0.45387040372E+03  0.00000000000E+00 0.  1.
         -6    2    1    2    0  503 -0.15328385332E+03 -0.18874877191E+02 -0.36785708409E+03  0.43432887230E+03  0.17166984104E+03 0.  0.
        -24    2    3    3    0    0 -0.88267223208E+01 -0.22537645590E+02 -0.16474247212E+03  0.18501197724E+03  0.80644237890E+02 0.  0.
          6    2    1    2  501    0  0.15328385332E+03  0.18874877191E+02  0.19865559456E+03  0.30421044561E+03  0.17096125084E+03 0.  0.
         24    2    5    5    0    0  0.16158666165E+03  0.46087157265E+02  0.12223019864E+03  0.22252583289E+03  0.79644519932E+02 0.  0.
          5    1    5    5  501    0 -0.83028083295E+01 -0.27212280074E+02  0.76425395924E+02  0.81684612719E+02  0.47000000000E+01 0. -1.
        -11    1    6    6    0    0  0.12830745383E+03 -0.64634763913E+00  0.89930274898E+02  0.15668654958E+03  0.00000000000E+00 0.  1.
         12    1    6    6    0    0  0.33279207817E+02  0.46733504904E+02  0.32299923741E+02  0.65839283313E+02  0.00000000000E+00 0. -1.
         -5    1    3    3    0  503 -0.14445713100E+03  0.36627683995E+01 -0.20311461197E+03  0.24931689507E+03  0.47000000000E+01 0.  1.
         13    1    4    4    0    0 -0.26806182236E+02 -0.38245602193E+02 -0.52540030567E+02  0.70297598147E+02  0.00000000000E+00 0. -1.
        -14    1    4    4    0    0  0.17979459915E+02  0.15707956603E+02 -0.11220244156E+03  0.11471437909E+03  0.00000000000E+00 0.  1.
</event>
<event>
12    1  0.8461994E-002  0.2391138E+03  0.7818608E-02  0.1120408E+00
         21   -1    0    0  503  502  0.00000000000E+00  0.00000000000E+00  0.17153813000E+03  0.17153813000E+03  0.00000000000E+00 0.  1.
         21   -1    0    0  501  503 -0.00000000000E+00 -0.00000000000E+00 -0.33386125098E+03  0.33386125098E+03  0.00000000000E+00 0.  1.
          6    2    1    2  501    0  0.16331470619E+03  0.31273826929E+02 -0.69227145547E+02  0.24893337580E+03  0.17183038846E+03 0.  0.
         24    2    3    3    0    0  0.88391465557E+02 -0.37747949305E+02 -0.75889872658E+02  0.14673758570E+03  0.80837413527E+02 0.  0.
         -6    2    1    2    0  502 -0.16331470619E+03 -0.31273826929E+02 -0.93095975438E+02  0.25646600518E+03  0.17163392923E+03 0.  0.
        -24    2    5    5    0    0 -0.22177301642E+02 -0.32291666968E+02 -0.54505503622E+01  0.90259466513E+02  0.81132473969E+02 0.  0.
          5    1    3    3  501    0  0.74923240628E+02  0.69021776234E+02  0.66627271113E+01  0.10219579010E+03  0.47000000000E+01 0. -1.
        -11    1    4    4    0    0  0.81476485266E+02 -0.22384541729E+02 -0.90948010368E+02  0.12414115333E+03  0.00000000000E+00 0.  1.
         12    1    4    4    0    0  0.69149802912E+01 -0.15363407576E+02  0.15058137710E+02  0.22596432375E+02  0.00000000000E+00 0. -1.
         -5    1    5    5    0  502 -0.14113740454E+03  0.10178400384E+01 -0.87645425076E+02  0.16620653867E+03  0.47000000000E+01 0.  1.
         13    1    6    6    0    0  0.58924305070E+01 -0.23717553409E+02 -0.38786911588E+02  0.45843948211E+02  0.00000000000E+00 0. -1.
        -14    1    6    6    0    0 -0.28069732149E+02 -0.85741135582E+01  0.33336361226E+02  0.44415518302E+02  0.00000000000E+00 0.  1.
</event>
<event>
12    1  0.8461994E-002  0.2539171E+03  0.7818608E-02  0.1110897E+00
         21   -1    0    0  501  502  0.00000000000E+00  0.00000000000E+00  0.57877343294E+03  0.57877343294E+03  0.00000000000E+00 0. -1.
         21   -1    0    0  502  503 -0.00000000000E+00 -0.00000000000E+00 -0.11173839648E+03  0.11173839648E+03  0.00000000000E+00 0. -1.
         -6    2    1    2    0  503 -0.18764199616E+03  0.20992756984E+01  0.21141388616E+03  0.33040839931E+03  0.17105541030E+03 0.  0.
        -24    2    3    3    0    0 -0.65741501893E+02 -0.60417432171E+01  0.24635617676E+02  0.10717260857E+03  0.80750273295E+02 0.  0.
          6    2    1    2  501    0  0.18764199616E+03 -0.20992756984E+01  0.25562115030E+03  0.36010343011E+03  0.17064109181E+03 0.  0.
         24    2    5    5    0    0  0.14887535467E+03  0.32503372412E+02  0.25523864272E+03  0.30792649976E+03  0.80322002425E+02 0.  0.
          5    1    5    5  501    0  0.38766641493E+02 -0.34602648111E+02  0.38250758857E+00  0.52176930352E+02  0.47000000000E+01 0. -1.
        -11    1    6    6    0    0  0.25625604013E+02  0.23069404334E+02  0.14694554891E+02  0.37480647550E+02  0.00000000000E+00 0.  1.
         12    1    6    6    0    0  0.12324975066E+03  0.94339680788E+01  0.24054408782E+03  0.27044585221E+03  0.00000000000E+00 0. -1.
         -5    1    3    3    0  503 -0.12190049427E+03  0.81410189155E+01  0.18677826848E+03  0.22323579074E+03  0.47000000000E+01 0.  1.
         13    1    4    4    0    0 -0.81380751427E+02 -0.19322307337E+02  0.21989705314E+02  0.86485405725E+02  0.00000000000E+00 0. -1.
        -14    1    4    4    0    0  0.15639249534E+02  0.13280564119E+02  0.26459123625E+01  0.20687202845E+02  0.00000000000E+00 0.  1.
</event>
<event>
12    1  0.8461994E-002  0.1974065E+03  0.7818608E-02  0.1152168E+00
         21   -1    0    0  503  502  0.00000000000E+00  0.00000000000E+00  0.35161035518E+03  0.35161035518E+03  0.00000000000E+00 0.  1.
         21   -1    0    0  501  503 -0.00000000000E+00 -0.00000000000E+00 -0.13983247186E+03  0.13983247186E+03  0.00000000000E+00 0.  1.
          6    2    1    2  501    0  0.63525713838E+01  0.93391566801E+02 -0.73453479517E+01  0.19651177199E+03  0.17262845212E+03 0.  0.
         24    2    3    3    0    0  0.45926100154E+02  0.11022983632E+03  0.20106319998E+02  0.14527432892E+03  0.80252994012E+02 0.  0.
         -6    2    1    2    0  502 -0.63525713838E+01 -0.93391566801E+02  0.21912323127E+03  0.29493105505E+03  0.17380160195E+03 0.  0.
        -24    2    5    5    0    0  0.66658964297E+02 -0.60459785266E+02  0.13614254480E+03  0.17950544739E+03  0.74757006239E+02 0.  0.
          5    1    3    3  501    0 -0.39573528770E+02 -0.16838269517E+02 -0.27451667950E+02  0.51237443075E+02  0.47000000000E+01 0. -1.
        -11    1    4    4    0    0  0.24957784571E+02  0.88635573338E+02  0.48345084452E+02  0.10400193778E+03  0.00000000000E+00 0.  1.
         12    1    4    4    0    0  0.20968315583E+02  0.21594262981E+02 -0.28238764454E+02  0.41272391134E+02  0.00000000000E+00 0. -1.
         -5    1    5    5    0  502 -0.73011535680E+02 -0.32931781535E+02  0.82980686466E+02  0.11542560766E+03  0.47000000000E+01 0.  1.
         13    1    6    6    0    0  0.44114421557E+02 -0.77144931622E+02  0.10624301194E+03  0.13850992835E+03  0.00000000000E+00 0. -1.
        -14    1    6    6    0    0  0.22544542740E+02  0.16685146356E+02  0.29899532861E+02  0.40995519043E+02  0.00000000000E+00 0.  1.
</event>
<event>
12    1  0.8461994E-002  0.2091202E+03  0.7818608E-02  0.1142374E+00
         21   -1    0    0  501  502  0.00000000000E+00  0.00000000000E+00  0.18954763445E+03  0.18954763445E+03  0.00000000000E+00 0. -1.
         21   -1    0    0  502  503 -0.00000000000E+00 -0.00000000000E+00 -0.27402851869E+03  0.27402851869E+03  0.00000000000E+00 0.  1.
         -6    2    1    2    0  503 -0.26172798965E+02 -0.11787524016E+03  0.50599640751E+02  0.21462231602E+03  0.17006712570E+03 0.  0.
        -24    2    3    3    0    0  0.38718073756E+02 -0.55315676780E+02  0.63993910499E+02  0.12337528432E+03  0.81039045326E+02 0.  0.
          6    2    1    2  501    0  0.26172798965E+02  0.11787524016E+03 -0.13508052499E+03  0.24895383711E+03  0.17073862226E+03 0.  0.
         24    2    5    5    0    0  0.83113136463E+02  0.73324145396E+02 -0.95067430655E+02  0.16618826578E+03  0.79350485582E+02 0.  0.
          5    1    5    5  501    0 -0.56940337497E+02  0.44551094760E+02 -0.40013094335E+02  0.82765571326E+02  0.47000000000E+01 0. -1.
        -11    1    6    6    0    0 -0.15387315272E+02  0.16015655033E+02 -0.18383709968E+02  0.28831085127E+02  0.00000000000E+00 0.  1.
         12    1    6    6    0    0  0.98500451735E+02  0.57308490363E+02 -0.76683720688E+02  0.13735718066E+03  0.00000000000E+00 0. -1.
         -5    1    3    3    0  503 -0.64890872722E+02 -0.62559563376E+02 -0.13394269748E+02  0.91247031702E+02  0.47000000000E+01 0.  1.
         13    1    4    4    0    0  0.13487913844E+02 -0.44619976408E+02  0.79300885725E+02  0.91986393512E+02  0.00000000000E+00 0. -1.
        -14    1    4    4    0    0  0.25230159913E+02 -0.10695700373E+02 -0.15306975226E+02  0.31388890810E+02  0.00000000000E+00 0.  1.
</event>
<event>
12    1  0.8461994E-002  0.1930284E+03  0.7818608E-02  0.1155803E+00
         21   -1    0    0  503  502  0.00000000000E+00  0.00000000000E+00  0.22234679917E+03  0.22234679917E+03  0.00000000000E+00 0. -1.
         21   -1    0    0  501  503 -0.00000000000E+00 -0.00000000000E+00 -0.68984636857E+03  0.68984636857E+03  0.00000000000E+00 0. -1.
          6    2    1    2  501    0 -0.29488279494E+02  0.81905953057E+02 -0.63069807593E+03  0.65957564105E+03  0.17228412435E+03 0.  0.
         24    2    3    3    0    0  0.18341834269E+02  0.89587665653E+02 -0.56409954129E+03  0.57708816740E+03  0.80374671109E+02 0.  0.
         -6    2    1    2    0  502  0.29488279494E+02 -0.81905953057E+02  0.16319850654E+03  0.25261752669E+03  0.17205731163E+03 0.  0.
        -24    2    5    5    0    0  0.50555177525E+02 -0.34585170656E+02  0.17271117416E+03  0.19974360604E+03  0.79475772848E+02 0.  0.
          5    1    3    3  501    0 -0.47830113763E+02 -0.76817125969E+01 -0.66598534646E+02  0.82487473643E+02  0.47000000000E+01 0. -1.
        -13    1    4    4    0    0  0.30849869904E+00 -0.29666097116E+01 -0.22778871865E+03  0.22780824456E+03  0.00000000000E+00 0.  1.
         14    1    4    4    0    0  0.18033335570E+02  0.92554275365E+02 -0.33631082264E+03  0.34927992284E+03  0.00000000000E+00 0. -1.
         -5    1    5    5    0  502 -0.21066898031E+02 -0.47320782400E+02 -0.95126676288E+01  0.52873920651E+02  0.47000000000E+01 0.  1.
         11    1    6    6    0    0  0.34494860501E+02 -0.42878427877E+02  0.45928729111E+02  0.71679168075E+02  0.00000000000E+00 0. -1.
        -12    1    6    6    0    0  0.16060317024E+02  0.82932572205E+01  0.12678244505E+03  0.12806443797E+03  0.00000000000E+00 0.  1.
</event>
<event>
12    1  0.8461994E-002  0.2090291E+03  0.7818608E-02  0.1142757E+00
         21   -1    0    0  501  502  0.00000000000E+00  0.00000000000E+00  0.97652962573E+03  0.97652962573E+03  0.00000000000E+00 0.  1.
         21   -1    0    0  502  503 -0.00000000000E+00 -0.00000000000E+00 -0.44561902286E+02  0.44561902286E+02  0.00000000000E+00 0.  1.
         -6    2    1    2    0  503 -0.36740947836E+02 -0.11309164212E+03  0.50314875043E+03  0.54403926683E+03  0.16935301011E+03 0.  0.
        -24    2    3    3    0    0 -0.82650801752E+02 -0.89663837442E+02  0.42470493358E+03  0.45006001848E+03  0.85492577780E+02 0.  0.
          6    2    1    2  501    0  0.36740947836E+02  0.11309164212E+03  0.42881897302E+03  0.47705226119E+03  0.17191140602E+03 0.  0.
         24    2    5    5    0    0  0.51008681376E+02  0.22902931510E+02  0.31867286566E+03  0.33390259578E+03  0.82535557854E+02 0.  0.
          5    1    5    5  501    0 -0.14267733540E+02  0.90188710606E+02  0.11014610736E+03  0.14314966541E+03  0.47000000000E+01 0. -1.
        -13    1    6    6    0    0  0.16094025863E+02  0.50525828508E+02  0.20695924151E+03  0.21364457555E+03  0.00000000000E+00 0.  1.
         14    1    6    6    0    0  0.34914655513E+02 -0.27622896998E+02  0.11171362415E+03  0.12025802022E+03  0.00000000000E+00 0. -1.
         -5    1    3    3    0  503  0.45909853915E+02 -0.23427804673E+02  0.78443816847E+02  0.93979248347E+02  0.47000000000E+01 0.  1.
         13    1    4    4    0    0 -0.33694760349E+02 -0.44420079802E+00  0.40909651570E+02  0.53001262069E+02  0.00000000000E+00 0. -1.
        -14    1    4    4    0    0 -0.48956041403E+02 -0.89219636644E+02  0.38379528201E+03  0.39705875641E+03  0.00000000000E+00 0.  1.
</event>
<event>
12    1  0.8461994E-002  0.2835080E+03  0.7818608E-02  0.1093881E+00
         21   -1    0    0  503  502  0.00000000000E+00  0.00000000000E+00  0.73848856771E+03  0.73848856771E+03  0.00000000000E+00 0.  1.
         21   -1    0    0  501  503 -0.00000000000E+00 -0.00000000000E+00 -0.12911220921E+03  0.12911220921E+03  0.00000000000E+00 0.  1.
          6    2    1    2  501    0  0.16939882803E+03  0.14870950302E+03  0.13198434738E+03  0.31272453615E+03  0.17194850488E+03 0.  0.
         24    2    3    3    0    0  0.10101201133E+03  0.14505450220E+03  0.14542254760E+03  0.24277604828E+03  0.80921302683E+02 0.  0.
         -6    2    1    2    0  502 -0.16939882803E+03 -0.14870950302E+03  0.47739201112E+03  0.55487624077E+03  0.17080407215E+03 0.  0.
        -24    2    5    5    0    0 -0.15558539751E+03 -0.17658230631E+03  0.39569148218E+03  0.46732756599E+03  0.80219561514E+02 0.  0.
          5    1    3    3  501    0  0.68386816700E+02  0.36550008167E+01 -0.13438200217E+02  0.69948487864E+02  0.47000000000E+01 0. -1.
        -11    1    4    4    0    0  0.32208609650E+02  0.62024595978E+02  0.11486833629E+02  0.70826494962E+02  0.00000000000E+00 0.  1.
         12    1    4    4    0    0  0.68803401680E+02  0.83029906221E+02  0.13393571397E+03  0.17194955332E+03  0.00000000000E+00 0. -1.
         -5    1    5    5    0  502 -0.13813430523E+02  0.27872803289E+02  0.81700528945E+02  0.87548674781E+02  0.47000000000E+01 0.  1.
         11    1    6    6    0    0 -0.68733175372E+02 -0.47953748302E+02  0.81548512571E+02  0.11693575704E+03  0.00000000000E+00 0. -1.
        -12    1    6    6    0    0 -0.86852222135E+02 -0.12862855800E+03  0.31414296960E+03  0.35039180895E+03  0.00000000000E+00 0.  1.
</event>
<event>
12    1  0.8461994E-002  0.1844654E+03  0.7818608E-02  0.1163908E+00
         21   -1    0    0  503  502  0.00000000000E+00  0.00000000000E+00  0.25971741863E+03  0.25971741863E+03  0.00000000000E+00 0.  1.
         21   -1    0    0  501  503 -0.00000000000E+00 -0.00000000000E+00 -0.14535961047E+03  0.14535961047E+03  0.00000000000E+00 0. -1.
          6    2    1    2  501    0 -0.61229310772E+02 -0.31062234103E+02  0.12293413761E+03  0.22041236450E+03  0.16957274943E+03 0.  0.
         24    2    3    3    0    0 -0.58972311957E+02 -0.79312356184E+02  0.60364583081E+02  0.14122772282E+03  0.80828233806E+02 0.  0.
         -6    2    1    2    0  502  0.61229310772E+02  0.31062234103E+02 -0.85763294547E+01  0.18466466460E+03  0.17121213170E+03 0.  0.
        -24    2    5    5    0    0  0.12595274416E+02 -0.46111278010E+02 -0.31727200287E+01  0.93164339692E+02  0.79903924438E+02 0.  0.
          5    1    3    3  501    0 -0.22569988149E+01  0.48250122081E+02  0.62569554528E+02  0.79184641682E+02  0.47000000000E+01 0. -1.
        -11    1    4    4    0    0 -0.25050485160E+02 -0.84964594728E+02  0.59721094294E+02  0.10683219677E+03  0.00000000000E+00 0.  1.
         12    1    4    4    0    0 -0.33921826797E+02  0.56522385438E+01  0.64348878687E+00  0.34395526041E+02  0.00000000000E+00 0. -1.
         -5    1    5    5    0  502  0.48634036356E+02  0.77173512113E+02 -0.54036094260E+01  0.91500324912E+02  0.47000000000E+01 0.  1.
         11    1    6    6    0    0  0.33468636292E+02 -0.23505339658E+02  0.27842665352E+02  0.49475899401E+02  0.00000000000E+00 0. -1.
        -12    1    6    6    0    0 -0.20873361876E+02 -0.22605938352E+02 -0.31015385380E+02  0.43688440291E+02  0.00000000000E+00 0.  1.
</event>
<event>
12    1  0.8461994E-002  0.2082637E+03  0.7818608E-02  0.1143696E+00
         21   -1    0    0  503  502  0.00000000000E+00  0.00000000000E+00  0.34499626281E+03  0.34499626281E+03  0.00000000000E+00 0. -1.
         21   -1    0    0  501  503 -0.00000000000E+00 -0.00000000000E+00 -0.25563310909E+03  0.25563310909E+03  0.00000000000E+00 0. -1.
          6    2    1    2  501    0  0.39732567820E+02 -0.10198878934E+03 -0.17103205837E+03  0.26949160736E+03  0.17718174665E+03 0.  0.
         24    2    3    3    0    0  0.57448118030E+02 -0.12840457639E+03 -0.97205907092E+02  0.18896816271E+03  0.80448471972E+02 0.  0.
         -6    2    1    2    0  502 -0.39732567820E+02  0.10198878934E+03  0.26039521209E+03  0.33113776454E+03  0.17281829340E+03 0.  0.
        -24    2    5    5    0    0 -0.16774774243E+02  0.33869277950E+02  0.24008832022E+03  0.25629267135E+03  0.81332716923E+02 0.  0.
          5    1    3    3  501    0 -0.17715550211E+02  0.26415787046E+02 -0.73826151281E+02  0.80523444645E+02  0.47000000000E+01 0. -1.
        -11    1    4    4    0    0 -0.18710833916E+02 -0.12166080422E+02 -0.20147080841E+02  0.30066820335E+02  0.00000000000E+00 0.  1.
         12    1    4    4    0    0  0.76158951946E+02 -0.11623849596E+03 -0.77058826251E+02  0.15890134238E+03  0.00000000000E+00 0. -1.
         -5    1    5    5    0  502 -0.22957793576E+02  0.68119511391E+02  0.20306891869E+02  0.74845093195E+02  0.47000000000E+01 0.  1.
         11    1    6    6    0    0  0.15452087754E+02  0.45203245306E+02  0.85171254883E+02  0.97653689436E+02  0.00000000000E+00 0. -1.
        -12    1    6    6    0    0 -0.32226861997E+02 -0.11333967356E+02  0.15491706533E+03  0.15863898191E+03  0.00000000000E+00 0.  1.
</event>
<event>
12    1  0.8461994E-002  0.1743280E+03  0.7818608E-02  0.1173842E+00
         21   -1    0    0  503  502  0.00000000000E+00  0.00000000000E+00  0.26867626135E+02  0.26867626135E+02  0.00000000000E+00 0.  1.
         21   -1    0    0  501  503 -0.00000000000E+00 -0.00000000000E+00 -0.11237068122E+04  0.11237068122E+04  0.00000000000E+00 0.  1.
          6    2    1    2  501    0 -0.11205459580E+02  0.22360557803E+02 -0.51287222416E+03  0.54114219861E+03  0.17079638150E+03 0.  0.
         24    2    3    3    0    0 -0.54340159001E+00 -0.62913387867E+01 -0.50198499382E+03  0.50835146146E+03  0.79952474093E+02 0.  0.
         -6    2    1    2    0  502  0.11205459580E+02 -0.22360557803E+02 -0.58396696187E+03  0.60943223969E+03  0.17252444855E+03 0.  0.
        -24    2    5    5    0    0  0.10920040880E+02  0.28371286148E+02 -0.15209560908E+03  0.17456587307E+03  0.80099891194E+02 0.  0.
          5    1    3    3  501    0 -0.10662057990E+02  0.28651896590E+02 -0.10887230341E+02  0.32790737157E+02  0.47000000000E+01 0. -1.
        -11    1    4    4    0    0  0.14586897450E+02  0.21608241238E+02 -0.41394859663E+03  0.41476877211E+03  0.00000000000E+00 0.  1.
         12    1    4    4    0    0 -0.15130299040E+02 -0.27899580025E+02 -0.88036397195E+02  0.93582689348E+02  0.00000000000E+00 0. -1.
         -5    1    5    5    0  502  0.28541870018E+00 -0.50731843952E+02 -0.43187135279E+03  0.43486636662E+03  0.47000000000E+01 0.  1.
         13    1    6    6    0    0  0.35495720753E+01 -0.56163653109E+01 -0.13614126168E+03  0.13630328739E+03  0.00000000000E+00 0. -1.
        -14    1    6    6    0    0  0.73704688046E+01  0.33987651459E+02 -0.15954347400E+02  0.38262585682E+02  0.00000000000E+00 0.  1.
</event>
<event>
12    1  0.8461994E-002  0.1827468E+03  0.7818608E-02  0.1165364E+00
         21   -1    0    0  503  502  0.00000000000E+00  0.00000000000E+00  0.10169135624E+03  0.10169135624E+03  0.00000000000E+00 0.  1.
         21   -1    0    0  501  503 -0.00000000000E+00 -0.00000000000E+00 -0.49177190960E+03  0.49177190960E+03  0.00000000000E+00 0. -1.
          6    2    1    2  501    0  0.57590411504E+02  0.14796523854E+02 -0.36711694431E+03  0.41008685722E+03  0.17280274029E+03 0.  0.
         24    2    3    3    0    0  0.10608105662E+03  0.47126892192E+01 -0.24949388529E+03  0.28237507078E+03  0.78823104391E+02 0.  0.
         -6    2    1    2    0  502 -0.57590411504E+02 -0.14796523854E+02 -0.22963609049E+02  0.18337640861E+03  0.17194181365E+03 0.  0.
        -24    2    5    5    0    0 -0.83037656687E+02  0.91718316379E+00 -0.65114835812E+02  0.13147940684E+03  0.78427029312E+02 0.  0.
          5    1    3    3  501    0 -0.48490645112E+02  0.10083834635E+02 -0.11762305902E+03  0.12771178644E+03  0.47000000000E+01 0. -1.
        -13    1    4    4    0    0  0.57180416371E+02 -0.14419047548E+02 -0.54026031868E+02  0.79977003370E+02  0.00000000000E+00 0.  1.
         14    1    4    4    0    0  0.48900640245E+02  0.19131736768E+02 -0.19546785343E+03  0.20239806741E+03  0.00000000000E+00 0. -1.
         -5    1    5    5    0  502  0.25447245184E+02 -0.15713707018E+02  0.42151226763E+02  0.51897001775E+02  0.47000000000E+01 0.  1.
         11    1    6    6    0    0 -0.87791261925E+02 -0.10043801754E+02 -0.75055326648E+02  0.11593742141E+03  0.00000000000E+00 0. -1.
        -12    1    6    6    0    0  0.47536052375E+01  0.10960984917E+02  0.99404908363E+01  0.15541985432E+02  0.00000000000E+00 0.  1.
</event>
<event>
12    1  0.8461994E-002  0.2969999E+03  0.7818608E-02  0.1086774E+00
         21   -1    0    0  503  502  0.00000000000E+00  0.00000000000E+00  0.56108456720E+03  0.56108456720E+03  0.00000000000E+00 0.  1.
         21   -1    0    0  501  503 -0.00000000000E+00 -0.00000000000E+00 -0.16090935977E+03  0.16090935977E+03  0.00000000000E+00 0. -1.
          6    2    1    2  501    0 -0.20748504203E+03  0.12556580438E+03  0.14456268313E+03  0.33014358523E+03  0.17111283885E+03 0.  0.
         24    2    3    3    0    0 -0.20351978613E+03  0.81353265891E+02  0.70295176374E+02  0.24349357441E+03  0.79429539487E+02 0.  0.
         -6    2    1    2    0  502  0.20748504203E+03 -0.12556580438E+03  0.25561252429E+03  0.39185034173E+03  0.17144128396E+03 0.  0.
        -24    2    5    5    0    0  0.46315610956E+02 -0.93046861956E+02  0.13496701698E+03  0.18786383344E+03  0.79207764180E+02 0.  0.
          5    1    3    3  501    0 -0.39652558995E+01  0.44212538490E+02  0.74267506760E+02  0.86650010816E+02  0.47000000000E+01 0. -1.
        -13    1    4    4    0    0 -0.11783706843E+03  0.51571104322E+02  0.81223882998E+02  0.15212650218E+03  0.00000000000E+00 0.  1.
         14    1    4    4    0    0 -0.85682717694E+02  0.29782161569E+02 -0.10928706624E+02  0.91367072228E+02  0.00000000000E+00 0. -1.
         -5    1    5    5    0  502  0.16116943107E+03 -0.32518942425E+02  0.12064550732E+03  0.20398650829E+03  0.47000000000E+01 0.  1.
         13    1    6    6    0    0  0.54385425450E+01  0.11815809428E+02  0.12223418614E+01  0.13064655261E+02  0.00000000000E+00 0. -1.
        -14    1    6    6    0    0  0.40877068411E+02 -0.10486267138E+03  0.13374467512E+03  0.17479917818E+03  0.00000000000E+00 0.  1.
</event>
<event>
12    1  0.8461994E-002  0.1945897E+03  0.7818608E-02  0.1154512E+00
         21   -1    0    0  501  502  0.00000000000E+00  0.00000000000E+00  0.96528893409E+02  0.96528893409E+02  0.00000000000E+00 0. -1.
         21   -1    0    0  502  503 -0.00000000000E+00 -0.00000000000E+00 -0.39129497585E+03  0.39129497585E+03  0.00000000000E+00 0. -1.
         -6    2    1    2    0  503 -0.88724585694E+02 -0.19395995779E+02 -0.15259330787E+03  0.24682960506E+03  0.17144060070E+03 0.  0.
        -24    2    3    3    0    0 -0.39693281054E+02  0.15885967824E+02 -0.98327179501E+01  0.91743945420E+02  0.80575111818E+02 0.  0.
          6    2    1    2  501    0  0.88724585694E+02  0.19395995779E+02 -0.14217277457E+03  0.24099426420E+03  0.17209555715E+03 0.  0.
         24    2    5    5    0    0 -0.10114755770E+02  0.12750224956E+02 -0.21769842290E+02  0.85006002488E+02  0.80543267285E+02 0.  0.
          5    1    5    5  501    0  0.98839341464E+02  0.66457708237E+01 -0.12040293228E+03  0.15598826171E+03  0.47000000000E+01 0. -1.
        -11    1    6    6    0    0 -0.22728346548E+02  0.22982884124E+02 -0.45766058922E+02  0.56029660438E+02  0.00000000000E+00 0.  1.
         12    1    6    6    0    0  0.12613590778E+02 -0.10232659169E+02  0.23996216632E+02  0.28976342051E+02  0.00000000000E+00 0. -1.
         -5    1    3    3    0  503 -0.49031304640E+02 -0.35281963603E+02 -0.14276058992E+03  0.15508565964E+03  0.47000000000E+01 0.  1.
         13    1    4    4    0    0  0.56334161794E+01 -0.16297450445E+01  0.28970900394E+02  0.29558493135E+02  0.00000000000E+00 0. -1.
        -14    1    4    4    0    0 -0.45326697233E+02  0.17515712869E+02 -0.38803618344E+02  0.62185452285E+02  0.00000000000E+00 0.  1.
</event>
<event>
12    1  0.8461994E-002  0.1991055E+03  0.7818608E-02  0.1150612E+00
         21   -1    0    0  503  502  0.00000000000E+00  0.00000000000E+00  0.69707002796E+02  0.69707002796E+02  0.00000000000E+00 0.  1.
         21   -1    0    0  501  503 -0.00000000000E+00 -0.00000000000E+00 -0.67109146922E+03  0.67109146922E+03  0.00000000000E+00 0. -1.
          6    2    1    2  501    0 -0.97268713743E+02 -0.24342365225E+02 -0.44611440283E+03  0.48830732280E+03  0.17138327711E+03 0.  0.
         24    2    3    3    0    0 -0.10221759896E+03 -0.56264462947E+02 -0.43082037336E+03  0.45225861790E+03  0.72921437396E+02 0.  0.
         -6    2    1    2    0  502  0.97268713743E+02  0.24342365225E+02 -0.15527006359E+03  0.25249114921E+03  0.17201521550E+03 0.  0.
        -24    2    5    5    0    0  0.57783794131E+02  0.73158350206E+02 -0.58872264668E+02  0.13735347117E+03  0.81908005877E+02 0.  0.
          5    1    3    3  501    0  0.49488852183E+01  0.31922097723E+02 -0.15294029469E+02  0.36048704905E+02  0.47000000000E+01 0. -1.
        -13    1    4    4    0    0 -0.92524657400E+02 -0.28963576544E+02 -0.23357668894E+03  0.25289873588E+03  0.00000000000E+00 0.  1.
         14    1    4    4    0    0 -0.96929415615E+01 -0.27300886404E+02 -0.19724368442E+03  0.19935988202E+03  0.00000000000E+00 0. -1.
         -5    1    5    5    0  502  0.39484919612E+02 -0.48815984982E+02 -0.96397798924E+02  0.11513767804E+03  0.47000000000E+01 0.  1.
         13    1    6    6    0    0  0.41067042190E+02  0.11892836307E+02 -0.60196218640E+02  0.73834451635E+02  0.00000000000E+00 0. -1.
        -14    1    6    6    0    0  0.16716751941E+02  0.61265513900E+02  0.13239539720E+01  0.63519019537E+02  0.00000000000E+00 0.  1.
</event>
<event>
12    1  0.8461994E-002  0.2463319E+03  0.7818608E-02  0.1115930E+00
         21   -1    0    0  503  502  0.00000000000E+00  0.00000000000E+00  0.29592975199E+02  0.29592975199E+02  0.00000000000E+00 0.  1.
         21   -1    0    0  501  503 -0.00000000000E+00 -0.00000000000E+00 -0.20369376142E+04  0.20369376142E+04  0.00000000000E+00 0. -1.
          6    2    1    2  501    0 -0.13392423951E+03  0.11048016464E+03 -0.10312872718E+04  0.10602984621E+04  0.17475074552E+03 0.  0.
         24    2    3    3    0    0 -0.84572976575E+01  0.25175660667E+01 -0.32486718404E+03  0.33473019751E+03  0.80173273852E+02 0.  0.
         -6    2    1    2    0  502  0.13392423951E+03 -0.11048016464E+03 -0.97605736716E+03  0.10062321272E+04  0.17226009759E+03 0.  0.
        -24    2    5    5    0    0  0.87324644343E+02  0.34766502499E+01 -0.38690909344E+03  0.40433890055E+03  0.78445008131E+02 0.  0.
          5    1    3    3  501    0 -0.12546694185E+03  0.10796259858E+03 -0.70642008776E+03  0.72556826459E+03  0.47000000000E+01 0. -1.
        -13    1    4    4    0    0 -0.13296776608E+02  0.38794434370E+02 -0.12546662816E+03  0.13199881510E+03  0.00000000000E+00 0.  1.
         14    1    4    4    0    0  0.48394789504E+01 -0.36276868303E+02 -0.19940055588E+03  0.20273138241E+03  0.00000000000E+00 0. -1.
         -5    1    5    5    0  502  0.46599595164E+02 -0.11395681489E+03 -0.58914827371E+03  0.60189322670E+03  0.47000000000E+01 0.  1.
         11    1    6    6    0    0  0.73583853831E+02 -0.39592727995E+01 -0.38030184793E+03  0.38737547021E+03  0.00000000000E+00 0. -1.
        -12    1    6    6    0    0  0.13740790511E+02  0.74359230494E+01 -0.66072455182E+01  0.16963430337E+02  0.00000000000E+00 0.  1.
</event>
<event>
12    1  0.8461994E-002  0.2014926E+03  0.7818608E-02  0.1148622E+00
         21   -1    0    0  503  502  0.00000000000E+00  0.00000000000E+00  0.49346960522E+02  0.49346960522E+02  0.00000000000E+00 0.  1.
         21   -1    0    0  501  503 -0.00000000000E+00 -0.00000000000E+00 -0.97397452975E+03  0.97397452975E+03  0.00000000000E+00 0.  1.
          6    2    1    2  501    0  0.10397398234E+03 -0.14398584464E+02 -0.66632971331E+03  0.69612826007E+03  0.17199232364E+03 0.  0.
         24    2    3    3    0    0  0.19872089121E+02  0.33311349204E+02 -0.19389550419E+03  0.21387776691E+03  0.81508813745E+02 0.  0.
         -6    2    1    2    0  502 -0.10397398234E+03  0.14398584464E+02 -0.25829785591E+03  0.32719323020E+03  0.17123001863E+03 0.  0.
        -24    2    5    5    0    0 -0.31916829111E+02 -0.49078284162E+02 -0.16994405184E+03  0.19661746339E+03  0.79687415559E+02 0.  0.
          5    1    3    3  501    0  0.84101893224E+02 -0.47709933668E+02 -0.47243420912E+03  0.48225049316E+03  0.47000000000E+01 0. -1.
        -11    1    4    4    0    0  0.26547597066E+02 -0.11088339088E+02 -0.14361493378E+03  0.14646834258E+03  0.00000000000E+00 0.  1.
         12    1    4    4    0    0 -0.66755079449E+01  0.44399688291E+02 -0.50280570415E+02  0.67409424326E+02  0.00000000000E+00 0. -1.
         -5    1    5    5    0  502 -0.72057153234E+02  0.63476868626E+02 -0.88353804078E+02  0.13057576681E+03  0.47000000000E+01 0.  1.
         11    1    6    6    0    0  0.24756403343E+02 -0.30329525168E+02 -0.69937944635E+02  0.80150331897E+02  0.00000000000E+00 0. -1.
        -12    1    6    6    0    0 -0.56673232454E+02 -0.18748758994E+02 -0.10000610720E+03  0.11646713149E+03  0.00000000000E+00 0.  1.
</event>
<event>
12    1  0.8461994E-002  0.2634617E+03  0.7818608E-02  0.1105277E+00
         21   -1    0    0  503  502  0.00000000000E+00  0.00000000000E+00  0.78121707242E+02  0.78121707242E+02  0.00000000000E+00 0. -1.
         21   -1    0    0  501  503 -0.00000000000E+00 -0.00000000000E+00 -0.94844917305E+03  0.94844917305E+03  0.00000000000E+00 0. -1.
          6    2    1    2  501    0  0.27396791831E+02 -0.19841946039E+03 -0.56787993246E+03  0.62546418449E+03  0.16910636276E+03 0.  0.
         24    2    3    3    0    0  0.63265857361E+02 -0.20211279386E+03 -0.49942141892E+03  0.54794716281E+03  0.77279941788E+02 0.  0.
         -6    2    1    2    0  502 -0.27396791831E+02  0.19841946039E+03 -0.30244753335E+03  0.40110669581E+03  0.17114673390E+03 0.  0.
        -24    2    5    5    0    0 -0.10344156903E+02  0.15029863603E+03 -0.11249768899E+03  0.20435954979E+03  0.80065060952E+02 0.  0.
          5    1    3    3  501    0 -0.35869065530E+02  0.36933334768E+01 -0.68458513536E+02  0.77517021677E+02  0.47000000000E+01 0. -1.
        -11    1    4    4    0    0  0.29570809347E+02 -0.23133807670E+02 -0.14094536848E+03  0.14586021636E+03  0.00000000000E+00 0.  1.
         12    1    4    4    0    0  0.33695048014E+02 -0.17897898619E+03 -0.35847605045E+03  0.40208694645E+03  0.00000000000E+00 0. -1.
         -5    1    5    5    0  502 -0.17052634928E+02  0.48120824356E+02 -0.18994984436E+03  0.19674714602E+03  0.47000000000E+01 0.  1.
         11    1    6    6    0    0  0.22295047921E+02  0.12923293821E+03 -0.93882407399E+02  0.16128275760E+03  0.00000000000E+00 0. -1.
        -12    1    6    6    0    0 -0.32639204824E+02  0.21065697823E+02 -0.18615281595E+02  0.43076792187E+02  0.00000000000E+00 0.  1.
</event>
<event>
12    1  0.8461994E-002  0.2317035E+03  0.7818608E-02  0.1126761E+00
         21   -1    0    0  501  502  0.00000000000E+00  0.00000000000E+00  0.27730724442E+03  0.27730724442E+03  0.00000000000E+00 0. -1.
         21   -1    0    0  502  503 -0.00000000000E+00 -0.00000000000E+00 -0.99315797234E+03  0.99315797234E+03  0.00000000000E+00 0. -1.
         -6    2    1    2    0  503 -0.12889065863E+03 -0.84507080419E+02 -0.92896407709E+03  0.95565764915E+03  0.16295102743E+03 0.  0.
        -24    2    3    3    0    0 -0.75644605819E+02  0.98322229158E+01 -0.58176839359E+03  0.59192425924E+03  0.78109448246E+02 0.  0.
          6    2    1    2  501    0  0.12889065863E+03  0.84507080419E+02  0.21311334917E+03  0.31480756760E+03  0.17300941161E+03 0.  0.
         24    2    5    5    0    0  0.85479820037E+02  0.11170066640E+03  0.20788791136E+03  0.26310275907E+03  0.78878638615E+02 0.  0.
          5    1    5    5  501    0  0.43410838594E+02 -0.27193585977E+02  0.52254378014E+01  0.51704808538E+02  0.47000000000E+01 0. -1.
        -13    1    6    6    0    0  0.54927524008E+02  0.98808728631E+02  0.10242260879E+03  0.15254700436E+03  0.00000000000E+00 0.  1.
         14    1    6    6    0    0  0.30552296029E+02  0.12891937766E+02  0.10546530257E+03  0.11055575471E+03  0.00000000000E+00 0. -1.
         -5    1    3    3    0  503 -0.53246052812E+02 -0.94339303335E+02 -0.34719568350E+03  0.36373338991E+03  0.47000000000E+01 0.  1.
         11    1    4    4    0    0 -0.76716227656E+02  0.11775573379E+02 -0.29175400468E+03  0.30190137953E+03  0.00000000000E+00 0. -1.
        -12    1    4    4    0    0  0.10716218374E+01 -0.19433504632E+01 -0.29001438891E+03  0.29002287971E+03  0.00000000000E+00 0.  1.
</event>
<event>
12    1  0.8461994E-002  0.1781820E+03  0.7818608E-02  0.1170153E+00
         21   -1    0    0  503  502  0.00000000000E+00  0.00000000000E+00  0.16105591639E+03  0.16105591639E+03  0.00000000000E+00 0.  1.
         21   -1    0    0  501  503 -0.00000000000E+00 -0.00000000000E+00 -0.22001345903E+03  0.22001345903E+03  0.00000000000E+00 0.  1.
          6    2    1    2  501    0  0.40563823606E+02  0.38408854214E+01 -0.94474785398E+02  0.20167876605E+03  0.17346084116E+03 0.  0.
         24    2    3    3    0    0  0.88232292218E+02 -0.10236511491E+02 -0.35544844714E+02  0.12444351560E+03  0.79580330683E+02 0.  0.
         -6    2    1    2    0  502 -0.40563823606E+02 -0.38408854214E+01  0.35517242764E+02  0.17939060937E+03  0.17105361735E+03 0.  0.
        -24    2    5    5    0    0 -0.49018691221E+02 -0.64426315883E+02  0.26207918626E+02  0.11733553152E+03  0.80791024815E+02 0.  0.
          5    1    3    3  501    0 -0.47668468612E+02  0.14077396912E+02 -0.58929940684E+02  0.77235250454E+02  0.47000000000E+01 0. -1.
        -11    1    4    4    0    0  0.39113921903E+02  0.31451850935E+02  0.13372006920E+01  0.50208623956E+02  0.00000000000E+00 0.  1.
         12    1    4    4    0    0  0.49118370315E+02 -0.41688362425E+02 -0.36882045406E+02  0.74234891644E+02  0.00000000000E+00 0. -1.
         -5    1    5    5    0  502  0.84548676158E+01  0.60585430462E+02  0.93093241384E+01  0.62055077847E+02  0.47000000000E+01 0.  1.
         13    1    6    6    0    0  0.15163767462E+02 -0.27987040148E+02  0.29580018988E+02  0.43453328793E+02  0.00000000000E+00 0. -1.
        -14    1    6    6    0    0 -0.64182458683E+02 -0.36439275736E+02 -0.33721003623E+01  0.73882202726E+02  0.00000000000E+00 0.  1.
</event>
<event>
12    1  0.8461994E-002  0.1863374E+03  0.7818608E-02  0.1162152E+00
         21   -1    0    0  501  502  0.00000000000E+00  0.00000000000E+00  0.75390117333E+03  0.75390117333E+03  0.00000000000E+00 0. -1.
         21   -1    0    0  502  503 -0.00000000000E+00 -0.00000000000E+00 -0.13433333732E+03  0.13433333732E+03  0.00000000000E+00 0. -1.
         -6    2    1    2    0  503 -0.52224923297E+02 -0.35663288319E+02 -0.51408224390E+02  0.19186499146E+03  0.17369529834E+03 0.  0.
        -24    2    3    3    0    0 -0.54241092710E+02 -0.88793752874E+02 -0.37770968884E+02  0.13677437574E+03  0.80337768703E+02 0.  0.
          6    2    1    2  501    0  0.52224923297E+02  0.35663288319E+02  0.67097606039E+03  0.69636951919E+03  0.17527783914E+03 0.  0.
         24    2    5    5    0    0 -0.38548526319E+02  0.14921822404E+02  0.26434698347E+03  0.27918931381E+03  0.79741429702E+02 0.  0.
          5    1    5    5  501    0  0.90773449616E+02  0.20741465914E+02  0.40662907692E+03  0.41718020538E+03  0.47000000000E+01 0. -1.
        -13    1    6    6    0    0  0.13107006886E+02 -0.15110899047E+02  0.22660941143E+02  0.30226662948E+02  0.00000000000E+00 0.  1.
         14    1    6    6    0    0 -0.51655533205E+02  0.30032721451E+02  0.24168604232E+03  0.24896265086E+03  0.00000000000E+00 0. -1.
         -5    1    3    3    0  503  0.20161694126E+01  0.53130464555E+02 -0.13637255506E+02  0.55090615722E+02  0.47000000000E+01 0.  1.
         11    1    4    4    0    0 -0.73272565073E+02 -0.79726855398E+02 -0.22121630892E+02  0.11051971235E+03  0.00000000000E+00 0. -1.
        -12    1    4    4    0    0  0.19031472363E+02 -0.90668974761E+01 -0.15649337992E+02  0.26254663390E+02  0.00000000000E+00 0.  1.
</event>
<event>
12    1  0.8461994E-002  0.1797636E+03  0.7818608E-02  0.1169218E+00
         21   -1    0    0  503  502  0.00000000000E+00  0.00000000000E+00  0.47990200952E+03  0.47990200952E+03  0.00000000000E+00 0. -1.
         21   -1    0    0  501  503 -0.00000000000E+00 -0.00000000000E+00 -0.29149913242E+03  0.29149913242E+03  0.00000000000E+00 0. -1.
          6    2    1    2  501    0  0.37804277714E+02 -0.23202570843E+02 -0.24566120120E+03  0.30158568554E+03  0.16922463545E+03 0.  0.
         24    2    3    3    0    0  0.29053408108E+02 -0.36196159129E+02 -0.26246601671E+03  0.27813567745E+03  0.79478189987E+02 0.  0.
         -6    2    1    2    0  502 -0.37804277714E+02  0.23202570843E+02  0.43406407830E+03  0.46981545640E+03  0.17420509837E+03 0.  0.
        -24    2    5    5    0    0 -0.81757521768E+02  0.41782423141E+02  0.22656588652E+03  0.25684905491E+03  0.78798939227E+02 0.  0.
          5    1    3    3  501    0  0.87508696058E+01  0.12993588287E+02  0.16804815509E+02  0.23450008096E+02  0.47000000000E+01 0. -1.
        -11    1    4    4    0    0 -0.23567072903E+02  0.54781474676E+01 -0.85843246192E+02  0.89187891228E+02  0.00000000000E+00 0.  1.
         12    1    4    4    0    0  0.52620481011E+02 -0.41674306597E+02 -0.17662277052E+03  0.18894778622E+03  0.00000000000E+00 0. -1.
         -5    1    5    5    0  502  0.43953244053E+02 -0.18579852298E+02  0.20749819178E+03  0.21296640150E+03  0.47000000000E+01 0.  1.
         13    1    6    6    0    0 -0.61187654423E+02 -0.58042979484E+01  0.16662496932E+03  0.17759926613E+03  0.00000000000E+00 0. -1.
        -14    1    6    6    0    0 -0.20569867345E+02  0.47586721090E+02  0.59940917194E+02  0.79249788774E+02  0.00000000000E+00 0.  1.
</event>
<event>
12    1  0.8461994E-002  0.1847687E+03  0.7818608E-02  0.1163488E+00
         21   -1    0    0  503  502  0.00000000000E+00  0.00000000000E+00  0.77378814878E+02  0.77378814878E+02  0.00000000000E+00 0.  1.
         21   -1    0    0  501  503 -0.00000000000E+00 -0.00000000000E+00 -0.57733856622E+03  0.57733856622E+03  0.00000000000E+00 0. -1.
          6    2    1    2  501    0 -0.49193630019E+02  0.43787743647E+02 -0.41074773438E+03  0.45039224047E+03  0.17263281626E+03 0.  0.
         24    2    3    3    0    0 -0.88988885473E+02  0.30891603333E+02 -0.19523877204E+03  0.23081042055E+03  0.79258811696E+02 0.  0.
         -6    2    1    2    0  502  0.49193630019E+02 -0.43787743647E+02 -0.89212016955E+02  0.20432514062E+03  0.17161759640E+03 0.  0.
        -24    2    5    5    0    0  0.79708019728E+02 -0.28088798253E+02 -0.92213099095E+01  0.11715755445E+03  0.80613342638E+02 0.  0.
          5    1    3    3  501    0  0.39795255454E+02  0.12896140314E+02 -0.21550896234E+03  0.21958181992E+03  0.47000000000E+01 0. -1.
        -13    1    4    4    0    0 -0.53448434818E+02  0.52841057950E+02 -0.88026265671E+02  0.11574772584E+03  0.00000000000E+00 0.  1.
         14    1    4    4    0    0 -0.35540450655E+02 -0.21949454618E+02 -0.10721250637E+03  0.11506269471E+03  0.00000000000E+00 0. -1.
         -5    1    5    5    0  502 -0.30514389710E+02 -0.15698945394E+02 -0.79990707046E+02  0.87167586175E+02  0.47000000000E+01 0.  1.
         11    1    6    6    0    0  0.41101525456E+02  0.25020833450E+02 -0.17014097966E+02  0.51037800021E+02  0.00000000000E+00 0. -1.
        -12    1    6    6    0    0  0.38606494272E+02 -0.53109631703E+02  0.77927880569E+01  0.66119754426E+02  0.00000000000E+00 0.  1.
</event>
<event>
12    1  0.8461994E-002  0.1878306E+03  0.7818608E-02  0.1160447E+00
         21   -1    0    0  503  502  0.00000000000E+00  0.00000000000E+00  0.38477815761E+03  0.38477815761E+03  0.00000000000E+00 0. -1.
         21   -1    0    0  501  503 -0.00000000000E+00 -0.00000000000E+00 -0.11378844136E+03  0.11378844136E+03  0.00000000000E+00 0. -1.
          6    2    1    2  501    0  0.45465210749E+02  0.61414082007E+02  0.25544831975E+02  0.18949782374E+03  0.17151708925E+03 0.  0.
         24    2    3    3    0    0  0.79735644744E+02  0.11098725884E+02 -0.15959350962E+02  0.11566839255E+03  0.81507799586E+02 0.  0.
         -6    2    1    2    0  502 -0.45465210749E+02 -0.61414082007E+02  0.24544488427E+03  0.30906877523E+03  0.17158537744E+03 0.  0.
        -24    2    5    5    0    0 -0.91283827784E+02 -0.11986416492E+02  0.16106967060E+03  0.20097758009E+03  0.77279606086E+02 0.  0.
          5    1    3    3  501    0 -0.34270433995E+02  0.50315356123E+02  0.41504182937E+02  0.73829431186E+02  0.47000000000E+01 0. -1.
        -13    1    4    4    0    0  0.12188146680E+02 -0.30889785299E+02  0.45880282752E+01  0.33522824445E+02  0.00000000000E+00 0.  1.
         14    1    4    4    0    0  0.67547498063E+02  0.41988511183E+02 -0.20547379237E+02  0.82145568106E+02  0.00000000000E+00 0. -1.
         -5    1    5    5    0  502  0.45818617036E+02 -0.49427665514E+02  0.84375213664E+02  0.10809119514E+03  0.47000000000E+01 0.  1.
         11    1    6    6    0    0 -0.37451447293E+02  0.58569436164E+01  0.13182885830E+03  0.13717056015E+03  0.00000000000E+00 0. -1.
        -12    1    6    6    0    0 -0.53832380491E+02 -0.17843360109E+02  0.29240812306E+02  0.63807019940E+02  0.00000000000E+00 0.  1.
</event>
<event>
12    1  0.8461994E-002  0.2330585E+03  0.7818608E-02  0.1124889E+00
         21   -1    0    0  503  502  0.00000000000E+00  0.00000000000E+00  0.70091280627E+03  0.70091280627E+03  0.00000000000E+00 0.  1.
         21   -1    0    0  501  503 -0.00000000000E+00 -0.00000000000E+00 -0.98809973572E+02  0.98809973572E+02  0.00000000000E+00 0.  1.
          6    2    1    2  501    0  0.48912477568E+02  0.14569388397E+03  0.11105146307E+03  0.25617177757E+03  0.17225682536E+03 0.  0.
         24    2    3    3    0    0  0.42980180304E+02  0.12486749432E+03  0.14347692521E+03  0.21689797903E+03  0.94973249944E+02 0.  0.
         -6    2    1    2    0  502 -0.48912477568E+02 -0.14569388397E+03  0.49105136962E+03  0.54355100227E+03  0.17520589653E+03 0.  0.
        -24    2    5    5    0    0  0.20238132701E+00 -0.13891413005E+03  0.20046597186E+03  0.24872868660E+03  0.48807552457E+02 0.  0.
          5    1    3    3  501    0  0.59322972642E+01  0.20826389647E+02 -0.32425462134E+02  0.39273798532E+02  0.47000000000E+01 0. -1.
        -11    1    4    4    0    0  0.37307130050E+02  0.31289066923E+01  0.16543323847E+02  0.40930350274E+02  0.00000000000E+00 0.  1.
         12    1    4    4    0    0  0.56730502545E+01  0.12173858763E+03  0.12693360136E+03  0.17596762876E+03  0.00000000000E+00 0. -1.
         -5    1    5    5    0  502 -0.49114858895E+02 -0.67797539159E+01  0.29058539776E+03  0.29482231567E+03  0.47000000000E+01 0.  1.
         11    1    6    6    0    0 -0.15242298159E+02 -0.78272123984E+02  0.79868170069E+02  0.11286176339E+03  0.00000000000E+00 0. -1.
        -12    1    6    6    0    0  0.15444679486E+02 -0.60642006069E+02  0.12059780179E+03  0.13586692321E+03  0.00000000000E+00 0.  1.
</event>
<event>
12    1  0.8461994E-002  0.2155116E+03  0.7818608E-02  0.1137655E+00
         21   -1    0    0  503  502  0.00000000000E+00  0.00000000000E+00  0.10291597693E+04  0.10291597693E+04  0.00000000000E+00 0. -1.
         21   -1    0    0  501  503 -0.00000000000E+00 -0.00000000000E+00 -0.95632452412E+02  0.95632452412E+02  0.00000000000E+00 0. -1.
          6    2    1    2  501    0 -0.86583080736E+02 -0.91444017236E+02  0.55392244917E+02  0.22059841185E+03  0.17244338304E+03 0.  0.
         24    2    3    3    0    0 -0.21480600556E+02 -0.48199302030E+02 -0.33785455129E+02  0.10192579283E+03  0.80391674625E+02 0.  0.
         -6    2    1    2    0  502  0.86583080736E+02  0.91444017236E+02  0.87813507199E+03  0.90419380989E+03  0.17489025993E+03 0.  0.
        -24    2    5    5    0    0  0.67393905305E+02  0.91858506700E+02  0.87279515228E+03  0.88372429603E+03  0.78850046350E+02 0.  0.
          5    1    3    3  501    0 -0.65102480181E+02 -0.43244715206E+02  0.89177700046E+02  0.11867261902E+03  0.47000000000E+01 0. -1.
        -13    1    4    4    0    0 -0.30139643602E+02  0.13161099586E+02 -0.38713433141E+01  0.33114950669E+02  0.00000000000E+00 0.  1.
         14    1    4    4    0    0  0.86590430457E+01 -0.61360401616E+02 -0.29914111815E+02  0.68810842159E+02  0.00000000000E+00 0. -1.
         -5    1    5    5    0  502  0.19189175431E+02 -0.41448946400E+00  0.53399197070E+01  0.20469513861E+02  0.47000000000E+01 0.  1.
         13    1    6    6    0    0  0.72661487752E+02  0.84688739859E+02  0.57118589562E+03  0.58198385013E+03  0.00000000000E+00 0. -1.
        -14    1    6    6    0    0 -0.52675824462E+01  0.71697668406E+01  0.30160925667E+03  0.30174044590E+03  0.00000000000E+00 0.  1.
</event>
<event>
12    1  0.8461994E-002  0.2195044E+03  0.7818608E-02  0.1134395E+00
         21   -1    0    0  503  502  0.00000000000E+00  0.00000000000E+00  0.98093001222E+02  0.98093001222E+02  0.00000000000E+00 0.  1.
         21   -1    0    0  501  503 -0.00000000000E+00 -0.00000000000E+00 -0.49374153981E+03  0.49374153981E+03  0.00000000000E+00 0.  1.
          6    2    1    2  501    0 -0.12390642028E+03 -0.54997449711E+02 -0.17003937926E+03  0.27706213656E+03  0.17167561434E+03 0.  0.
         24    2    3    3    0    0 -0.12528855314E+03  0.82257198211E+01 -0.15122454755E+03  0.21091708876E+03  0.76500134209E+02 0.  0.
         -6    2    1    2    0  502  0.12390642028E+03  0.54997449711E+02 -0.22560915932E+03  0.31477240446E+03  0.17264024265E+03 0.  0.
        -24    2    5    5    0    0  0.10421415536E+03  0.27532587471E+01 -0.68218452459E+02  0.14770605419E+03  0.79341984955E+02 0.  0.
          5    1    3    3  501    0  0.13821328639E+01 -0.63223169532E+02 -0.18814831709E+02  0.66145047805E+02  0.47000000000E+01 0. -1.
        -11    1    4    4    0    0 -0.41089087849E+02 -0.26075464312E+02 -0.23247591841E+02  0.53932304844E+02  0.00000000000E+00 0.  1.
         12    1    4    4    0    0 -0.84199465290E+02  0.34301184133E+02 -0.12797695571E+03  0.15698478391E+03  0.00000000000E+00 0. -1.
         -5    1    5    5    0  502  0.19692264913E+02  0.52244190964E+02 -0.15739070687E+03  0.16706635028E+03  0.47000000000E+01 0.  1.
         11    1    6    6    0    0 -0.88054023446E+01  0.11277096529E+00 -0.25290214987E+02  0.26779522061E+02  0.00000000000E+00 0. -1.
        -12    1    6    6    0    0  0.11301955771E+03  0.26404877818E+01 -0.42928237471E+02  0.12092653213E+03  0.00000000000E+00 0.  1.
</event>
<event>
12    1  0.8461994E-002  0.1856720E+03  0.7818608E-02  0.1163610E+00
         21   -1    0    0  501  502  0.00000000000E+00  0.00000000000E+00  0.71532122011E+03  0.71532122011E+03  0.00000000000E+00 0. -1.
         21   -1    0    0  502  503 -0.00000000000E+00 -0.00000000000E+00 -0.62782447805E+02  0.62782447805E+02  0.00000000000E+00 0. -1.
         -6    2    1    2    0  503 -0.12593255017E+02  0.65654784064E+02  0.13393062304E+03  0.22893555460E+03  0.17321932810E+03 0.  0.
        -24    2    3    3    0    0  0.14294136825E+02  0.67550956565E+02  0.15186666592E+02  0.10708013000E+03  0.80424283142E+02 0.  0.
          6    2    1    2  501    0  0.12593255017E+02 -0.65654784064E+02  0.51860814926E+03  0.54916811331E+03  0.16781556381E+03 0.  0.
         24    2    5    5    0    0 -0.37783935882E+02 -0.78808799192E+02  0.43105291231E+03  0.44719312131E+03  0.80849377822E+02 0.  0.
          5    1    5    5  501    0  0.50377190898E+02  0.13154015128E+02  0.87555236954E+02  0.10197499201E+03  0.47000000000E+01 0. -1.
        -13    1    6    6    0    0  0.97054659284E+01 -0.34399124150E+02  0.55223051230E+02  0.65780553345E+02  0.00000000000E+00 0.  1.
         14    1    6    6    0    0 -0.47489401810E+02 -0.44409675041E+02  0.37582986108E+03  0.38141256796E+03  0.00000000000E+00 0. -1.
         -5    1    3    3    0  503 -0.26887391842E+02 -0.18961725011E+01  0.11874395645E+03  0.12185542459E+03  0.47000000000E+01 0.  1.
         13    1    4    4    0    0  0.45971173630E+02  0.31847586569E+02 -0.29927396230E+01  0.56005125352E+02  0.00000000000E+00 0. -1.
        -14    1    4    4    0    0 -0.31677036805E+02  0.35703369995E+02  0.18179406215E+02  0.51075004651E+02  0.00000000000E+00 0.  1.
</event>
<event>
12    1  0.8461994E-002  0.2768915E+03  0.7818608E-02  0.1097572E+00
         21   -1    0    0  501  502  0.00000000000E+00  0.00000000000E+00  0.44628922479E+03  0.44628922479E+03  0.00000000000E+00 0.  1.
         21   -1    0    0  502  503 -0.00000000000E+00 -0.00000000000E+00 -0.22693995522E+03  0.22693995522E+03  0.00000000000E+00 0.  1.
         -6    2    1    2    0  503  0.12075029090E+03 -0.17951049456E+03 -0.57230477434E+02  0.28274410563E+03  0.17281276375E+03 0.  0.
        -24    2    3    3    0    0  0.12842446600E+03 -0.17078416683E+03 -0.91584463343E+02  0.24617460869E+03  0.80957698405E+02 0.  0.
          6    2    1    2  501    0 -0.12075029090E+03  0.17951049456E+03  0.27657974700E+03  0.39048507438E+03  0.17081447963E+03 0.  0.
         24    2    5    5    0    0 -0.23650492046E+01  0.69991643730E+02  0.15814291905E+03  0.19033808751E+03  0.79466855112E+02 0.  0.
          5    1    5    5  501    0 -0.11838524169E+03  0.10951885083E+03  0.11843682795E+03  0.20014698687E+03  0.47000000000E+01 0. -1.
        -13    1    6    6    0    0 -0.13317569905E+02  0.81980176174E+02  0.15154203081E+03  0.17280941541E+03  0.00000000000E+00 0.  1.
         14    1    6    6    0    0  0.10952520701E+02 -0.11988532443E+02  0.66008882373E+01  0.17528672094E+02  0.00000000000E+00 0. -1.
         -5    1    3    3    0  503 -0.76741751008E+01 -0.87263277340E+01  0.34353985908E+02  0.36569496947E+02  0.47000000000E+01 0.  1.
         11    1    4    4    0    0  0.33527555950E+02 -0.21780090304E+02  0.11549890294E+02  0.41615733893E+02  0.00000000000E+00 0. -1.
        -12    1    4    4    0    0  0.94896910046E+02 -0.14900407652E+03 -0.10313435364E+03  0.20455887479E+03  0.00000000000E+00 0.  1.
</event>
<event>
12    1  0.8461994E-002  0.1852105E+03  0.7818608E-02  0.1162929E+00
         21   -1    0    0  501  502  0.00000000000E+00  0.00000000000E+00  0.37000993465E+02  0.37000993465E+02  0.00000000000E+00 0. -1.
         21   -1    0    0  502  503 -0.00000000000E+00 -0.00000000000E+00 -0.11007920621E+04  0.11007920621E+04  0.00000000000E+00 0. -1.
         -6    2    1    2    0  503 -0.51826892021E+02  0.44107270809E+02 -0.75854807073E+03  0.78075491969E+03  0.17190576177E+03 0.  0.
        -24    2    3    3    0    0 -0.99991625722E+02  0.37573235230E+02 -0.49260081291E+03  0.51036155968E+03  0.80020544229E+02 0.  0.
          6    2    1    2  501    0  0.51826892021E+02 -0.44107270809E+02 -0.30524299789E+03  0.35703813587E+03  0.17225406998E+03 0.  0.
         24    2    5    5    0    0 -0.27814853260E+02 -0.58473505935E+02 -0.15847158136E+03  0.18936841584E+03  0.80958865238E+02 0.  0.
          5    1    5    5  501    0  0.79641745281E+02  0.14366235126E+02 -0.14677141653E+03  0.16766972003E+03  0.47000000000E+01 0. -1.
        -13    1    6    6    0    0  0.89541841054E+01  0.15530119190E+01 -0.92333464261E+02  0.92779619968E+02  0.00000000000E+00 0.  1.
         14    1    6    6    0    0 -0.36769037365E+02 -0.60026517854E+02 -0.66138117099E+02  0.96588795871E+02  0.00000000000E+00 0. -1.
         -5    1    3    3    0  503  0.48164733701E+02  0.65340355788E+01 -0.26594725783E+03  0.27039336001E+03  0.47000000000E+01 0.  1.
         11    1    4    4    0    0 -0.35904880904E+02  0.55337117982E+02 -0.27647378396E+03  0.28423425254E+03  0.00000000000E+00 0. -1.
        -12    1    4    4    0    0 -0.64086744818E+02 -0.17763882752E+02 -0.21612702895E+03  0.22612730714E+03  0.00000000000E+00 0.  1.
</event>
<event>
12    1  0.8461994E-002  0.2146994E+03  0.7818608E-02  0.1139122E+00
         21   -1    0    0  503  502  0.00000000000E+00  0.00000000000E+00  0.26439188430E+03  0.26439188430E+03  0.00000000000E+00 0.  1.
         21   -1    0    0  501  503 -0.00000000000E+00 -0.00000000000E+00 -0.45055477120E+03  0.45055477120E+03  0.00000000000E+00 0. -1.
          6    2    1    2  501    0  0.83778521484E+02 -0.98817994058E+02 -0.37602423933E+03  0.43300122744E+03  0.17120747000E+03 0.  0.
         24    2    3    3    0    0  0.12097997967E+03 -0.54624413378E+02 -0.24414205692E+03  0.28894560935E+03  0.79146946801E+02 0.  0.
         -6    2    1    2    0  502 -0.83778521484E+02  0.98817994058E+02  0.18986135243E+03  0.28194542807E+03  0.16328519422E+03 0.  0.
        -24    2    5    5    0    0 -0.97941596697E+02  0.17341399225E+02  0.13603855261E+03  0.18316277784E+03  0.71755382380E+02 0.  0.
          5    1    3    3  501    0 -0.37201458185E+02 -0.44193580680E+02 -0.13188218241E+03  0.14405561808E+03  0.47000000000E+01 0. -1.
        -13    1    4    4    0    0  0.19662538973E+02 -0.48998691802E+02 -0.91867913762E+02  0.10595848629E+03  0.00000000000E+00 0.  1.
         14    1    4    4    0    0  0.10131744070E+03 -0.56257215756E+01 -0.15227414316E+03  0.18298712307E+03  0.00000000000E+00 0. -1.
         -5    1    5    5    0  502  0.14163075212E+02  0.81476594833E+02  0.53822799823E+02  0.98782650227E+02  0.47000000000E+01 0.  1.
         11    1    6    6    0    0 -0.50973725967E+02  0.31280073080E+01  0.16057364157E+02  0.53534513283E+02  0.00000000000E+00 0. -1.
        -12    1    6    6    0    0 -0.46967870729E+02  0.14213391917E+02  0.11998118845E+03  0.12962826456E+03  0.00000000000E+00 0.  1.
</event>
<event>
12    1  0.8461994E-002  0.1993836E+03  0.7818608E-02  0.1150305E+00
         21   -1    0    0  503  502  0.00000000000E+00  0.00000000000E+00  0.29299514155E+02  0.29299514155E+02  0.00000000000E+00 0. -1.
         21   -1    0    0  501  503 -0.00000000000E+00 -0.00000000000E+00 -0.17935408752E+04  0.17935408752E+04  0.00000000000E+00 0. -1.
          6    2    1    2  501    0  0.27056180256E+02  0.95811093145E+02 -0.13329555893E+04  0.13477850065E+04  0.17274842430E+03 0.  0.
         24    2    3    3    0    0 -0.69011620201E+01  0.12852608707E+03 -0.98603946807E+03  0.99764752332E+03  0.80375164678E+02 0.  0.
         -6    2    1    2    0  502 -0.27056180256E+02 -0.95811093145E+02 -0.43128577170E+03  0.47505538286E+03  0.17250622440E+03 0.  0.
        -24    2    5    5    0    0  0.12025383019E+02 -0.97373529223E+00 -0.28603366636E+03  0.29717408216E+03  0.79697043995E+02 0.  0.
          5    1    3    3  501    0  0.33957342277E+02 -0.32714993928E+02 -0.34691612125E+03  0.35013748315E+03  0.47000000000E+01 0. -1.
        -11    1    4    4    0    0 -0.28278707476E+02  0.72022612807E+02 -0.33539861326E+03  0.34420803568E+03  0.00000000000E+00 0.  1.
         12    1    4    4    0    0  0.21377545456E+02  0.56503474267E+02 -0.65064085481E+03  0.65343948764E+03  0.00000000000E+00 0. -1.
         -5    1    5    5    0  502 -0.39081563275E+02 -0.94837357853E+02 -0.14525210534E+03  0.17788130070E+03  0.47000000000E+01 0.  1.
         11    1    6    6    0    0 -0.13425508717E+02 -0.19267327463E+02 -0.25130653140E+02  0.34395114756E+02  0.00000000000E+00 0. -1.
        -12    1    6    6    0    0  0.25450891736E+02  0.18293592170E+02 -0.26090301322E+03  0.26277896741E+03  0.00000000000E+00 0.  1.
</event>
<event>
12    1  0.8461994E-002  0.2014291E+03  0.7818608E-02  0.1149339E+00
         21   -1    0    0  501  502  0.00000000000E+00  0.00000000000E+00  0.51047288888E+02  0.51047288888E+02  0.00000000000E+00 0. -1.
         21   -1    0    0  502  503 -0.00000000000E+00 -0.00000000000E+00 -0.10650618601E+04  0.10650618601E+04  0.00000000000E+00 0. -1.
         -6    2    1    2    0  503  0.21867558674E+02 -0.10293084649E+03 -0.79220850330E+03  0.81649005305E+03  0.16729837045E+03 0.  0.
        -24    2    3    3    0    0 -0.32415770991E+02 -0.11489351324E+03 -0.60759944208E+03  0.62363679081E+03  0.74124646620E+02 0.  0.
          6    2    1    2  501    0 -0.21867558674E+02  0.10293084649E+03 -0.22180606789E+03  0.29961909591E+03  0.17175774102E+03 0.  0.
         24    2    5    5    0    0 -0.61226287049E+02  0.88195961975E+02 -0.89175814993E+02  0.16041025889E+03  0.79069205404E+02 0.  0.
          5    1    5    5  501    0  0.39358728375E+02  0.14734884514E+02 -0.13263025290E+03  0.13920883702E+03  0.47000000000E+01 0. -1.
        -11    1    6    6    0    0 -0.32816849619E+02  0.14870318609E+02 -0.71122791653E+02  0.79727808743E+02  0.00000000000E+00 0.  1.
         12    1    6    6    0    0 -0.28409437430E+02  0.73325643367E+02 -0.18053023341E+02  0.80682450149E+02  0.00000000000E+00 0. -1.
         -5    1    3    3    0  503  0.54283329665E+02  0.11962666752E+02 -0.18460906122E+03  0.19285326225E+03  0.47000000000E+01 0.  1.
         13    1    4    4    0    0 -0.12000065584E+02 -0.29357477956E+02 -0.35013588617E+03  0.35156934149E+03  0.00000000000E+00 0. -1.
        -14    1    4    4    0    0 -0.20415705407E+02 -0.85536035285E+02 -0.25746355590E+03  0.27206744932E+03  0.00000000000E+00 0.  1.
</event>
<event>
12    1  0.8461994E-002  0.1852658E+03  0.7818608E-02  0.1163161E+00
         21   -1    0    0  501  502  0.00000000000E+00  0.00000000000E+00  0.55035074941E+02  0.55035074941E+02  0.00000000000E+00 0. -1.
         21   -1    0    0  502  503 -0.00000000000E+00 -0.00000000000E+00 -0.87780551510E+03  0.87780551510E+03  0.00000000000E+00 0. -1.
         -6    2    1    2    0  503 -0.34296850859E+02 -0.55785762348E+02 -0.66608832024E+03  0.69137333052E+03  0.17330639497E+03 0.  0.
        -24    2    3    3    0    0 -0.39779692055E+02 -0.20716052804E+02 -0.64196818522E+03  0.64820138375E+03  0.77655034025E+02 0.  0.
          6    2    1    2  501    0  0.34296850859E+02  0.55785762348E+02 -0.15668211993E+03  0.24146725952E+03  0.17166486379E+03 0.  0.
         24    2    5    5    0    0  0.77123331739E+02  0.29200269088E+02 -0.15239537677E+03  0.19066015290E+03  0.79537909383E+02 0.  0.
          5    1    5    5  501    0 -0.42826480881E+02  0.26585493260E+02 -0.42867431517E+01  0.50807106623E+02  0.47000000000E+01 0. -1.
        -11    1    6    6    0    0  0.53684498709E+02 -0.19780762953E+02 -0.99960107783E+02  0.11517520190E+03  0.00000000000E+00 0.  1.
         12    1    6    6    0    0  0.23438833031E+02  0.48981032041E+02 -0.52435268991E+02  0.75484951002E+02  0.00000000000E+00 0. -1.
         -5    1    3    3    0  503  0.54828411965E+01 -0.35069709543E+02 -0.24120135013E+02  0.43171946772E+02  0.47000000000E+01 0.  1.
         13    1    4    4    0    0  0.12022286219E+02  0.60981602300E+01 -0.36053355317E+03  0.36078548459E+03  0.00000000000E+00 0. -1.
        -14    1    4    4    0    0 -0.51801978274E+02 -0.26814213034E+02 -0.28143463205E+03  0.28741589916E+03  0.00000000000E+00 0.  1.
</event>
<event>
12    1  0.8461994E-002  0.1877472E+03  0.7818608E-02  0.1160766E+00
         21   -1    0    0  503  502  0.00000000000E+00  0.00000000000E+00  0.18754248690E+04  0.18754248690E+04  0.00000000000E+00 0.  1.
         21   -1    0    0  501  503 -0.00000000000E+00 -0.00000000000E+00 -0.18819203398E+02  0.18819203398E+02  0.00000000000E+00 0.  1.
          6    2    1    2  501    0 -0.41663512554E+02 -0.57580791382E+02  0.10115003447E+04  0.10287769191E+04  0.17377458404E+03 0.  0.
         24    2    3    3    0    0  0.41762720492E+02 -0.64513810173E+01  0.48221806772E+03  0.49050563831E+03  0.79219765426E+02 0.  0.
         -6    2    1    2    0  502  0.41663512554E+02  0.57580791382E+02  0.84510532090E+03  0.86546715333E+03  0.17256591282E+03 0.  0.
        -24    2    5    5    0    0  0.19627842308E+02 -0.21943082815E+02  0.24107493916E+03  0.25580789654E+03  0.80335562254E+02 0.  0.
          5    1    3    3  501    0 -0.83426233046E+02 -0.51129410365E+02  0.52928227702E+03  0.53827128080E+03  0.47000000000E+01 0. -1.
        -13    1    4    4    0    0  0.11944835204E+02 -0.29723844576E+02  0.75265752059E+02  0.81799263185E+02  0.00000000000E+00 0.  1.
         14    1    4    4    0    0  0.29817885287E+02  0.23272463559E+02  0.40695231566E+03  0.40870637512E+03  0.00000000000E+00 0. -1.
         -5    1    5    5    0  502  0.22035670246E+02  0.79523874197E+02  0.60403038173E+03  0.60965925679E+03  0.47000000000E+01 0.  1.
         13    1    6    6    0    0  0.26720043197E+02 -0.41300747178E+02  0.83670236672E+02  0.97058852923E+02  0.00000000000E+00 0. -1.
        -14    1    6    6    0    0 -0.70922008889E+01  0.19357664364E+02  0.15740470249E+03  0.15874904362E+03  0.00000000000E+00 0.  1.
</event>
<event>
12    1  0.8461994E-002  0.1746131E+03  0.7818608E-02  0.1173469E+00
         21   -1    0    0  501  502  0.00000000000E+00  0.00000000000E+00  0.76034698587E+03  0.76034698587E+03  0.00000000000E+00 0. -1.
         21   -1    0    0  502  503 -0.00000000000E+00 -0.00000000000E+00 -0.51321349597E+02  0.51321349597E+02  0.00000000000E+00 0. -1.
         -6    2    1    2    0  503  0.97375939972E+01 -0.34980577275E+02  0.16318209150E+03  0.23899402844E+03  0.17079604539E+03 0.  0.
        -24    2    3    3    0    0  0.10678990336E+02  0.38996932572E+02  0.12817486306E+03  0.15701138251E+03  0.81172514644E+02 0.  0.
          6    2    1    2  501    0 -0.97375939972E+01  0.34980577275E+02  0.54584354477E+03  0.57267430703E+03  0.16938779483E+03 0.  0.
         24    2    5    5    0    0  0.15419878144E+02 -0.20313963122E+02  0.16863029386E+03  0.19057181912E+03  0.85035360265E+02 0.  0.
          5    1    5    5  501    0 -0.25157472141E+02  0.55294540397E+02  0.37721325091E+03  0.38210248791E+03  0.47000000000E+01 0. -1.
        -11    1    6    6    0    0  0.31854793024E+02  0.19835474300E+02  0.40111001724E+02  0.54927828454E+02  0.00000000000E+00 0.  1.
         12    1    6    6    0    0 -0.16434914881E+02 -0.40149437422E+02  0.12851929214E+03  0.13564399067E+03  0.00000000000E+00 0. -1.
         -5    1    3    3    0  503 -0.94139633866E+00 -0.73977509847E+02  0.35007228447E+02  0.81982645931E+02  0.47000000000E+01 0.  1.
         11    1    4    4    0    0 -0.54535455290E+01 -0.74912288045E+01 -0.79853821172E+01  0.12232170510E+02  0.00000000000E+00 0. -1.
        -12    1    4    4    0    0  0.16132535865E+02  0.46488161376E+02  0.13616024517E+03  0.14477921200E+03  0.00000000000E+00 0.  1.
</event>
<event>
12    1  0.8461994E-002  0.1887744E+03  0.7818608E-02  0.1160252E+00
         21   -1    0    0  501  502  0.00000000000E+00  0.00000000000E+00  0.14402054442E+03  0.14402054442E+03  0.00000000000E+00 0. -1.
         21   -1    0    0  502  503 -0.00000000000E+00 -0.00000000000E+00 -0.96585635191E+03  0.96585635191E+03  0.00000000000E+00 0.  1.
         -6    2    1    2    0  503 -0.74243290751E+02  0.12831739024E+02 -0.88998798075E+03  0.90917685578E+03  0.16984472164E+03 0.  0.
        -24    2    3    3    0    0 -0.92954719152E+02 -0.31469088386E+00 -0.86982115228E+03  0.87832661847E+03  0.78918520691E+02 0.  0.
          6    2    1    2  501    0  0.74243290751E+02 -0.12831739024E+02  0.68152173256E+02  0.20070004054E+03  0.17308687936E+03 0.  0.
         24    2    5    5    0    0 -0.29230919627E+02 -0.24715247014E+01  0.36211654418E+02  0.91812332337E+02  0.79105406623E+02 0.  0.
          5    1    5    5  501    0  0.10347421038E+03 -0.10360214322E+02  0.31940518839E+02  0.10888770820E+03  0.47000000000E+01 0. -1.
        -11    1    6    6    0    0  0.13953058930E+02  0.17610982657E+02 -0.10767532928E+02  0.24915343245E+02  0.00000000000E+00 0.  1.
         12    1    6    6    0    0 -0.43183978558E+02 -0.20082507359E+02  0.46979187346E+02  0.66896989092E+02  0.00000000000E+00 0. -1.
         -5    1    3    3    0  503  0.18711428401E+02  0.13146429908E+02 -0.20166828468E+02  0.30850237318E+02  0.47000000000E+01 0.  1.
         13    1    4    4    0    0 -0.71003180190E+02 -0.15890221171E+02 -0.33415537020E+03  0.34198503207E+03  0.00000000000E+00 0. -1.
        -14    1    4    4    0    0 -0.21951538962E+02  0.15575530287E+02 -0.53566578208E+03  0.53634158639E+03  0.00000000000E+00 0.  1.
</event>
<event>
12    1  0.8461994E-002  0.3119303E+03  0.7818608E-02  0.1079535E+00
         21   -1    0    0  501  502  0.00000000000E+00  0.00000000000E+00  0.54462142174E+03  0.54462142174E+03  0.00000000000E+00 0.  1.
         21   -1    0    0  502  503 -0.00000000000E+00 -0.00000000000E+00 -0.17886247724E+03  0.17886247724E+03  0.00000000000E+00 0. -1.
         -6    2    1    2    0  503 -0.25961054009E+03  0.13241934350E+02  0.20637515370E+03  0.37402032519E+03  0.17241669942E+03 0.  0.
        -24    2    3    3    0    0 -0.19211313378E+03  0.17563771735E+02  0.67214391212E+02  0.21922243776E+03  0.79528363382E+02 0.  0.
          6    2    1    2  501    0  0.25961054009E+03 -0.13241934350E+02  0.15938379079E+03  0.34946357379E+03  0.17072965556E+03 0.  0.
         24    2    5    5    0    0  0.15399256323E+03 -0.23838439309E+02  0.16785104709E+03  0.24287451533E+03  0.80821256308E+02 0.  0.
          5    1    5    5  501    0  0.10561797686E+03  0.10596504959E+02 -0.84672562972E+01  0.10658905845E+03  0.47000000000E+01 0. -1.
        -11    1    6    6    0    0 -0.46717929515E+01  0.11116586009E+02  0.19140954048E+02  0.22622560769E+02  0.00000000000E+00 0.  1.
         12    1    6    6    0    0  0.15866435618E+03 -0.34955025318E+02  0.14871009304E+03  0.22025195457E+03  0.00000000000E+00 0. -1.
         -5    1    3    3    0  503 -0.67497406306E+02 -0.43218373853E+01  0.13916076249E+03  0.15479788743E+03  0.47000000000E+01 0.  1.
         13    1    4    4    0    0 -0.78107608825E+02  0.55430832375E+01 -0.12907591920E+02  0.79360760186E+02  0.00000000000E+00 0. -1.
        -14    1    4    4    0    0 -0.11400552496E+03  0.12020688497E+02  0.80121983133E+02  0.13986167757E+03  0.00000000000E+00 0.  1.
</event>
<event>
12    1  0.8461994E-002  0.1946402E+03  0.7818608E-02  0.1154849E+00
         21   -1    0    0  503  502  0.00000000000E+00  0.00000000000E+00  0.76775553709E+03  0.76775553709E+03  0.00000000000E+00 0.  1.
         21   -1    0    0  501  503 -0.00000000000E+00 -0.00000000000E+00 -0.49346760096E+02  0.49346760096E+02  0.00000000000E+00 0.  1.
          6    2    1    2  501    0 -0.24238641005E+02  0.84826245670E+02  0.31684802476E+03  0.37185679868E+03  0.17349871544E+03 0.  0.
         24    2    3    3    0    0  0.19272043368E+02  0.10735061765E+03  0.27706589661E+03  0.30856987501E+03  0.80958569235E+02 0.  0.
         -6    2    1    2    0  502  0.24238641005E+02 -0.84826245670E+02  0.40156075224E+03  0.44524549850E+03  0.17090790657E+03 0.  0.
        -24    2    5    5    0    0  0.71434384616E+02 -0.34339062176E+02  0.17232153455E+03  0.20576877137E+03  0.79774892704E+02 0.  0.
          5    1    3    3  501    0 -0.43510684373E+02 -0.22524371985E+02  0.39782128148E+02  0.63286923672E+02  0.47000000000E+01 0. -1.
        -11    1    4    4    0    0  0.64060332289E+01  0.14597092015E+02 -0.17480064085E+00  0.15941860377E+02  0.00000000000E+00 0.  1.
         12    1    4    4    0    0  0.12866010139E+02  0.92753525640E+02  0.27724069725E+03  0.29262801463E+03  0.00000000000E+00 0. -1.
         -5    1    5    5    0  502 -0.47195743611E+02 -0.50487183494E+02  0.22923921769E+03  0.23947672713E+03  0.47000000000E+01 0.  1.
         11    1    6    6    0    0  0.30671382099E+02  0.38620227028E+01  0.13521269627E+03  0.13870155778E+03  0.00000000000E+00 0. -1.
        -12    1    6    6    0    0  0.40763002517E+02 -0.38201084879E+02  0.37108838282E+02  0.67067213590E+02  0.00000000000E+00 0.  1.
</event>
<event>
12    1  0.8461994E-002  0.3185221E+03  0.7818608E-02  0.1076444E+00
         21   -1    0    0  503  502  0.00000000000E+00  0.00000000000E+00  0.48976514482E+03  0.48976514482E+03  0.00000000000E+00 0.  1.
         21   -1    0    0  501  503 -0.00000000000E+00 -0.00000000000E+00 -0.25918854299E+03  0.25918854299E+03  0.00000000000E+00 0. -1.
          6    2    1    2  501    0 -0.14068670197E+03 -0.22716234926E+03 -0.53373192528E+02  0.32296291069E+03  0.17338068800E+03 0.  0.
         24    2    3    3    0    0 -0.51236717139E+01 -0.92254763874E+02  0.61122139287E+01  0.12261821936E+03  0.80378324752E+02 0.  0.
         -6    2    1    2    0  502  0.14068670197E+03  0.22716234926E+03  0.28394979436E+03  0.42599077712E+03  0.17159596569E+03 0.  0.
        -24    2    5    5    0    0  0.49822462625E+02  0.12598966526E+03  0.23192266987E+03  0.28031602412E+03  0.80207699396E+02 0.  0.
          5    1    3    3  501    0 -0.13556303025E+03 -0.13490758538E+03 -0.59485406457E+02  0.20034469133E+03  0.47000000000E+01 0. -1.
        -11    1    4    4    0    0 -0.29308043486E+02 -0.14315186786E+02  0.22182355156E+02  0.39445441637E+02  0.00000000000E+00 0.  1.
         12    1    4    4    0    0  0.24184371772E+02 -0.77939577088E+02 -0.16070141227E+02  0.83172777720E+02  0.00000000000E+00 0. -1.
         -5    1    5    5    0  502  0.90864239342E+02  0.10117268400E+03  0.52027124490E+02  0.14567475300E+03  0.47000000000E+01 0.  1.
         13    1    6    6    0    0  0.42909770343E+01  0.66824228415E+02  0.49693178699E+02  0.83386461709E+02  0.00000000000E+00 0. -1.
        -14    1    6    6    0    0  0.45531485590E+02  0.59165436840E+02  0.18222949117E+03  0.19692956241E+03  0.00000000000E+00 0.  1.
</event>
<event>
12    1  0.8461994E-002  0.1876608E+03  0.7818608E-02  0.1160707E+00
         21   -1    0    0  501  502  0.00000000000E+00  0.00000000000E+00  0.98841205434E+03  0.98841205434E+03  0.00000000000E+00 0. -1.
         21   -1    0    0  502  503 -0.00000000000E+00 -0.00000000000E+00 -0.37169129465E+02  0.37169129465E+02  0.00000000000E+00 0. -1.
         -6    2    1    2    0  503  0.49415131654E+02 -0.56553957701E+02  0.36860354996E+03  0.41362442313E+03  0.17197785032E+03 0.  0.
        -24    2    3    3    0    0  0.85998363219E+02 -0.78838809192E+02  0.31008252654E+03  0.34094879021E+03  0.80520978461E+02 0.  0.
          6    2    1    2  501    0 -0.49415131654E+02  0.56553957701E+02  0.58263937492E+03  0.61195676067E+03  0.17141245685E+03 0.  0.
         24    2    5    5    0    0  0.10269092715E+02  0.87589084503E+02  0.32951548411E+03  0.35000413169E+03  0.78390917484E+02 0.  0.
          5    1    5    5  501    0 -0.59684224368E+02 -0.31035126802E+02  0.25312389080E+03  0.26195262898E+03  0.47000000000E+01 0. -1.
        -11    1    6    6    0    0  0.27307020709E+02 -0.14393610901E+01  0.75107793882E+02  0.79930756547E+02  0.00000000000E+00 0.  1.
         12    1    6    6    0    0 -0.17037927995E+02  0.89028445593E+02  0.25440769023E+03  0.27007337515E+03  0.00000000000E+00 0. -1.
         -5    1    3    3    0  503 -0.36583231566E+02  0.22284851491E+02  0.58521023423E+02  0.72675632920E+02  0.47000000000E+01 0.  1.
         13    1    4    4    0    0  0.35954095293E+02 -0.42679794043E+02  0.24485907753E+03  0.25113786978E+03  0.00000000000E+00 0. -1.
        -14    1    4    4    0    0  0.50044267926E+02 -0.36159015148E+02  0.65223449006E+02  0.89810920433E+02  0.00000000000E+00 0.  1.
</event>
<event>
12    1  0.8461994E-002  0.2542027E+03  0.7818608E-02  0.1110916E+00
         21   -1    0    0  503  502  0.00000000000E+00  0.00000000000E+00  0.57064854557E+03  0.57064854557E+03  0.00000000000E+00 0. -1.
         21   -1    0    0  501  503 -0.00000000000E+00 -0.00000000000E+00 -0.11313137294E+03  0.11313137294E+03  0.00000000000E+00 0. -1.
          6    2    1    2  501    0 -0.17841496194E+03 -0.49716458067E+02  0.25250998300E+03  0.35721143701E+03  0.17185777368E+03 0.  0.
         24    2    3    3    0    0 -0.22876027403E+02 -0.41772608307E+02  0.12321592384E+03  0.15474043010E+03  0.80586434256E+02 0.  0.
         -6    2    1    2    0  502  0.17841496194E+03  0.49716458067E+02  0.20500718963E+03  0.32656848150E+03  0.17411318291E+03 0.  0.
        -24    2    5    5    0    0  0.15503527368E+03  0.95887462149E+02  0.15209638903E+03  0.25240640048E+03  0.85704947142E+02 0.  0.
          5    1    3    3  501    0 -0.15553893454E+03 -0.79438497597E+01  0.12929405916E+03  0.20247100691E+03  0.47000000000E+01 0. -1.
        -13    1    4    4    0    0  0.30134179141E+02 -0.13010586439E+02  0.51047313563E+02  0.60689145108E+02  0.00000000000E+00 0.  1.
         14    1    4    4    0    0 -0.53010206544E+02 -0.28762021869E+02  0.72168610277E+02  0.94051284995E+02  0.00000000000E+00 0. -1.
         -5    1    5    5    0  502  0.23379688260E+02 -0.46171004082E+02  0.52910800599E+02  0.74162081019E+02  0.47000000000E+01 0.  1.
         13    1    6    6    0    0  0.11388152421E+03  0.47986561220E+02  0.14234866136E+03  0.18850690439E+03  0.00000000000E+00 0. -1.
        -14    1    6    6    0    0  0.41153749471E+02  0.47900900929E+02  0.97477276744E+01  0.63899496087E+02  0.00000000000E+00 0.  1.
</event>
<event>
12    1  0.8461994E-002  0.1879910E+03  0.7818608E-02  0.1160700E+00
         21   -1    0    0  501  502  0.00000000000E+00  0.00000000000E+00  0.47625201541E+03  0.47625201541E+03  0.00000000000E+00 0.  1.
         21   -1    0    0  502  503 -0.00000000000E+00 -0.00000000000E+00 -0.75400012609E+02  0.75400012609E+02  0.00000000000E+00 0.  1.
         -6    2    1    2    0  503  0.27216625449E+02 -0.65430142383E+02  0.15754360157E+03  0.24527655132E+03  0.17412280723E+03 0.  0.
        -24    2    3    3    0    0  0.68952398229E+02 -0.30249396825E+02  0.15540957514E+03  0.19044769344E+03  0.80303976610E+02 0.  0.
          6    2    1    2  501    0 -0.27216625449E+02  0.65430142383E+02  0.24330840123E+03  0.30637547670E+03  0.17217754319E+03 0.  0.
         24    2    5    5    0    0  0.27540919967E+02  0.92277230975E+02  0.14935135644E+03  0.19426316154E+03  0.78477758824E+02 0.  0.
          5    1    5    5  501    0 -0.54757545416E+02 -0.26847088592E+02  0.93957044787E+02  0.11211231516E+03  0.47000000000E+01 0. -1.
        -11    1    6    6    0    0 -0.17150529343E+02  0.13190101821E+02  0.71253393962E+02  0.74465868651E+02  0.00000000000E+00 0.  1.
         12    1    6    6    0    0  0.44691449310E+02  0.79087129154E+02  0.78097962480E+02  0.11979729289E+03  0.00000000000E+00 0. -1.
         -5    1    3    3    0  503 -0.41735772780E+02 -0.35180745558E+02  0.21340264251E+01  0.54828857879E+02  0.47000000000E+01 0.  1.
         13    1    4    4    0    0  0.30374922761E+02 -0.16762453371E+01  0.13482406721E+03  0.13821351175E+03  0.00000000000E+00 0. -1.
        -14    1    4    4    0    0  0.38577475468E+02 -0.28573151488E+02  0.20585507930E+02  0.52234181684E+02  0.00000000000E+00 0.  1.
</event>
<event>
12    1  0.8461994E-002  0.1977574E+03  0.7818608E-02  0.1151662E+00
         21   -1    0    0  503  502  0.00000000000E+00  0.00000000000E+00  0.79587266864E+03  0.79587266864E+03  0.00000000000E+00 0.  1.
         21   -1    0    0  501  503 -0.00000000000E+00 -0.00000000000E+00 -0.60712725080E+02  0.60712725080E+02  0.00000000000E+00 0. -1.
          6    2    1    2  501    0 -0.89265684856E+02 -0.44774404022E+02  0.18047741476E+03  0.26773139178E+03  0.17068945825E+03 0.  0.
         24    2    3    3    0    0 -0.72864863884E+02  0.22030209792E+02  0.16438015206E+03  0.19692845948E+03  0.77235776879E+02 0.  0.
         -6    2    1    2    0  502  0.89265684856E+02  0.44774404022E+02  0.55468252880E+03  0.58885400194E+03  0.17059665325E+03 0.  0.
        -24    2    5    5    0    0  0.73481829503E+01  0.24337091601E+02  0.12111549006E+03  0.14711807637E+03  0.79551723065E+02 0.  0.
          5    1    3    3  501    0 -0.16400820972E+02 -0.66804613814E+02  0.16097262702E+02  0.70802932297E+02  0.47000000000E+01 0. -1.
        -11    1    4    4    0    0 -0.86555704549E+02  0.91808935093E+01  0.14941056265E+03  0.17291528280E+03  0.00000000000E+00 0.  1.
         12    1    4    4    0    0  0.13690840665E+02  0.12849316283E+02  0.14969589407E+02  0.24013176676E+02  0.00000000000E+00 0. -1.
         -5    1    5    5    0  502  0.81917501906E+02  0.20437312422E+02  0.43356703874E+03  0.44173592557E+03  0.47000000000E+01 0.  1.
         13    1    6    6    0    0  0.51187504817E+01  0.51329425673E+02  0.53683732640E+02  0.74450350547E+02  0.00000000000E+00 0. -1.
        -14    1    6    6    0    0  0.22294324686E+01 -0.26992334073E+02  0.67431757417E+02  0.72667725822E+02  0.00000000000E+00 0.  1.
</event>
<event>
12    1  0.8461994E-002  0.1917203E+03  0.7818608E-02  0.1157010E+00
         21   -1    0    0  503  502  0.00000000000E+00  0.00000000000E+00  0.12412244944E+03  0.12412244944E+03  0.00000000000E+00 0. -1.
         21   -1    0    0  501  503 -0.00000000000E+00 -0.00000000000E+00 -0.66156560073E+03  0.66156560073E+03  0.00000000000E+00 0. -1.
          6    2    1    2  501    0  0.39121831404E+02 -0.73332025710E+02 -0.56107079456E+03  0.59292252283E+03  0.17276740977E+03 0.  0.
         24    2    3    3    0    0 -0.17548562250E+02 -0.43385542656E+02 -0.48266636351E+03  0.49154367803E+03  0.80362376753E+02 0.  0.
         -6    2    1    2    0  502 -0.39121831404E+02  0.73332025710E+02  0.23627643274E+02  0.19276552734E+03  0.17231418779E+03 0.  0.
        -24    2    5    5    0    0 -0.51609566627E+02 -0.14384631612E+02 -0.60615964380E+01  0.99204336357E+02  0.83272398828E+02 0.  0.
          5    1    3    3  501    0  0.56670393654E+02 -0.29946483054E+02 -0.78404431055E+02  0.10137884480E+03  0.47000000000E+01 0. -1.
        -13    1    4    4    0    0 -0.36764522430E+02 -0.53050660327E+02 -0.26207553718E+03  0.26990663174E+03  0.00000000000E+00 0.  1.
         14    1    4    4    0    0  0.19215960180E+02  0.96651176715E+01 -0.22059082633E+03  0.22163704629E+03  0.00000000000E+00 0. -1.
         -5    1    5    5    0  502  0.12487735223E+02  0.87716657322E+02  0.29689239712E+02  0.93561190979E+02  0.47000000000E+01 0.  1.
         11    1    6    6    0    0 -0.78813133371E+00 -0.25769843408E+02  0.27145244920E+02  0.37437552031E+02  0.00000000000E+00 0. -1.
        -12    1    6    6    0    0 -0.50821435293E+02  0.11385211797E+02 -0.33206841358E+02  0.61766784326E+02  0.00000000000E+00 0.  1.
</event>
<event>
12    1  0.8461994E-002  0.1856925E+03  0.7818608E-02  0.1162507E+00
         21   -1    0    0  501  502  0.00000000000E+00  0.00000000000E+00  0.29145454551E+03  0.29145454551E+03  0.00000000000E+00 0. -1.
         21   -1    0    0  502  503 -0.00000000000E+00 -0.00000000000E+00 -0.11805752308E+03  0.11805752308E+03  0.00000000000E+00 0.  1.
         -6    2    1    2    0  503 -0.68706049401E+02  0.14550014027E+02  0.83373383216E+02  0.20314836546E+03  0.17142319921E+03 0.  0.
        -24    2    3    3    0    0  0.15493474598E+02 -0.15247601354E+01 -0.21145298100E+01  0.81994614055E+02  0.80475293408E+02 0.  0.
          6    2    1    2  501    0  0.68706049401E+02 -0.14550014027E+02  0.90023639206E+02  0.20636370313E+03  0.17189967487E+03 0.  0.
         24    2    5    5    0    0  0.43853887680E+02  0.45205243265E+02  0.25455717048E+02  0.11482449138E+03  0.92574255637E+02 0.  0.
          5    1    5    5  501    0  0.24852161721E+02 -0.59755257293E+02  0.64567922158E+02  0.91539211752E+02  0.47000000000E+01 0. -1.
        -11    1    6    6    0    0  0.25925074405E+02 -0.12072947802E+02 -0.23780944013E+02  0.37194070088E+02  0.00000000000E+00 0.  1.
         12    1    6    6    0    0  0.17928813275E+02  0.57278191068E+02  0.49236661061E+02  0.77630421291E+02  0.00000000000E+00 0. -1.
         -5    1    3    3    0  503 -0.84199524000E+02  0.16074774163E+02  0.85487913026E+02  0.12115375141E+03  0.47000000000E+01 0.  1.
         11    1    4    4    0    0 -0.33398437648E+01 -0.29431163295E+02  0.25005103175E+02  0.38763424953E+02  0.00000000000E+00 0. -1.
        -12    1    4    4    0    0  0.18833318363E+02  0.27906403160E+02 -0.27119632985E+02  0.43231189102E+02  0.00000000000E+00 0.  1.
</event>
<event>
12    1  0.8461994E-002  0.1812356E+03  0.7818608E-02  0.1166764E+00
         21   -1    0    0  501  502  0.00000000000E+00  0.00000000000E+00  0.15907047233E+03  0.15907047233E+03  0.00000000000E+00 0.  1.
         21   -1    0    0  502  503 -0.00000000000E+00 -0.00000000000E+00 -0.25092607960E+03  0.25092607960E+03  0.00000000000E+00 0. -1.
         -6    2    1    2    0  503  0.52739133275E+02  0.16993588105E+02 -0.13295417114E+03  0.22477356751E+03  0.17255766228E+03 0.  0.
        -24    2    3    3    0    0  0.52125283532E+02 -0.19955912234E+02 -0.15024132103E+03  0.18370560021E+03  0.89777555030E+02 0.  0.
          6    2    1    2  501    0 -0.52739133275E+02 -0.16993588105E+02  0.41098563870E+02  0.18522298442E+03  0.17189608428E+03 0.  0.
         24    2    5    5    0    0 -0.54747657993E+02 -0.16995871873E+02  0.92117671851E+02  0.13394849216E+03  0.78551685974E+02 0.  0.
          5    1    5    5  501    0  0.20085247181E+01  0.22837687071E-02 -0.51019107981E+02  0.51274492254E+02  0.47000000000E+01 0. -1.
        -13    1    6    6    0    0 -0.40480250068E+02 -0.35522215226E+02  0.18881759231E+02  0.57070125738E+02  0.00000000000E+00 0.  1.
         14    1    6    6    0    0 -0.14267407925E+02  0.18526343353E+02  0.73235912620E+02  0.76878366426E+02  0.00000000000E+00 0. -1.
         -5    1    3    3    0  503  0.61384974271E+00  0.36949500339E+02  0.17287149888E+02  0.41067967299E+02  0.47000000000E+01 0.  1.
         11    1    4    4    0    0 -0.90779105318E+00 -0.17894717086E+02 -0.12253061813E+03  0.12383374889E+03  0.00000000000E+00 0. -1.
        -12    1    4    4    0    0  0.53033074586E+02 -0.20611951481E+01 -0.27710702897E+02  0.59871851320E+02  0.00000000000E+00 0.  1.
</event>
<event>
12    1  0.8461994E-002  0.2105975E+03  0.7818608E-02  0.1141214E+00
         21   -1    0    0  503  502  0.00000000000E+00  0.00000000000E+00  0.59458760415E+03  0.59458760415E+03  0.00000000000E+00 0.  1.
         21   -1    0    0  501  503 -0.00000000000E+00 -0.00000000000E+00 -0.22857185875E+03  0.22857185875E+03  0.00000000000E+00 0.  1.
          6    2    1    2  501    0 -0.98989387458E+02  0.71922355668E+02 -0.15495433738E+03  0.26146154041E+03  0.17140468595E+03 0.  0.
         24    2    3    3    0    0 -0.79384229673E+02  0.79782485888E+02 -0.38996653915E+02  0.14350214818E+03  0.80031409716E+02 0.  0.
         -6    2    1    2    0  502  0.98989387458E+02 -0.71922355668E+02  0.52097008278E+03  0.56169792250E+03  0.17065463637E+03 0.  0.
        -24    2    5    5    0    0  0.11098079047E+03 -0.20706127617E+02  0.24767630284E+03  0.28334836544E+03  0.78722713582E+02 0.  0.
          5    1    3    3  501    0 -0.19605157785E+02 -0.78601302206E+01 -0.11595768347E+03  0.11795939222E+03  0.47000000000E+01 0. -1.
        -11    1    4    4    0    0 -0.33956626493E+02 -0.11033498325E+02 -0.17261466804E+02  0.39657897124E+02  0.00000000000E+00 0.  1.
         12    1    4    4    0    0 -0.45427603180E+02  0.90815984213E+02 -0.21735187112E+02  0.10384425106E+03  0.00000000000E+00 0. -1.
         -5    1    5    5    0  502 -0.11991403015E+02 -0.51216228051E+02  0.27329377994E+03  0.27834955706E+03  0.47000000000E+01 0.  1.
         13    1    6    6    0    0  0.98027387145E+02 -0.46566498618E+02  0.20133874993E+03  0.22872494321E+03  0.00000000000E+00 0. -1.
        -14    1    6    6    0    0  0.12953403328E+02  0.25860371001E+02  0.46337552907E+02  0.54623422224E+02  0.00000000000E+00 0.  1.
</event>
<event>
12    1  0.8461994E-002  0.1855852E+03  0.7818608E-02  0.1164673E+00
         21   -1    0    0  501  502  0.00000000000E+00  0.00000000000E+00  0.25628990109E+03  0.25628990109E+03  0.00000000000E+00 0.  1.
         21   -1    0    0  502  503 -0.00000000000E+00 -0.00000000000E+00 -0.17146837318E+03  0.17146837318E+03  0.00000000000E+00 0.  1.
         -6    2    1    2    0  503  0.27846998616E+02  0.12163805156E+02 -0.66176141323E+02  0.18850494120E+03  0.17387184271E+03 0.  0.
        -24    2    3    3    0    0 -0.51425646445E+02  0.25600427626E-01 -0.19191201238E+02  0.95439572432E+02  0.78075681318E+02 0.  0.
          6    2    1    2  501    0 -0.27846998616E+02 -0.12163805156E+02  0.15099766923E+03  0.23925333307E+03  0.18308044075E+03 0.  0.
         24    2    5    5    0    0  0.41402670503E+02  0.40796076400E+01  0.14290082186E+03  0.16751063958E+03  0.76865760655E+02 0.  0.
          5    1    5    5  501    0 -0.69249669119E+02 -0.16243412796E+02  0.80968473726E+01  0.71742693494E+02  0.47000000000E+01 0. -1.
        -13    1    6    6    0    0 -0.56084636409E+01 -0.26660191851E+02  0.25277772522E+02  0.37164317263E+02  0.00000000000E+00 0.  1.
         14    1    6    6    0    0  0.47011134144E+02  0.30739799491E+02  0.11762304933E+03  0.13034632231E+03  0.00000000000E+00 0. -1.
         -5    1    3    3    0  503  0.79272645061E+02  0.12138204729E+02 -0.46984940085E+02  0.93065368767E+02  0.47000000000E+01 0.  1.
         13    1    4    4    0    0 -0.17937002340E+02 -0.32511427435E+02 -0.29737255519E+02  0.47571349914E+02  0.00000000000E+00 0. -1.
        -14    1    4    4    0    0 -0.33488644104E+02  0.32537027863E+02  0.10546054281E+02  0.47868222518E+02  0.00000000000E+00 0.  1.
</event>
<event>
12    1  0.8461994E-002  0.1927558E+03  0.7818608E-02  0.1156039E+00
         21   -1    0    0  503  502  0.00000000000E+00  0.00000000000E+00  0.51834908089E+03  0.51834908089E+03  0.00000000000E+00 0. -1.
         21   -1    0    0  501  503 -0.00000000000E+00 -0.00000000000E+00 -0.13902363487E+03  0.13902363487E+03  0.00000000000E+00 0. -1.
          6    2    1    2  501    0 -0.12387123232E+02 -0.87799648957E+02 -0.39262796753E+02  0.19653553721E+03  0.17094569605E+03 0.  0.
         24    2    3    3    0    0  0.39323321163E+02 -0.18303677420E+02 -0.58095569673E+02  0.10776378801E+03  0.79728229612E+02 0.  0.
         -6    2    1    2    0  502  0.12387123232E+02  0.87799648957E+02  0.41858824278E+03  0.46083717855E+03  0.17115072003E+03 0.  0.
        -24    2    5    5    0    0 -0.36843121884E+02  0.99559938687E+02  0.23472823777E+03  0.27007944505E+03  0.81092317832E+02 0.  0.
          5    1    3    3  501    0 -0.51710444396E+02 -0.69495971537E+02  0.18832772920E+02  0.88771749196E+02  0.47000000000E+01 0. -1.
        -11    1    4    4    0    0  0.36175650148E+02 -0.91727672940E+01  0.10279246629E+02  0.38710208405E+02  0.00000000000E+00 0.  1.
         12    1    4    4    0    0  0.31476710151E+01 -0.91309101264E+01 -0.68374816302E+02  0.69053579609E+02  0.00000000000E+00 0. -1.
         -5    1    5    5    0  502  0.49230245116E+02 -0.11760289730E+02  0.18386000501E+03  0.19075773350E+03  0.47000000000E+01 0.  1.
         11    1    6    6    0    0 -0.16985268149E+02  0.10668913329E+03  0.16493254400E+03  0.19716443535E+03  0.00000000000E+00 0. -1.
        -12    1    6    6    0    0 -0.19857853735E+02 -0.71291946081E+01  0.69795693768E+02  0.72915009698E+02  0.00000000000E+00 0.  1.
</event>
<event>
12    1  0.8461994E-002  0.3053796E+03  0.7818608E-02  0.1082613E+00
         21   -1    0    0  503  502  0.00000000000E+00  0.00000000000E+00  0.17399491033E+03  0.17399491033E+03  0.00000000000E+00 0. -1.
         21   -1    0    0  501  503 -0.00000000000E+00 -0.00000000000E+00 -0.59317082004E+03  0.59317082004E+03  0.00000000000E+00 0. -1.
          6    2    1    2  501    0 -0.17721384549E+03 -0.18024188200E+03 -0.32908499448E+03  0.44877432397E+03  0.17090809577E+03 0.  0.
         24    2    3    3    0    0 -0.18355335767E+03 -0.11783488421E+03 -0.20363502809E+03  0.30843684909E+03  0.78033135040E+02 0.  0.
         -6    2    1    2    0  502  0.17721384549E+03  0.18024188200E+03 -0.90090915236E+02  0.31839140640E+03  0.17136169817E+03 0.  0.
        -24    2    5    5    0    0  0.74745898823E+02  0.83526228088E+02  0.21565840156E+02  0.13855003510E+03  0.78533092355E+02 0.  0.
          5    1    3    3  501    0  0.63395121758E+01 -0.62406997795E+02 -0.12544996639E+03  0.14033747488E+03  0.47000000000E+01 0. -1.
        -13    1    4    4    0    0 -0.14128930044E+03 -0.53538189367E+02 -0.15963630382E+03  0.21980162337E+03  0.00000000000E+00 0.  1.
         14    1    4    4    0    0 -0.42264057230E+02 -0.64296694840E+02 -0.43998724266E+02  0.88635225717E+02  0.00000000000E+00 0. -1.
         -5    1    5    5    0  502  0.10246794667E+03  0.96715653915E+02 -0.11165675539E+03  0.17984137130E+03  0.47000000000E+01 0.  1.
         11    1    6    6    0    0  0.86286274636E+02  0.73768604445E+02  0.16296589452E+01  0.11353318449E+03  0.00000000000E+00 0. -1.
        -12    1    6    6    0    0 -0.11540375813E+02  0.97576236431E+01  0.19936181211E+02  0.25016850608E+02  0.00000000000E+00 0.  1.
</event>
<event>
12    1  0.8461994E-002  0.1986984E+03  0.7818608E-02  0.1150905E+00
         21   -1    0    0  503  502  0.00000000000E+00  0.00000000000E+00  0.41022171871E+03  0.41022171871E+03  0.00000000000E+00 0.  1.
         21   -1    0    0  501  503 -0.00000000000E+00 -0.00000000000E+00 -0.96532481371E+02  0.96532481371E+02  0.00000000000E+00 0.  1.
          6    2    1    2  501    0 -0.98427394583E+02  0.94410543654E+01  0.13999920632E+03  0.24306544853E+03  0.17234833619E+03 0.  0.
         24    2    3    3    0    0 -0.97386568547E+02  0.53095584769E+02  0.14444052415E+03  0.19892231036E+03  0.80023344641E+02 0.  0.
         -6    2    1    2    0  502  0.98427394583E+02 -0.94410543654E+01  0.17369003102E+03  0.26368875155E+03  0.17200710831E+03 0.  0.
        -24    2    5    5    0    0  0.10434129442E+03 -0.53119343579E+02  0.85756443906E+02  0.16521452700E+03  0.78948729407E+02 0.  0.
          5    1    3    3  501    0 -0.10408260363E+01 -0.43654530404E+02 -0.44413178229E+01  0.44143138172E+02  0.47000000000E+01 0. -1.
        -13    1    4    4    0    0 -0.37774620114E+02 -0.49637902056E+01  0.94456428200E+02  0.10185076321E+03  0.00000000000E+00 0.  1.
         14    1    4    4    0    0 -0.59611948433E+02  0.58059374975E+02  0.49984095945E+02  0.97071547149E+02  0.00000000000E+00 0. -1.
         -5    1    5    5    0  502 -0.59138998393E+01  0.43678289213E+02  0.87933587113E+02  0.98474224559E+02  0.47000000000E+01 0.  1.
         13    1    6    6    0    0  0.10118575372E+02 -0.43677043418E+02  0.16010385582E+02  0.47606744646E+02  0.00000000000E+00 0. -1.
        -14    1    6    6    0    0  0.94222719050E+02 -0.94423001609E+01  0.69746058325E+02  0.11760778235E+03  0.00000000000E+00 0.  1.
</event>
<event>
12    1  0.8461994E-002  0.1767491E+03  0.7818608E-02  0.1172005E+00
         21   -1    0    0  503  502  0.00000000000E+00  0.00000000000E+00  0.67548229720E+03  0.67548229720E+03  0.00000000000E+00 0.  1.
         21   -1    0    0  501  503 -0.00000000000E+00 -0.00000000000E+00 -0.24745666070E+03  0.24745666070E+03  0.00000000000E+00 0.  1.
          6    2    1    2  501    0 -0.20759296699E+02 -0.38018954221E+02 -0.20273588845E+03  0.26896485612E+03  0.17135887512E+03 0.  0.
         24    2    3    3    0    0 -0.69608974043E+02 -0.54138187621E+01 -0.17308311942E+03  0.20300454573E+03  0.79864639598E+02 0.  0.
         -6    2    1    2    0  502  0.20759296699E+02  0.38018954221E+02  0.63076152495E+03  0.65397410179E+03  0.16716948037E+03 0.  0.
        -24    2    5    5    0    0  0.15822372373E+02 -0.19034580341E+02  0.53981998273E+03  0.54640118173E+03  0.80845376645E+02 0.  0.
          5    1    3    3  501    0  0.48849677343E+02 -0.32605135459E+02 -0.29652769024E+02  0.65960310382E+02  0.47000000000E+01 0. -1.
        -13    1    4    4    0    0 -0.10178627873E+02  0.31482271563E+02 -0.34700987696E+02  0.47946808394E+02  0.00000000000E+00 0.  1.
         14    1    4    4    0    0 -0.59430346170E+02 -0.36896090325E+02 -0.13838213173E+03  0.15505773734E+03  0.00000000000E+00 0. -1.
         -5    1    5    5    0  502  0.49369243267E+01  0.57053534562E+02  0.90941542221E+02  0.10757292006E+03  0.47000000000E+01 0.  1.
         11    1    6    6    0    0 -0.36482550957E+01  0.27055226058E+02  0.97160814713E+02  0.10092333198E+03  0.00000000000E+00 0. -1.
        -12    1    6    6    0    0  0.19470627468E+02 -0.46089806400E+02  0.44265916802E+03  0.44547784975E+03  0.00000000000E+00 0.  1.
</event>
<event>
12    1  0.8461994E-002  0.1948315E+03  0.7818608E-02  0.1154991E+00
         21   -1    0    0  501  502  0.00000000000E+00  0.00000000000E+00  0.49514460760E+03  0.49514460760E+03  0.00000000000E+00 0. -1.
         21   -1    0    0  502  503 -0.00000000000E+00 -0.00000000000E+00 -0.97969378862E+02  0.97969378862E+02  0.00000000000E+00 0. -1.
         -6    2    1    2    0  503 -0.74705892595E+02 -0.60264736183E+02  0.54201873145E+02  0.19866494982E+03  0.16527888679E+03 0.  0.
        -24    2    3    3    0    0 -0.40546074145E+01 -0.67359580887E+02  0.66645276143E+02  0.12642320844E+03  0.83591158758E+02 0.  0.
          6    2    1    2  501    0  0.74705892595E+02  0.60264736183E+02  0.34297335559E+03  0.39444903664E+03  0.16954796090E+03 0.  0.
         24    2    5    5    0    0  0.34367213031E+02 -0.19443911466E+01  0.29096015285E+03  0.30375919238E+03  0.80168263173E+02 0.  0.
          5    1    5    5  501    0  0.40338679564E+02  0.62209127329E+02  0.52013202738E+02  0.90689844256E+02  0.47000000000E+01 0. -1.
        -11    1    6    6    0    0 -0.20548285338E+02 -0.10102817985E+02  0.34839640929E+02  0.41690521005E+02  0.00000000000E+00 0.  1.
         12    1    6    6    0    0  0.54915498369E+02  0.81584268389E+01  0.25612051192E+03  0.26206867138E+03  0.00000000000E+00 0. -1.
         -5    1    3    3    0  503 -0.70651285181E+02  0.70948447038E+01 -0.12443402998E+02  0.72241741378E+02  0.47000000000E+01 0.  1.
         13    1    4    4    0    0 -0.41971268227E+02 -0.50997598649E+02  0.38536540608E+02  0.76468342382E+02  0.00000000000E+00 0. -1.
        -14    1    4    4    0    0  0.37916660812E+02 -0.16361982238E+02  0.28108735534E+02  0.49954866062E+02  0.00000000000E+00 0.  1.
</event>
<event>
12    1  0.8461994E-002  0.2165136E+03  0.7818608E-02  0.1136860E+00
         21   -1    0    0  503  502  0.00000000000E+00  0.00000000000E+00  0.89296667942E+03  0.89296667942E+03  0.00000000000E+00 0. -1.
         21   -1    0    0  501  503 -0.00000000000E+00 -0.00000000000E+00 -0.17559447807E+03  0.17559447807E+03  0.00000000000E+00 0. -1.
          6    2    1    2  501    0  0.12188788093E+03  0.39966856464E+02 -0.89910883371E+02  0.23274771582E+03  0.17214391403E+03 0.  0.
         24    2    3    3    0    0  0.58861337446E+02  0.66643099270E+02 -0.10395042322E+03  0.16272510667E+03  0.88135180977E+02 0.  0.
         -6    2    1    2    0  502 -0.12188788093E+03 -0.39966856464E+02  0.80728308472E+03  0.83581344167E+03  0.17442512795E+03 0.  0.
        -24    2    5    5    0    0 -0.38186640268E+02 -0.74788872284E+02  0.32429529832E+03  0.34436887482E+03  0.79817833332E+02 0.  0.
          5    1    3    3  501    0  0.63026543481E+02 -0.26676242806E+02  0.14039539851E+02  0.70022609154E+02  0.47000000000E+01 0. -1.
        -13    1    4    4    0    0  0.31559314666E+01  0.42117344025E+01 -0.73496380765E+02  0.73684575018E+02  0.00000000000E+00 0.  1.
         14    1    4    4    0    0  0.55705405979E+02  0.62431364867E+02 -0.30454042457E+02  0.89040531650E+02  0.00000000000E+00 0. -1.
         -5    1    5    5    0  502 -0.83701240659E+02  0.34822015821E+02  0.48298778640E+03  0.49144456685E+03  0.47000000000E+01 0.  1.
         11    1    6    6    0    0 -0.37996652362E+02  0.71728165792E+00  0.14333856151E+03  0.14829094139E+03  0.00000000000E+00 0. -1.
        -12    1    6    6    0    0 -0.18998790578E+00 -0.75506153942E+02  0.18095673681E+03  0.19607793342E+03  0.00000000000E+00 0.  1.
</event>
<event>
12    1  0.8461994E-002  0.1892509E+03  0.7818608E-02  0.1160260E+00
         21   -1    0    0  501  502  0.00000000000E+00  0.00000000000E+00  0.54397873226E+03  0.54397873226E+03  0.00000000000E+00 0. -1.
         21   -1    0    0  502  503 -0.00000000000E+00 -0.00000000000E+00 -0.73379214529E+02  0.73379214529E+02  0.00000000000E+00 0.  1.
         -6    2    1    2    0  503 -0.48326961784E+02  0.41964267399E+02  0.12854906455E+03  0.22878106705E+03  0.17809946566E+03 0.  0.
        -24    2    3    3    0    0 -0.49664624648E+02  0.83300676619E+02  0.13778962659E+03  0.18614345389E+03  0.79106425541E+02 0.  0.
          6    2    1    2  501    0  0.48326961784E+02 -0.41964267399E+02  0.34205045317E+03  0.38857687974E+03  0.17290744339E+03 0.  0.
         24    2    5    5    0    0  0.66881748972E+02 -0.82120577917E+02  0.20350974995E+03  0.24306940277E+03  0.80309143808E+02 0.  0.
          5    1    5    5  501    0 -0.18554787188E+02  0.40156310517E+02  0.13854070323E+03  0.14550747697E+03  0.47000000000E+01 0. -1.
        -13    1    6    6    0    0  0.46756286526E+02 -0.23581657399E+02  0.33560560991E+02  0.62197718202E+02  0.00000000000E+00 0.  1.
         14    1    6    6    0    0  0.20125462446E+02 -0.58538920517E+02  0.16994918895E+03  0.18087168457E+03  0.00000000000E+00 0. -1.
         -5    1    3    3    0  503  0.13376628639E+01 -0.41336409220E+02 -0.92405620379E+01  0.42637613159E+02  0.47000000000E+01 0.  1.
         13    1    4    4    0    0  0.17669946632E+02 -0.35009436374E+00  0.22086635213E+02  0.28287259236E+02  0.00000000000E+00 0. -1.
        -14    1    4    4    0    0 -0.67334571280E+02  0.83650770983E+02  0.11570299138E+03  0.15785619465E+03  0.00000000000E+00 0.  1.
</event>
<event>
12    1  0.8461994E-002  0.1736288E+03  0.7818608E-02  0.1174546E+00
         21   -1    0    0  503  502  0.00000000000E+00  0.00000000000E+00  0.50171527335E+03  0.50171527335E+03  0.00000000000E+00 0. -1.
         21   -1    0    0  501  503 -0.00000000000E+00 -0.00000000000E+00 -0.25856975339E+03  0.25856975339E+03  0.00000000000E+00 0. -1.
          6    2    1    2  501    0  0.22345558787E+02  0.40981239506E+01 -0.21183467465E+03  0.27389941582E+03  0.17213611470E+03 0.  0.
         24    2    3    3    0    0 -0.22663165758E+02  0.38891445032E+02 -0.18996136015E+03  0.21276928933E+03  0.84612579186E+02 0.  0.
         -6    2    1    2    0  502 -0.22345558787E+02 -0.40981239506E+01  0.45498019461E+03  0.48638561091E+03  0.17043434630E+03 0.  0.
        -24    2    5    5    0    0  0.33413525278E+02  0.45367315544E+02  0.24328795995E+03  0.26190488262E+03  0.78933383884E+02 0.  0.
          5    1    3    3  501    0  0.45008724544E+02 -0.34793321081E+02 -0.21873314509E+02  0.61130126489E+02  0.47000000000E+01 0. -1.
        -13    1    4    4    0    0  0.20649032745E+02  0.38602758547E+02 -0.50992762270E+02  0.67207271367E+02  0.00000000000E+00 0.  1.
         14    1    4    4    0    0 -0.43312198502E+02  0.28868648507E+00 -0.13896859788E+03  0.14556201797E+03  0.00000000000E+00 0. -1.
         -5    1    5    5    0  502 -0.55759084065E+02 -0.49465439494E+02  0.21169223466E+03  0.22448072829E+03  0.47000000000E+01 0.  1.
         11    1    6    6    0    0  0.41026675745E+02 -0.96281400903E+00  0.16987682002E+03  0.17476340896E+03  0.00000000000E+00 0. -1.
        -12    1    6    6    0    0 -0.76131504674E+01  0.46330129553E+02  0.73411139935E+02  0.87141473656E+02  0.00000000000E+00 0.  1.
</event>
<event>
12    1  0.8461994E-002  0.2028011E+03  0.7818608E-02  0.1149165E+00
         21   -1    0    0  503  502  0.00000000000E+00  0.00000000000E+00  0.12539807245E+04  0.12539807245E+04  0.00000000000E+00 0. -1.
         21   -1    0    0  501  503 -0.00000000000E+00 -0.00000000000E+00 -0.65709103372E+02  0.65709103372E+02  0.00000000000E+00 0. -1.
          6    2    1    2  501    0 -0.66619129671E+02 -0.59480473027E+02  0.11185095003E+03  0.22433155662E+03  0.17273672789E+03 0.  0.
         24    2    3    3    0    0 -0.12317246653E+02 -0.59247347734E+02  0.13197463216E+03  0.16622990923E+03  0.80951321251E+02 0.  0.
         -6    2    1    2    0  502  0.66619129671E+02  0.59480473027E+02  0.10764206711E+04  0.10953582712E+04  0.18207758270E+03 0.  0.
        -24    2    5    5    0    0  0.10793561547E+03  0.49161700289E+01  0.70774019586E+03  0.72034934071E+03  0.79578401685E+02 0.  0.
          5    1    3    3  501    0 -0.54301883018E+02 -0.23312529258E+00 -0.20123682127E+02  0.58101647387E+02  0.47000000000E+01 0. -1.
        -11    1    4    4    0    0  0.20250091190E+02  0.11269353722E+02  0.25855679320E+02  0.34721472889E+02  0.00000000000E+00 0.  1.
         12    1    4    4    0    0 -0.32567337843E+02 -0.70516701456E+02  0.10611895284E+03  0.13150843634E+03  0.00000000000E+00 0. -1.
         -5    1    5    5    0  502 -0.41316485804E+02  0.54564302998E+02  0.36868047522E+03  0.37500893052E+03  0.47000000000E+01 0.  1.
         13    1    6    6    0    0  0.34638451811E+02 -0.19915311200E+02  0.43532741136E+03  0.43715717659E+03  0.00000000000E+00 0. -1.
        -14    1    6    6    0    0  0.73297163664E+02  0.24831481229E+02  0.27241278451E+03  0.28319216413E+03  0.00000000000E+00 0.  1.
</event>
<event>
12    1  0.8461994E-002  0.1971676E+03  0.7818608E-02  0.1152189E+00
         21   -1    0    0  503  502  0.00000000000E+00  0.00000000000E+00  0.11492880843E+03  0.11492880843E+03  0.00000000000E+00 0. -1.
         21   -1    0    0  501  503 -0.00000000000E+00 -0.00000000000E+00 -0.76742836936E+03  0.76742836936E+03  0.00000000000E+00 0. -1.
          6    2    1    2  501    0  0.15686162159E+01  0.97182296678E+02 -0.65635393230E+03  0.68532877557E+03  0.17154645680E+03 0.  0.
         24    2    3    3    0    0  0.52562301424E+02  0.62220117116E+02 -0.25583717590E+03  0.28004064092E+03  0.79598753085E+02 0.  0.
         -6    2    1    2    0  502 -0.15686162159E+01 -0.97182296678E+02  0.38543713646E+01  0.19702840222E+03  0.17134315206E+03 0.  0.
        -24    2    5    5    0    0  0.63024457177E+02 -0.41646789461E+02 -0.11115491829E+02  0.11041059518E+03  0.79752166707E+02 0.  0.
          5    1    3    3  501    0 -0.50993685208E+02  0.34962179562E+02 -0.40051675640E+03  0.40528813465E+03  0.47000000000E+01 0. -1.
        -13    1    4    4    0    0  0.43609184867E+01  0.15124296795E+02 -0.27519422256E+00  0.15742861730E+02  0.00000000000E+00 0.  1.
         14    1    4    4    0    0  0.48201382937E+02  0.47095820321E+02 -0.25556198168E+03  0.26429777919E+03  0.00000000000E+00 0. -1.
         -5    1    5    5    0  502 -0.64593073393E+02 -0.55535507217E+02  0.14969863194E+02  0.86617807039E+02  0.47000000000E+01 0.  1.
         13    1    6    6    0    0 -0.29350940048E+01 -0.43471263133E+02 -0.47115317994E+00  0.43572783714E+02  0.00000000000E+00 0. -1.
        -14    1    6    6    0    0  0.65959551182E+02  0.18244736726E+01 -0.10644338649E+02  0.66837811466E+02  0.00000000000E+00 0.  1.
</event>
<event>
12    1  0.8461994E-002  0.1740509E+03  0.7818608E-02  0.1173784E+00
         21   -1    0    0  503  502  0.00000000000E+00  0.00000000000E+00  0.55467283352E+02  0.55467283352E+02  0.00000000000E+00 0. -1.
         21   -1    0    0  501  503 -0.00000000000E+00 -0.00000000000E+00 -0.66712146174E+03  0.66712146174E+03  0.00000000000E+00 0. -1.
          6    2    1    2  501    0  0.19364021894E+02  0.26851179369E+02 -0.46015723795E+03  0.49183989914E+03  0.17048710090E+03 0.  0.
         24    2    3    3    0    0  0.41299966565E+02 -0.34783788203E+02 -0.19020817568E+03  0.21403665741E+03  0.81956948817E+02 0.  0.
         -6    2    1    2    0  502 -0.19364021894E+02 -0.26851179369E+02 -0.15149694044E+03  0.23074884595E+03  0.17087350809E+03 0.  0.
        -24    2    5    5    0    0 -0.54016212033E+02  0.87822498382E+01 -0.33000496018E+02  0.10216419329E+03  0.79709538824E+02 0.  0.
          5    1    3    3  501    0 -0.21935944671E+02  0.61634967572E+02 -0.26994906227E+03  0.27780324173E+03  0.47000000000E+01 0. -1.
        -11    1    4    4    0    0  0.63680981872E+02 -0.11253408112E+02 -0.14040012459E+03  0.15457717047E+03  0.00000000000E+00 0.  1.
         12    1    4    4    0    0 -0.22381015307E+02 -0.23530380092E+02 -0.49808051094E+02  0.59459486940E+02  0.00000000000E+00 0. -1.
         -5    1    5    5    0  502  0.34652190138E+02 -0.35633429207E+02 -0.11849644442E+03  0.12858465266E+03  0.47000000000E+01 0.  1.
         11    1    6    6    0    0  0.10775147555E+02 -0.11702471000E+02  0.12630677650E+02  0.20312204465E+02  0.00000000000E+00 0. -1.
        -12    1    6    6    0    0 -0.64791359587E+02  0.20484720838E+02 -0.45631173668E+02  0.81851988829E+02  0.00000000000E+00 0.  1.
</event>
<event>
12    1  0.8461994E-002  0.1902168E+03  0.7818608E-02  0.1158576E+00
         21   -1    0    0  501  502  0.00000000000E+00  0.00000000000E+00  0.50029785469E+03  0.50029785469E+03  0.00000000000E+00 0. -1.
         21   -1    0    0  502  503 -0.00000000000E+00 -0.00000000000E+00 -0.91492313989E+02  0.91492313989E+02  0.00000000000E+00 0. -1.
         -6    2    1    2    0  503  0.55473913194E+02  0.58800739059E+02  0.66547538025E+02  0.20022538514E+03  0.17066560309E+03 0.  0.
        -24    2    3    3    0    0  0.95297410117E+02  0.24879796674E+02  0.75415954189E+02  0.14695926040E+03  0.78796303305E+02 0.  0.
          6    2    1    2  501    0 -0.55473913194E+02 -0.58800739059E+02  0.34225800267E+03  0.39156478353E+03  0.17218466061E+03 0.  0.
         24    2    5    5    0    0 -0.89042022604E+02 -0.10201565798E+02  0.15613705787E+03  0.19623994204E+03  0.78094687889E+02 0.  0.
          5    1    5    5  501    0  0.33568109410E+02 -0.48599173261E+02  0.18612094480E+03  0.19532484150E+03  0.47000000000E+01 0. -1.
        -13    1    6    6    0    0  0.96160117560E+01 -0.44294109044E+01 -0.97330279020E+00  0.10631776962E+02  0.00000000000E+00 0.  1.
         14    1    6    6    0    0 -0.98658034360E+02 -0.57721548935E+01  0.15711036066E+03  0.18560816507E+03  0.00000000000E+00 0. -1.
         -5    1    3    3    0  503 -0.39823496923E+02  0.33920942385E+02 -0.88684161639E+01  0.53266124739E+02  0.47000000000E+01 0.  1.
         13    1    4    4    0    0  0.53041495737E+02  0.52082616084E+02  0.33580262275E+02  0.81569805581E+02  0.00000000000E+00 0. -1.
        -14    1    4    4    0    0  0.42255914381E+02 -0.27202819410E+02  0.41835691914E+02  0.65389454822E+02  0.00000000000E+00 0.  1.
</event>
<event>
12    1  0.8461994E-002  0.1825523E+03  0.7818608E-02  0.1165582E+00
         21   -1    0    0  501  502  0.00000000000E+00  0.00000000000E+00  0.49818819386E+03  0.49818819386E+03  0.00000000000E+00 0. -1.
         21   -1    0    0  502  503 -0.00000000000E+00 -0.00000000000E+00 -0.67313748939E+02  0.67313748939E+02  0.00000000000E+00 0. -1.
         -6    2    1    2    0  503  0.84869892809E+01 -0.58956306058E+02  0.18466363736E+03  0.25899729879E+03  0.17155485073E+03 0.  0.
        -24    2    3    3    0    0 -0.16460397610E+02 -0.83004570763E+02  0.62369813714E+02  0.13180232857E+03  0.79505702295E+02 0.  0.
          6    2    1    2  501    0 -0.84869892809E+01  0.58956306058E+02  0.24621080757E+03  0.30650464401E+03  0.17256146738E+03 0.  0.
         24    2    5    5    0    0 -0.19649105336E+02  0.18728693659E+02  0.35909249151E+02  0.92047913861E+02  0.80290055205E+02 0.  0.
          5    1    5    5  501    0  0.11162116055E+02  0.40227612398E+02  0.21030155841E+03  0.21445673015E+03  0.47000000000E+01 0. -1.
        -11    1    6    6    0    0  0.28949911991E+02 -0.30081852604E+01  0.23434113749E+02  0.37367154963E+02  0.00000000000E+00 0.  1.
         12    1    6    6    0    0 -0.48599017327E+02  0.21736878920E+02  0.12475135402E+02  0.54680758898E+02  0.00000000000E+00 0. -1.
         -5    1    3    3    0  503  0.24947386891E+02  0.24048264705E+02  0.12229382364E+03  0.12719497022E+03  0.47000000000E+01 0.  1.
         11    1    4    4    0    0  0.22353461168E+02 -0.72342186064E+02  0.37588820501E+02  0.84533949022E+02  0.00000000000E+00 0. -1.
        -12    1    4    4    0    0 -0.38813858777E+02 -0.10662384699E+02  0.24780993213E+02  0.47268379550E+02  0.00000000000E+00 0.  1.
</event>
<event>
12    1  0.8461994E-002  0.2282309E+03  0.7818608E-02  0.1129619E+00
         21   -1    0    0  501  502  0.00000000000E+00  0.00000000000E+00  0.24931441841E+03  0.24931441841E+03  0.00000000000E+00 0.  1.
         21   -1    0    0  502  503 -0.00000000000E+00 -0.00000000000E+00 -0.62277102024E+03  0.62277102024E+03  0.00000000000E+00 0.  1.
         -6    2    1    2    0  503  0.41751753824E+02  0.12906993359E+03 -0.54711088067E+03  0.59280661155E+03  0.18354047577E+03 0.  0.
        -24    2    3    3    0    0 -0.28850176416E+02  0.10233897833E+02 -0.22619626738E+03  0.24335716603E+03  0.84385387005E+02 0.  0.
          6    2    1    2  501    0 -0.41751753824E+02 -0.12906993359E+03  0.17365427884E+03  0.27927882711E+03  0.17157679915E+03 0.  0.
         24    2    5    5    0    0 -0.63198012971E+02 -0.55582565970E+02  0.23627575536E+02  0.11078420721E+03  0.68054887829E+02 0.  0.
          5    1    5    5  501    0  0.21446259148E+02 -0.73487367617E+02  0.15002670330E+03  0.16849461990E+03  0.47000000000E+01 0. -1.
        -13    1    6    6    0    0 -0.64013995975E+02 -0.16870338750E+02  0.27879119052E+02  0.71830670951E+02  0.00000000000E+00 0.  1.
         14    1    6    6    0    0  0.81598300325E+00 -0.38712227219E+02 -0.42515435153E+01  0.38953536255E+02  0.00000000000E+00 0. -1.
         -5    1    3    3    0  503  0.70601930240E+02  0.11883603575E+03 -0.32091461329E+03  0.34944944552E+03  0.47000000000E+01 0.  1.
         13    1    4    4    0    0  0.11294323812E+02  0.26170865902E+02 -0.26086562505E+02  0.38639160392E+02  0.00000000000E+00 0. -1.
        -14    1    4    4    0    0 -0.40144500228E+02 -0.15936968068E+02 -0.20010970487E+03  0.20471800564E+03  0.00000000000E+00 0.  1.
</event>
<event>
12    1  0.8461994E-002  0.2640288E+03  0.7818608E-02  0.1104836E+00
         21   -1    0    0  501  502  0.00000000000E+00  0.00000000000E+00  0.45684485851E+03  0.45684485851E+03  0.00000000000E+00 0. -1.
         21   -1    0    0  502  503 -0.00000000000E+00 -0.00000000000E+00 -0.19772803851E+03  0.19772803851E+03  0.00000000000E+00 0.  1.
         -6    2    1    2    0  503 -0.15721200772E+03 -0.12375786930E+03 -0.27534869875E+02  0.26485451499E+03  0.17134211235E+03 0.  0.
        -24    2    3    3    0    0 -0.44503918542E+02 -0.79834606509E+02 -0.65614943931E+02  0.13795081756E+03  0.79818193641E+02 0.  0.
          6    2    1    2  501    0  0.15721200772E+03  0.12375786930E+03  0.28665168987E+03  0.38971838203E+03  0.17227768399E+03 0.  0.
         24    2    5    5    0    0  0.88206552628E+02 -0.22160178307E+01  0.11913060380E+03  0.16900006075E+03  0.81139467027E+02 0.  0.
          5    1    5    5  501    0  0.69005455094E+02  0.12597388713E+03  0.16752108607E+03  0.22071832128E+03  0.47000000000E+01 0. -1.
        -13    1    6    6    0    0 -0.96510345792E+01  0.13774295205E+02  0.35511025126E+02  0.39292576682E+02  0.00000000000E+00 0.  1.
         14    1    6    6    0    0  0.97857587207E+02 -0.15990313036E+02  0.83619578678E+02  0.12970748407E+03  0.00000000000E+00 0. -1.
         -5    1    3    3    0  503 -0.11270808918E+03 -0.43923262792E+02  0.38080074056E+02  0.12690369743E+03  0.47000000000E+01 0.  1.
         11    1    4    4    0    0 -0.27357061094E+02  0.72414736466E+01 -0.12641985718E+01  0.28327476596E+02  0.00000000000E+00 0. -1.
        -12    1    4    4    0    0 -0.17146857448E+02 -0.87076080156E+02 -0.64350745359E+02  0.10962334096E+03  0.00000000000E+00 0.  1.
</event>
<event>
12    1  0.8461994E-002  0.1731351E+03  0.7818608E-02  0.1174892E+00
         21   -1    0    0  501  502  0.00000000000E+00  0.00000000000E+00  0.13202844366E+03  0.13202844366E+03  0.00000000000E+00 0. -1.
         21   -1    0    0  502  503 -0.00000000000E+00 -0.00000000000E+00 -0.24724394573E+03  0.24724394573E+03  0.00000000000E+00 0. -1.
         -6    2    1    2    0  503  0.19031260379E+02 -0.47845158944E+01 -0.11383665121E+03  0.20720651037E+03  0.17201940099E+03 0.  0.
        -24    2    3    3    0    0  0.90991328441E+01  0.19218832349E+02  0.87311795567E+01  0.81827999363E+02  0.78532988278E+02 0.  0.
          6    2    1    2  501    0 -0.19031260379E+02  0.47845158944E+01 -0.13788508650E+01  0.17206587902E+03  0.17093766416E+03 0.  0.
         24    2    5    5    0    0  0.34175674852E+02  0.21357637258E+02 -0.46951504154E+02  0.99922944256E+02  0.78460344287E+02 0.  0.
          5    1    5    5  501    0 -0.53206935232E+02 -0.16573121363E+02  0.45572653290E+02  0.72142934764E+02  0.47000000000E+01 0. -1.
        -13    1    6    6    0    0 -0.21633175084E+01 -0.24670507769E+02  0.54545874918E-01  0.24765235139E+02  0.00000000000E+00 0.  1.
         14    1    6    6    0    0  0.36338992361E+02  0.46028145027E+02 -0.47006050029E+02  0.75157709117E+02  0.00000000000E+00 0. -1.
         -5    1    3    3    0  503  0.99321275351E+01 -0.24003348243E+02 -0.12256783077E+03  0.12537851101E+03  0.47000000000E+01 0.  1.
         13    1    4    4    0    0 -0.27546972109E+02 -0.26672830194E+01 -0.16522621271E+02  0.32232702101E+02  0.00000000000E+00 0. -1.
        -14    1    4    4    0    0  0.36646104953E+02  0.21886115368E+02  0.25253800828E+02  0.49595297261E+02  0.00000000000E+00 0.  1.
</event>
<event>
12    1  0.8461994E-002  0.2908884E+03  0.7818608E-02  0.1090365E+00
         21   -1    0    0  501  502  0.00000000000E+00  0.00000000000E+00  0.63307780982E+02  0.63307780982E+02  0.00000000000E+00 0. -1.
         21   -1    0    0  502  503 -0.00000000000E+00 -0.00000000000E+00 -0.13198948994E+04  0.13198948994E+04  0.00000000000E+00 0.  1.
         -6    2    1    2    0  503  0.12210576166E+03 -0.20052071317E+03 -0.62908858878E+03  0.69155938735E+03  0.16547978809E+03 0.  0.
        -24    2    3    3    0    0  0.13445470555E+03 -0.16076440120E+03 -0.42311557971E+03  0.48136892320E+03  0.93626843870E+02 0.  0.
          6    2    1    2  501    0 -0.12210576166E+03  0.20052071317E+03 -0.62749852961E+03  0.69164329300E+03  0.17174884758E+03 0.  0.
         24    2    5    5    0    0 -0.58011876810E+02  0.74501896016E+02 -0.43725281997E+03  0.45456885661E+03  0.80789271978E+02 0.  0.
          5    1    5    5  501    0 -0.64093884848E+02  0.12601881715E+03 -0.19024570964E+03  0.23707443639E+03  0.47000000000E+01 0. -1.
        -13    1    6    6    0    0 -0.83170442305E+01  0.73386288879E+02 -0.23714333292E+03  0.24837810082E+03  0.00000000000E+00 0.  1.
         14    1    6    6    0    0 -0.49694832580E+02  0.11156071374E+01 -0.20010948706E+03  0.20619075579E+03  0.00000000000E+00 0. -1.
         -5    1    3    3    0  503 -0.12348943890E+02 -0.39756311970E+02 -0.20597300907E+03  0.21019046415E+03  0.47000000000E+01 0.  1.
         13    1    4    4    0    0  0.13835327916E+03 -0.13839630453E+03 -0.41194738004E+03  0.45606557740E+03  0.00000000000E+00 0. -1.
        -14    1    4    4    0    0 -0.38985736162E+01 -0.22368096674E+02 -0.11168199666E+02  0.25303345803E+02  0.00000000000E+00 0.  1.
</event>
<event>
12    1  0.8461994E-002  0.2395776E+03  0.7818608E-02  0.1120089E+00
         21   -1    0    0  501  502  0.00000000000E+00  0.00000000000E+00  0.19254673005E+03  0.19254673005E+03  0.00000000000E+00 0.  1.
         21   -1    0    0  502  503 -0.00000000000E+00 -0.00000000000E+00 -0.36808535097E+03  0.36808535097E+03  0.00000000000E+00 0. -1.
         -6    2    1    2    0  503 -0.66617256429E+02  0.15296261457E+03 -0.21008365695E+03  0.31857670856E+03  0.17181547081E+03 0.  0.
        -24    2    3    3    0    0 -0.25919012113E+02  0.55404738540E+01 -0.40092171381E+02  0.89865471781E+02  0.75933713019E+02 0.  0.
          6    2    1    2  501    0  0.66617256429E+02 -0.15296261457E+03  0.34545036039E+02  0.24205537246E+03  0.17193610299E+03 0.  0.
         24    2    5    5    0    0  0.76353513769E+02 -0.25605434018E+02  0.27972352072E+02  0.11407124720E+03  0.75791158062E+02 0.  0.
          5    1    5    5  501    0 -0.97362573402E+01 -0.12735718055E+03  0.65726839671E+01  0.12798412526E+03  0.47000000000E+01 0. -1.
        -11    1    6    6    0    0  0.96334566115E+00 -0.34391317580E+02  0.49704002378E+01  0.34761985534E+02  0.00000000000E+00 0.  1.
         12    1    6    6    0    0  0.75390168108E+02  0.87858835615E+01  0.23001951834E+02  0.79309261663E+02  0.00000000000E+00 0. -1.
         -5    1    3    3    0  503 -0.40698244316E+02  0.14742214071E+03 -0.16999148557E+03  0.22871123678E+03  0.47000000000E+01 0.  1.
         13    1    4    4    0    0 -0.19778950316E+02  0.59766093880E+00 -0.62791935061E+02  0.65836093314E+02  0.00000000000E+00 0. -1.
        -14    1    4    4    0    0 -0.61400617966E+01  0.49428129152E+01  0.22699763680E+02  0.24029378467E+02  0.00000000000E+00 0.  1.
</event>
<event>
12    1  0.8461994E-002  0.1745274E+03  0.7818608E-02  0.1173249E+00
         21   -1    0    0  501  502  0.00000000000E+00  0.00000000000E+00  0.40932951477E+02  0.40932951477E+02  0.00000000000E+00 0. -1.
         21   -1    0    0  502  503 -0.00000000000E+00 -0.00000000000E+00 -0.85346846480E+03  0.85346846480E+03  0.00000000000E+00 0. -1.
         -6    2    1    2    0  503 -0.20998059931E+02 -0.96936369084E+01 -0.56701607409E+03  0.59326811160E+03  0.17298826219E+03 0.  0.
        -24    2    3    3    0    0  0.41951940730E+02  0.35074387537E+02 -0.27838292337E+03  0.29444029448E+03  0.78789954917E+02 0.  0.
          6    2    1    2  501    0  0.20998059931E+02  0.96936369084E+01 -0.24551943923E+03  0.30113330467E+03  0.17281952153E+03 0.  0.
         24    2    5    5    0    0  0.24540971807E+02 -0.33408633176E+02 -0.24110487753E+03  0.25740761124E+03  0.80054483234E+02 0.  0.
          5    1    5    5  501    0 -0.35429118757E+01  0.43102270084E+02 -0.44145616994E+01  0.43725693430E+02  0.47000000000E+01 0. -1.
        -11    1    6    6    0    0 -0.15787994721E+02 -0.45049283262E+01 -0.16949326346E+03  0.17028658642E+03  0.00000000000E+00 0.  1.
         12    1    6    6    0    0  0.40328966528E+02 -0.28903704849E+02 -0.71611614073E+02  0.87121024818E+02  0.00000000000E+00 0. -1.
         -5    1    3    3    0  503 -0.62950000661E+02 -0.44768024445E+02 -0.28863315072E+03  0.29882781713E+03  0.47000000000E+01 0.  1.
         13    1    4    4    0    0  0.30966912158E+02  0.60601312240E+02 -0.20236790286E+03  0.21350465288E+03  0.00000000000E+00 0. -1.
        -14    1    4    4    0    0  0.10985028572E+02 -0.25526924703E+02 -0.76015020515E+02  0.80935641601E+02  0.00000000000E+00 0.  1.
</event>
<event>
12    1  0.8461994E-002  0.2432968E+03  0.7818608E-02  0.1118083E+00
         21   -1    0    0  501  502  0.00000000000E+00  0.00000000000E+00  0.15234386375E+03  0.15234386375E+03  0.00000000000E+00 0. -1.
         21   -1    0    0  502  503 -0.00000000000E+00 -0.00000000000E+00 -0.85294809156E+03  0.85294809156E+03  0.00000000000E+00 0. -1.
         -6    2    1    2    0  503  0.15029686537E+02  0.17130710281E+03 -0.72206405103E+03  0.76105056954E+03  0.16807575867E+03 0.  0.
        -24    2    3    3    0    0  0.30955917721E+02  0.22441255802E+02 -0.23888410591E+03  0.25518533589E+03  0.81191506905E+02 0.  0.
          6    2    1    2  501    0 -0.15029686537E+02 -0.17130710281E+03  0.21459823220E+02  0.24424138577E+03  0.17210844129E+03 0.  0.
         24    2    5    5    0    0  0.48870062749E+02 -0.63832143216E+02  0.34904774377E+02  0.11839663376E+03  0.79602726527E+02 0.  0.
          5    1    5    5  501    0 -0.63899749286E+02 -0.10747495959E+03 -0.13444951157E+02  0.12584475201E+03  0.47000000000E+01 0. -1.
        -11    1    6    6    0    0 -0.81516096486E+01  0.10697602949E+02 -0.75223370109E+01  0.15410159078E+02  0.00000000000E+00 0.  1.
         12    1    6    6    0    0  0.57021672398E+02 -0.74529746165E+02  0.42427111388E+02  0.10298647468E+03  0.00000000000E+00 0. -1.
         -5    1    3    3    0  503 -0.15926231184E+02  0.14886584700E+03 -0.48317994512E+03  0.50586523365E+03  0.47000000000E+01 0.  1.
         11    1    4    4    0    0 -0.27750254322E+02  0.79039840691E+01 -0.66135770798E+02  0.72156009854E+02  0.00000000000E+00 0. -1.
        -12    1    4    4    0    0  0.58706172043E+02  0.14537271733E+02 -0.17274833511E+03  0.18302932604E+03  0.00000000000E+00 0.  1.
</event>
<event>
12    1  0.8461994E-002  0.1723675E+03  0.7818608E-02  0.1175510E+00
         21   -1    0    0  501  502  0.00000000000E+00  0.00000000000E+00  0.35641689036E+02  0.35641689036E+02  0.00000000000E+00 0.  1.
         21   -1    0    0  502  503 -0.00000000000E+00 -0.00000000000E+00 -0.87485247668E+03  0.87485247668E+03  0.00000000000E+00 0.  1.
         -6    2    1    2    0  503  0.76178732575E+01  0.34329444870E+01 -0.52041870394E+03  0.54808700219E+03  0.17173793250E+03 0.  0.
        -24    2    3    3    0    0  0.73914796394E+01 -0.26196805533E+02 -0.10429556119E+03  0.13088377441E+03  0.74243462530E+02 0.  0.
          6    2    1    2  501    0 -0.76178732575E+01 -0.34329444870E+01 -0.31879208371E+03  0.36240716353E+03  0.17216486994E+03 0.  0.
         24    2    5    5    0    0 -0.28611965945E+02  0.31063300726E+02 -0.10268465424E+03  0.14250888265E+03  0.89336835464E+02 0.  0.
          5    1    5    5  501    0  0.20994092687E+02 -0.34496245213E+02 -0.21610742946E+03  0.21989828087E+03  0.47000000000E+01 0. -1.
        -11    1    6    6    0    0 -0.32003303075E+02 -0.25804105793E+02 -0.51740372602E+02  0.66084260157E+02  0.00000000000E+00 0.  1.
         12    1    6    6    0    0  0.33913371303E+01  0.56867406519E+02 -0.50944281641E+02  0.76424622496E+02  0.00000000000E+00 0. -1.
         -5    1    3    3    0  503  0.22639361806E+00  0.29629750020E+02 -0.41612314274E+03  0.41720322778E+03  0.47000000000E+01 0.  1.
         11    1    4    4    0    0 -0.31367003873E+02  0.15036186720E+01 -0.39587436150E+02  0.50530336452E+02  0.00000000000E+00 0. -1.
        -12    1    4    4    0    0  0.38758483513E+02 -0.27700424204E+02 -0.64708125043E+02  0.80353437960E+02  0.00000000000E+00 0.  1.
</event>
<event>
12    1  0.8461994E-002  0.1978802E+03  0.7818608E-02  0.1151610E+00
         21   -1    0    0  503  502  0.00000000000E+00  0.00000000000E+00  0.46887367214E+03  0.46887367214E+03  0.00000000000E+00 0. -1.
         21   -1    0    0  501  503 -0.00000000000E+00 -0.00000000000E+00 -0.11027386441E+03  0.11027386441E+03  0.00000000000E+00 0. -1.
          6    2    1    2  501    0 -0.64056491713E+02  0.71861188397E+02  0.32220895899E+03  0.37794900379E+03  0.17250962779E+03 0.  0.
         24    2    3    3    0    0 -0.28165456011E+02 -0.24989146916E+02  0.18612048938E+03  0.20703874823E+03  0.82501250443E+02 0.  0.
         -6    2    1    2    0  502  0.64056491713E+02 -0.71861188397E+02  0.36390848734E+02  0.20119853276E+03  0.17288519654E+03 0.  0.
        -24    2    5    5    0    0  0.82921639556E+02 -0.10822355457E+03  0.20943715792E+02  0.15716650586E+03  0.75328183722E+02 0.  0.
          5    1    3    3  501    0 -0.35891035702E+02  0.96850335314E+02  0.13608846961E+03  0.17091025556E+03  0.47000000000E+01 0. -1.
        -13    1    4    4    0    0  0.19421439762E+02  0.10848271514E+02  0.17810556646E+02  0.28497249785E+02  0.00000000000E+00 0.  1.
         14    1    4    4    0    0 -0.47586895773E+02 -0.35837418431E+02  0.16830993274E+03  0.17854149844E+03  0.00000000000E+00 0. -1.
         -5    1    5    5    0  502 -0.18865147843E+02  0.36362366169E+02  0.15447132942E+02  0.44032026897E+02  0.47000000000E+01 0.  1.
         13    1    6    6    0    0  0.27954970131E+02 -0.88891627478E+02 -0.51446362316E+01  0.93325607807E+02  0.00000000000E+00 0. -1.
        -14    1    6    6    0    0  0.54966669426E+02 -0.19331927089E+02  0.26088352024E+02  0.63840898052E+02  0.00000000000E+00 0.  1.
</event>
<event>
12    1  0.8461994E-002  0.2861207E+03  0.7818608E-02  0.1092784E+00
         21   -1    0    0  501  502  0.00000000000E+00  0.00000000000E+00  0.64919257697E+03  0.64919257697E+03  0.00000000000E+00 0. -1.
         21   -1    0    0  502  503 -0.00000000000E+00 -0.00000000000E+00 -0.33384942048E+03  0.33384942048E+03  0.00000000000E+00 0. -1.
         -6    2    1    2    0  503  0.22589435527E+03 -0.36757364118E+02 -0.23095802855E+03  0.36770456655E+03  0.17171392999E+03 0.  0.
        -24    2    3    3    0    0  0.22403777307E+03  0.32080494777E+01 -0.22446094664E+03  0.32690036021E+03  0.79233285929E+02 0.  0.
          6    2    1    2  501    0 -0.22589435527E+03  0.36757364118E+02  0.54630118504E+03  0.61533743090E+03  0.16678071092E+03 0.  0.
         24    2    5    5    0    0 -0.22337470799E+03  0.69028090239E+02  0.47030454953E+03  0.53260093959E+03  0.88409581650E+02 0.  0.
          5    1    5    5  501    0 -0.25196472801E+01 -0.32270726122E+02  0.75996635507E+02  0.82736491316E+02  0.47000000000E+01 0. -1.
        -11    1    6    6    0    0 -0.13933211299E+03  0.41003593039E+02  0.19336410108E+03  0.24183549768E+03  0.00000000000E+00 0.  1.
         12    1    6    6    0    0 -0.84042594997E+02  0.28024497201E+02  0.27694044846E+03  0.29076544191E+03  0.00000000000E+00 0. -1.
         -5    1    3    3    0  503  0.18565821978E+01 -0.39965413596E+02 -0.64970819121E+01  0.40804206336E+02  0.47000000000E+01 0.  1.
         13    1    4    4    0    0  0.10047032920E+03 -0.27410861645E+02 -0.13852424040E+03  0.17330495540E+03  0.00000000000E+00 0. -1.
        -14    1    4    4    0    0  0.12356744387E+03  0.30618911123E+02 -0.85936706235E+02  0.15359540482E+03  0.00000000000E+00 0.  1.
</event>
<event>
12    1  0.8461994E-002  0.1984682E+03  0.7818608E-02  0.1151054E+00
         21   -1    0    0  501  502  0.00000000000E+00  0.00000000000E+00  0.16565054552E+04  0.16565054552E+04  0.00000000000E+00 0.  1.
         21   -1    0    0  502  503 -0.00000000000E+00 -0.00000000000E+00 -0.24453963481E+02  0.24453963481E+02  0.00000000000E+00 0.  1.
         -6    2    1    2    0  503  0.84595180413E+01  0.97818296572E+02  0.67556705155E+03  0.70411679465E+03  0.17248083017E+03 0.  0.
        -24    2    3    3    0    0  0.27396268697E+02 -0.57302056711E+01  0.40220015068E+03  0.41114504629E+03  0.80572309696E+02 0.  0.
          6    2    1    2  501    0 -0.84595180413E+01 -0.97818296572E+02  0.95648444018E+03  0.97684262404E+03  0.17239212642E+03 0.  0.
         24    2    5    5    0    0 -0.86970231698E+01 -0.86664578155E+02  0.95755474013E+03  0.96468954274E+03  0.78284393094E+02 0.  0.
          5    1    5    5  501    0  0.23750512846E+00 -0.11153718416E+02 -0.10702999527E+01  0.12153081304E+02  0.47000000000E+01 0. -1.
        -13    1    6    6    0    0  0.20764851516E+02 -0.18311721158E+02  0.95630747098E+02  0.99557711810E+02  0.00000000000E+00 0.  1.
         14    1    6    6    0    0 -0.29461874686E+02 -0.68352856998E+02  0.86192399303E+03  0.86513183093E+03  0.00000000000E+00 0. -1.
         -5    1    3    3    0  503 -0.18936750655E+02  0.10354850224E+03  0.27336690087E+03  0.29297174836E+03  0.47000000000E+01 0.  1.
         11    1    4    4    0    0  0.38097784597E+02  0.29324361950E+02  0.20440629462E+03  0.20998402957E+03  0.00000000000E+00 0. -1.
        -12    1    4    4    0    0 -0.10701515900E+02 -0.35054567621E+02  0.19779385606E+03  0.20116101672E+03  0.00000000000E+00 0.  1.
</event>
<event>
12    1  0.8461994E-002  0.2235579E+03  0.7818608E-02  0.1131776E+00
         21   -1    0    0  501  502  0.00000000000E+00  0.00000000000E+00  0.58710145983E+02  0.58710145983E+02  0.00000000000E+00 0.  1.
         21   -1    0    0  502  503 -0.00000000000E+00 -0.00000000000E+00 -0.99795986111E+03  0.99795986111E+03  0.00000000000E+00 0.  1.
         -6    2    1    2    0  503  0.41997187989E+02 -0.13203081207E+03 -0.68195416001E+03  0.71766261601E+03  0.17544872451E+03 0.  0.
        -24    2    3    3    0    0  0.30867322959E+02 -0.26324225938E+01 -0.36747439414E+03  0.37738709495E+03  0.80149034987E+02 0.  0.
          6    2    1    2  501    0 -0.41997187989E+02  0.13203081207E+03 -0.25729555511E+03  0.33900739108E+03  0.17184036018E+03 0.  0.
         24    2    5    5    0    0 -0.82721588265E+02  0.53006093565E+02 -0.10502042031E+03  0.16261807850E+03  0.75913395731E+02 0.  0.
          5    1    5    5  501    0  0.40724400276E+02  0.79024718507E+02 -0.15227513480E+03  0.17638931258E+03  0.47000000000E+01 0. -1.
        -11    1    6    6    0    0 -0.62980110314E+02  0.70588935248E+02 -0.65471127112E+02  0.11504677553E+03  0.00000000000E+00 0.  1.
         12    1    6    6    0    0 -0.19741477951E+02 -0.17582841683E+02 -0.39549293198E+02  0.47571302965E+02  0.00000000000E+00 0. -1.
         -5    1    3    3    0  503  0.11129865031E+02 -0.12939838948E+03 -0.31447976586E+03  0.34027552106E+03  0.47000000000E+01 0.  1.
         13    1    4    4    0    0  0.32198367803E+02 -0.29793612801E+02 -0.10915336459E+03  0.11763864694E+03  0.00000000000E+00 0. -1.
        -14    1    4    4    0    0 -0.13310448447E+01  0.27161190207E+02 -0.25832102956E+03  0.25974844801E+03  0.00000000000E+00 0.  1.
</event>
<event>
12    1  0.8461994E-002  0.2492714E+03  0.7818608E-02  0.1116099E+00
         21   -1    0    0  501  502  0.00000000000E+00  0.00000000000E+00  0.58706768531E+03  0.58706768531E+03  0.00000000000E+00 0.  1.
         21   -1    0    0  502  503 -0.00000000000E+00 -0.00000000000E+00 -0.11105415090E+03  0.11105415090E+03  0.00000000000E+00 0. -1.
         -6    2    1    2    0  503  0.14896006295E+03  0.57550491796E+02  0.13360787508E+03  0.28282022190E+03  0.19140285832E+03 0.  0.
        -24    2    3    3    0    0  0.42988661447E+02 -0.29140893726E+02  0.10660476675E+03  0.14319002417E+03  0.80259516742E+02 0.  0.
          6    2    1    2  501    0 -0.14896006295E+03 -0.57550491796E+02  0.34240565932E+03  0.41530161431E+03  0.17243153960E+03 0.  0.
         24    2    5    5    0    0 -0.50567940279E+01 -0.61947478271E+01  0.14396146116E+03  0.16480659833E+03  0.79827103710E+02 0.  0.
          5    1    5    5  501    0 -0.14390326892E+03 -0.51355743968E+02  0.19844419817E+03  0.25049501598E+03  0.47000000000E+01 0. -1.
        -13    1    6    6    0    0 -0.41091979875E+02  0.72719660380E+01  0.72775312352E+02  0.83890871900E+02  0.00000000000E+00 0.  1.
         14    1    6    6    0    0  0.36035185847E+02 -0.13466713865E+02  0.71186148806E+02  0.80915726427E+02  0.00000000000E+00 0. -1.
         -5    1    3    3    0  503  0.10597140150E+03  0.86691385521E+02  0.27003108333E+02  0.13963019774E+03  0.47000000000E+01 0.  1.
         13    1    4    4    0    0  0.35364841084E+02  0.18117540409E+02  0.20593071424E+02  0.44754796905E+02  0.00000000000E+00 0. -1.
        -14    1    4    4    0    0  0.76238203630E+01 -0.47258434134E+02  0.86011695323E+02  0.98435227262E+02  0.00000000000E+00 0.  1.
</event>
<event>
12    1  0.8461994E-002  0.2023913E+03  0.7818608E-02  0.1147842E+00
         21   -1    0    0  501  502  0.00000000000E+00  0.00000000000E+00  0.12172006408E+03  0.12172006408E+03  0.00000000000E+00 0. -1.
         21   -1    0    0  502  503 -0.00000000000E+00 -0.00000000000E+00 -0.65188598818E+03  0.65188598818E+03  0.00000000000E+00 0. -1.
         -6    2    1    2    0  503 -0.92643723674E+02 -0.51928809516E+02 -0.53464641312E+03  0.57167212368E+03  0.17228688036E+03 0.  0.
        -24    2    3    3    0    0 -0.59084791090E+02 -0.33615701127E+02 -0.51956348013E+03  0.53030599306E+03  0.81591718298E+02 0.  0.
          6    2    1    2  501    0  0.92643723674E+02  0.51928809516E+02  0.44804890152E+01  0.20193392858E+03  0.17169093143E+03 0.  0.
         24    2    5    5    0    0  0.27931255757E+02  0.19247766406E+02 -0.59289700259E+02  0.10526707220E+03  0.80095295570E+02 0.  0.
          5    1    5    5  501    0  0.64712467917E+02  0.32681043110E+02  0.63770189274E+02  0.96666856382E+02  0.47000000000E+01 0. -1.
        -13    1    6    6    0    0  0.39966696523E+02 -0.19392241383E+02 -0.19507516572E+02  0.48517409861E+02  0.00000000000E+00 0.  1.
         14    1    6    6    0    0 -0.12035440766E+02  0.38640007789E+02 -0.39782183687E+02  0.56749662336E+02  0.00000000000E+00 0. -1.
         -5    1    3    3    0  503 -0.33558932585E+02 -0.18313108389E+02 -0.15082932990E+02  0.41366130622E+02  0.47000000000E+01 0.  1.
         13    1    4    4    0    0  0.14047357763E+02 -0.28413774757E+02 -0.19545626322E+03  0.19800965049E+03  0.00000000000E+00 0. -1.
        -14    1    4    4    0    0 -0.73132148853E+02 -0.52019263703E+01 -0.32410721691E+03  0.33229634257E+03  0.00000000000E+00 0.  1.
</event>
<event>
12    1  0.8461994E-002  0.2035360E+03  0.7818608E-02  0.1147043E+00
         21   -1    0    0  501  502  0.00000000000E+00  0.00000000000E+00  0.30168970105E+03  0.30168970105E+03  0.00000000000E+00 0. -1.
         21   -1    0    0  502  503 -0.00000000000E+00 -0.00000000000E+00 -0.23925257144E+03  0.23925257144E+03  0.00000000000E+00 0. -1.
         -6    2    1    2    0  503  0.10505605847E+03 -0.13867708002E+02 -0.14609249405E+03  0.24954646367E+03  0.17234074377E+03 0.  0.
        -24    2    3    3    0    0  0.33759571751E+02  0.22334787906E+01  0.85973268464E+00  0.85353028422E+02  0.78356258258E+02 0.  0.
          6    2    1    2  501    0 -0.10505605847E+03  0.13867708002E+02  0.20852962366E+03  0.29139580882E+03  0.17377521315E+03 0.  0.
         24    2    5    5    0    0 -0.10088059568E+03 -0.46704016166E+02  0.17300999361E+03  0.22089685580E+03  0.80652360792E+02 0.  0.
          5    1    5    5  501    0 -0.41754627930E+01  0.60571724167E+02  0.35519630052E+02  0.70498953022E+02  0.47000000000E+01 0. -1.
        -13    1    6    6    0    0 -0.84160880447E+02 -0.68881381168E+02  0.12751422152E+03  0.16759348185E+03  0.00000000000E+00 0.  1.
         14    1    6    6    0    0 -0.16719715230E+02  0.22177365002E+02  0.45495772087E+02  0.53303373942E+02  0.00000000000E+00 0. -1.
         -5    1    3    3    0  503  0.71296486719E+02 -0.16101186792E+02 -0.14695222674E+03  0.16419343525E+03  0.47000000000E+01 0.  1.
         13    1    4    4    0    0  0.40360819874E+02  0.55245660249E+01 -0.31920222650E+02  0.51753427178E+02  0.00000000000E+00 0. -1.
        -14    1    4    4    0    0 -0.66012481232E+01 -0.32910872343E+01  0.32779955335E+02  0.33599601244E+02  0.00000000000E+00 0.  1.
</event>
<event>
12    1  0.8461994E-002  0.2434178E+03  0.7818608E-02  0.1117948E+00
         21   -1    0    0  501  502  0.00000000000E+00  0.00000000000E+00  0.15303540453E+04  0.15303540453E+04  0.00000000000E+00 0.  1.
         21   -1    0    0  502  503 -0.00000000000E+00 -0.00000000000E+00 -0.54081367601E+02  0.54081367601E+02  0.00000000000E+00 0. -1.
         -6    2    1    2    0  503  0.66757667475E+02  0.15806443346E+03  0.30778411026E+03  0.39086189685E+03  0.16911833902E+03 0.  0.
        -24    2    3    3    0    0  0.10073459880E+02  0.33299743130E+02  0.19245365807E+03  0.21169010626E+03  0.81018165217E+02 0.  0.
          6    2    1    2  501    0 -0.66757667475E+02 -0.15806443346E+03  0.11684885674E+04  0.11935735160E+04  0.17265936023E+03 0.  0.
         24    2    5    5    0    0  0.14610879018E+02 -0.12431188956E+03  0.59931179032E+03  0.61760097487E+03  0.81175233105E+02 0.  0.
          5    1    5    5  501    0 -0.81368546493E+02 -0.33752543899E+02  0.56917677710E+03  0.57597254116E+03  0.47000000000E+01 0. -1.
        -13    1    6    6    0    0 -0.13401644734E+02 -0.11999376968E+03  0.47613710721E+03  0.49120734289E+03  0.00000000000E+00 0.  1.
         14    1    6    6    0    0  0.28012523752E+02 -0.43181198827E+01  0.12317468311E+03  0.12639363198E+03  0.00000000000E+00 0. -1.
         -5    1    3    3    0  503  0.56684207596E+02  0.12476469033E+03  0.11533045219E+03  0.17917179060E+03  0.47000000000E+01 0.  1.
         13    1    4    4    0    0  0.23365323631E+02  0.47112919020E+02  0.68993721123E+02  0.86750786979E+02  0.00000000000E+00 0. -1.
        -14    1    4    4    0    0 -0.13291863752E+02 -0.13813175890E+02  0.12345993695E+03  0.12493931928E+03  0.00000000000E+00 0.  1.
</event>
<event>
12    1  0.8461994E-002  0.2164063E+03  0.7818608E-02  0.1136811E+00
         21   -1    0    0  503  502  0.00000000000E+00  0.00000000000E+00  0.31275849963E+03  0.31275849963E+03  0.00000000000E+00 0.  1.
         21   -1    0    0  501  503 -0.00000000000E+00 -0.00000000000E+00 -0.32945206507E+03  0.32945206507E+03  0.00000000000E+00 0.  1.
          6    2    1    2  501    0 -0.13142153766E+03  0.36936847337E+00 -0.24602301486E+03  0.32689534576E+03  0.17047429789E+03 0.  0.
         24    2    3    3    0    0 -0.73609940445E+02  0.41346974765E+02 -0.22504711763E+03  0.25284520562E+03  0.78463349387E+02 0.  0.
         -6    2    1    2    0  502  0.13142153766E+03 -0.36936847337E+00  0.22932944942E+03  0.31531521894E+03  0.17193002626E+03 0.  0.
        -24    2    5    5    0    0  0.13275307083E+03  0.49869916166E+02  0.13627896024E+03  0.20945567880E+03  0.72037073968E+02 0.  0.
          5    1    3    3  501    0 -0.57811597216E+02 -0.40977606291E+02 -0.20975897238E+02  0.74050140141E+02  0.47000000000E+01 0. -1.
        -11    1    4    4    0    0 -0.52479191015E+02  0.58530147324E+02 -0.11379698764E+03  0.13830979008E+03  0.00000000000E+00 0.  1.
         12    1    4    4    0    0 -0.21130749431E+02 -0.17183172559E+02 -0.11125012999E+03  0.11453541554E+03  0.00000000000E+00 0. -1.
         -5    1    5    5    0  502 -0.13315331683E+01 -0.50239284639E+02  0.93050489181E+02  0.10585954014E+03  0.47000000000E+01 0.  1.
         11    1    6    6    0    0  0.10125303368E+03  0.17146047167E+02  0.12659995939E+03  0.16301445789E+03  0.00000000000E+00 0. -1.
        -12    1    6    6    0    0  0.31500037151E+02  0.32723868999E+02  0.96790008503E+01  0.46441220917E+02  0.00000000000E+00 0.  1.
</event>
<event>
12    1  0.8461994E-002  0.1859989E+03  0.7818608E-02  0.1162868E+00
         21   -1    0    0  501  502  0.00000000000E+00  0.00000000000E+00  0.15263869300E+03  0.15263869300E+03  0.00000000000E+00 0. -1.
         21   -1    0    0  502  503 -0.00000000000E+00 -0.00000000000E+00 -0.23070509863E+03  0.23070509863E+03  0.00000000000E+00 0.  1.
         -6    2    1    2    0  503 -0.40487531476E+02 -0.51273375810E+02 -0.38258794407E+01  0.18603827569E+03  0.17414764827E+03 0.  0.
        -24    2    3    3    0    0 -0.25712991707E+02 -0.12334520659E+02  0.72352200189E+02  0.99091675517E+02  0.61408638987E+02 0.  0.
          6    2    1    2  501    0  0.40487531476E+02  0.51273375810E+02 -0.74240526190E+02  0.19730551593E+03  0.17073257339E+03 0.  0.
         24    2    5    5    0    0  0.44543090566E+02 -0.29431190099E+02 -0.56617666202E+02  0.11446633612E+03  0.83944625261E+02 0.  0.
          5    1    5    5  501    0 -0.40555590905E+01  0.80704565909E+02 -0.17622859988E+02  0.82839179814E+02  0.47000000000E+01 0. -1.
        -13    1    6    6    0    0  0.65278759223E+02 -0.20826459381E+02 -0.19765406568E+02  0.71314298095E+02  0.00000000000E+00 0.  1.
         14    1    6    6    0    0 -0.20735668657E+02 -0.86047307184E+01 -0.36852259634E+02  0.43152038023E+02  0.00000000000E+00 0. -1.
         -5    1    3    3    0  503 -0.14774539768E+02 -0.38938855151E+02 -0.76178079630E+02  0.86946600175E+02  0.47000000000E+01 0.  1.
         11    1    4    4    0    0  0.16369293758E+02  0.90672892354E+01  0.31596033074E+02  0.36721639645E+02  0.00000000000E+00 0. -1.
        -12    1    4    4    0    0 -0.42082285466E+02 -0.21401809894E+02  0.40756167115E+02  0.62370035872E+02  0.00000000000E+00 0.  1.
</event>
<event>
12    1  0.8461994E-002  0.1805010E+03  0.7818608E-02  0.1167340E+00
         21   -1    0    0  501  502  0.00000000000E+00  0.00000000000E+00  0.20454004579E+03  0.20454004579E+03  0.00000000000E+00 0. -1.
         21   -1    0    0  502  503 -0.00000000000E+00 -0.00000000000E+00 -0.17456146928E+03  0.17456146928E+03  0.00000000000E+00 0. -1.
         -6    2    1    2    0  503 -0.17174942011E+01  0.54014439831E+02 -0.41224940159E+02  0.18506401954E+03  0.17212985256E+03 0.  0.
        -24    2    3    3    0    0  0.25678794177E+02  0.48672280524E+02 -0.89080800676E+02  0.12946394159E+03  0.76138897816E+02 0.  0.
          6    2    1    2  501    0  0.17174942011E+01 -0.54014439831E+02  0.71203516668E+02  0.19403749553E+03  0.17222107707E+03 0.  0.
         24    2    5    5    0    0  0.47141554294E+02 -0.49732462239E+02 -0.42072296463E+01  0.10577339621E+03  0.80465313172E+02 0.  0.
          5    1    5    5  501    0 -0.45424060093E+02 -0.42819775913E+01  0.75410746314E+02  0.88264099310E+02  0.47000000000E+01 0. -1.
        -13    1    6    6    0    0  0.39848012288E+02  0.11415549778E+02  0.98559771634E+01  0.42606562239E+02  0.00000000000E+00 0.  1.
         14    1    6    6    0    0  0.72935420062E+01 -0.61148012018E+02 -0.14063206810E+02  0.63166833975E+02  0.00000000000E+00 0. -1.
         -5    1    3    3    0  503 -0.27396288378E+02  0.53421593065E+01  0.47855860517E+02  0.55600077957E+02  0.47000000000E+01 0.  1.
         13    1    4    4    0    0  0.48755491268E+02  0.13368441782E+02 -0.38137129713E+02  0.63326564941E+02  0.00000000000E+00 0. -1.
        -14    1    4    4    0    0 -0.23076697091E+02  0.35303838742E+02 -0.50943670963E+02  0.66137376647E+02  0.00000000000E+00 0.  1.
</event>
<event>
12    1  0.8461994E-002  0.1748081E+03  0.7818608E-02  0.1173281E+00
         21   -1    0    0  503  502  0.00000000000E+00  0.00000000000E+00  0.25149267380E+03  0.25149267380E+03  0.00000000000E+00 0.  1.
         21   -1    0    0  501  503 -0.00000000000E+00 -0.00000000000E+00 -0.22806607232E+03  0.22806607232E+03  0.00000000000E+00 0.  1.
          6    2    1    2  501    0 -0.31015563315E+02  0.43016942490E+01 -0.15296304489E+03  0.23122194152E+03  0.17054449095E+03 0.  0.
         24    2    3    3    0    0 -0.17041186207E+02 -0.63762855821E+02 -0.10032430809E+03  0.14392364369E+03  0.79328082094E+02 0.  0.
         -6    2    1    2    0  502  0.31015563315E+02 -0.43016942490E+01  0.17638964637E+03  0.24833680460E+03  0.17198078796E+03 0.  0.
        -24    2    5    5    0    0 -0.41379931391E+02 -0.35790001168E+02  0.99288628319E+02  0.13788646231E+03  0.78493451124E+02 0.  0.
          5    1    3    3  501    0 -0.13974377107E+02  0.68064550070E+02 -0.52638736803E+02  0.87298297830E+02  0.47000000000E+01 0. -1.
        -11    1    4    4    0    0 -0.29913020364E+02 -0.45062586864E+02 -0.10731079893E+03  0.12017084958E+03  0.00000000000E+00 0.  1.
         12    1    4    4    0    0  0.12871834157E+02 -0.18700268957E+02  0.69864908393E+01  0.23752794107E+02  0.00000000000E+00 0. -1.
         -5    1    5    5    0  502  0.72395494706E+02  0.31488306919E+02  0.77101018055E+02  0.11045034229E+03  0.47000000000E+01 0.  1.
         13    1    6    6    0    0 -0.83278126556E+01 -0.37023443229E+02  0.53856192736E+01  0.38328745181E+02  0.00000000000E+00 0. -1.
        -14    1    6    6    0    0 -0.33052118736E+02  0.12334420610E+01  0.93903009045E+02  0.99557717129E+02  0.00000000000E+00 0.  1.
</event>
<event>
12    1  0.8461994E-002  0.1921354E+03  0.7818608E-02  0.1156648E+00
         21   -1    0    0  501  502  0.00000000000E+00  0.00000000000E+00  0.11188051275E+03  0.11188051275E+03  0.00000000000E+00 0.  1.
         21   -1    0    0  502  503 -0.00000000000E+00 -0.00000000000E+00 -0.32958627501E+03  0.32958627501E+03  0.00000000000E+00 0.  1.
         -6    2    1    2    0  503  0.85586582715E+01  0.85216754621E+02 -0.11657623256E+03  0.22473542983E+03  0.17199084140E+03 0.  0.
        -24    2    3    3    0    0 -0.34791823271E+02  0.81253438877E+02 -0.20891061635E+02  0.11950846534E+03  0.77673963048E+02 0.  0.
          6    2    1    2  501    0 -0.85586582715E+01 -0.85216754621E+02 -0.10112952970E+03  0.21673135793E+03  0.17149388862E+03 0.  0.
         24    2    5    5    0    0 -0.66783145637E+02 -0.30339407921E+02 -0.39461624666E+02  0.11560453349E+03  0.80166826859E+02 0.  0.
          5    1    5    5  501    0  0.58224487366E+02 -0.54877346699E+02 -0.61667905031E+02  0.10112682444E+03  0.47000000000E+01 0. -1.
        -11    1    6    6    0    0 -0.70046847468E+01 -0.34380839560E+02 -0.43103600748E+02  0.55579026032E+02  0.00000000000E+00 0.  1.
         12    1    6    6    0    0 -0.59778460891E+02  0.40414316390E+01  0.36419760814E+01  0.60025507461E+02  0.00000000000E+00 0. -1.
         -5    1    3    3    0  503  0.43350481543E+02  0.39633157432E+01 -0.95685170924E+02  0.10522696449E+03  0.47000000000E+01 0.  1.
         11    1    4    4    0    0 -0.21400822846E+02  0.86558087488E+00  0.19128839405E+02  0.28716840803E+02  0.00000000000E+00 0. -1.
        -12    1    4    4    0    0 -0.13391000425E+02  0.80387858003E+02 -0.40019901040E+02  0.90791624536E+02  0.00000000000E+00 0.  1.
</event>
<event>
12    1  0.8461994E-002  0.1797877E+03  0.7818608E-02  0.1168298E+00
         21   -1    0    0  501  502  0.00000000000E+00  0.00000000000E+00  0.15434296216E+03  0.15434296216E+03  0.00000000000E+00 0. -1.
         21   -1    0    0  502  503 -0.00000000000E+00 -0.00000000000E+00 -0.20978321350E+03  0.20978321350E+03  0.00000000000E+00 0. -1.
         -6    2    1    2    0  503 -0.37608554962E+02 -0.37020911711E+02 -0.44385386509E+02  0.18518554063E+03  0.17186817801E+03 0.  0.
        -24    2    3    3    0    0  0.34028625682E+01 -0.48212970443E+02 -0.84958682921E+02  0.12623233097E+03  0.79878367452E+02 0.  0.
          6    2    1    2  501    0  0.37608554962E+02  0.37020911711E+02 -0.11054864832E+02  0.17894063504E+03  0.17062411764E+03 0.  0.
         24    2    5    5    0    0 -0.20495174438E+02 -0.10240398154E+02 -0.47143886125E+02  0.95668897707E+02  0.80031706592E+02 0.  0.
          5    1    5    5  501    0  0.58103729400E+02  0.47261309866E+02  0.36089021293E+02  0.83271737333E+02  0.47000000000E+01 0. -1.
        -11    1    6    6    0    0 -0.31928986896E+02  0.87668441286E+01  0.98221064302E+01  0.34536814197E+02  0.00000000000E+00 0.  1.
         12    1    6    6    0    0  0.11433812457E+02 -0.19007242283E+02 -0.56965992555E+02  0.61132083510E+02  0.00000000000E+00 0. -1.
         -5    1    3    3    0  503 -0.41011417530E+02  0.11192058731E+02  0.40573296412E+02  0.58953209652E+02  0.47000000000E+01 0.  1.
         13    1    4    4    0    0 -0.28551524168E+02 -0.27895677598E+02 -0.83569074283E+01  0.40782303303E+02  0.00000000000E+00 0. -1.
        -14    1    4    4    0    0  0.31954386736E+02 -0.20317292845E+02 -0.76601775493E+02  0.85450027671E+02  0.00000000000E+00 0.  1.
</event>
<event>
12    1  0.8461994E-002  0.1920311E+03  0.7818608E-02  0.1158223E+00
         21   -1    0    0  503  502  0.00000000000E+00  0.00000000000E+00  0.15801545902E+03  0.15801545902E+03  0.00000000000E+00 0. -1.
         21   -1    0    0  501  503 -0.00000000000E+00 -0.00000000000E+00 -0.42676536683E+03  0.42676536683E+03  0.00000000000E+00 0. -1.
          6    2    1    2  501    0  0.86805839583E+01 -0.69149760035E+02 -0.33672277482E+03  0.38763148343E+03  0.17893825196E+03 0.  0.
         24    2    3    3    0    0  0.72681209140E+02 -0.22636973116E+02 -0.18853024982E+03  0.21957603473E+03  0.82915554747E+02 0.  0.
         -6    2    1    2    0  502 -0.86805839583E+01  0.69149760035E+02  0.67972867005E+02  0.19714934242E+03  0.17143660845E+03 0.  0.
        -24    2    5    5    0    0 -0.71657167533E+02  0.29692966591E+02  0.42835652577E+02  0.11855635178E+03  0.78767337728E+02 0.  0.
          5    1    3    3  501    0 -0.64000625181E+02 -0.46512786919E+02 -0.14819252500E+03  0.16805544869E+03  0.47000000000E+01 0. -1.
        -13    1    4    4    0    0  0.70098035837E+01  0.25839860350E+02 -0.24199758545E+02  0.36089666704E+02  0.00000000000E+00 0.  1.
         14    1    4    4    0    0  0.65671405556E+02 -0.48476833465E+02 -0.16433049127E+03  0.18348636803E+03  0.00000000000E+00 0. -1.
         -5    1    5    5    0  502  0.62976583575E+02  0.39456793444E+02  0.25137214428E+02  0.78592990634E+02  0.47000000000E+01 0.  1.
         11    1    6    6    0    0 -0.93549799207E+00  0.38346066488E+02  0.77318773005E+01  0.39128990508E+02  0.00000000000E+00 0. -1.
        -12    1    6    6    0    0 -0.70721669541E+02 -0.86530998974E+01  0.35103775276E+02  0.79427361275E+02  0.00000000000E+00 0.  1.
</event>
<event>
12    1  0.8461994E-002  0.2038086E+03  0.7818608E-02  0.1147484E+00
         21   -1    0    0  503  502  0.00000000000E+00  0.00000000000E+00  0.17879993104E+03  0.17879993104E+03  0.00000000000E+00 0. -1.
         21   -1    0    0  501  503 -0.00000000000E+00 -0.00000000000E+00 -0.68486015058E+03  0.68486015058E+03  0.00000000000E+00 0. -1.
          6    2    1    2  501    0  0.10948484454E+03 -0.74944507926E+01 -0.60506801199E+03  0.63707572393E+03  0.16647846983E+03 0.  0.
         24    2    3    3    0    0  0.19496631892E+02 -0.46765603334E+02 -0.22780462103E+03  0.24721695720E+03  0.81572901487E+02 0.  0.
         -6    2    1    2    0  502 -0.10948484454E+03  0.74944507926E+01  0.99007792445E+02  0.22658435769E+03  0.17174058987E+03 0.  0.
        -24    2    5    5    0    0 -0.14041646872E+03  0.91981735403E+01  0.10764303909E+03  0.19408319572E+03  0.79245642849E+02 0.  0.
          5    1    3    3  501    0  0.89988212652E+02  0.39271152541E+02 -0.37726339096E+03  0.38985876673E+03  0.47000000000E+01 0. -1.
        -13    1    4    4    0    0  0.31967739953E+01 -0.27766848842E+02 -0.21885489114E+03  0.22063245599E+03  0.00000000000E+00 0.  1.
         14    1    4    4    0    0  0.16299857897E+02 -0.18998754492E+02 -0.89497298817E+01  0.26584501212E+02  0.00000000000E+00 0. -1.
         -5    1    5    5    0  502  0.30931624174E+02 -0.17037227477E+01 -0.86352466465E+01  0.32501161977E+02  0.47000000000E+01 0.  1.
         13    1    6    6    0    0 -0.90512366356E+02  0.82591325492E+01  0.19754459698E+02  0.93010431736E+02  0.00000000000E+00 0. -1.
        -14    1    6    6    0    0 -0.49904102362E+02  0.93904099111E+00  0.87888579394E+02  0.10107276398E+03  0.00000000000E+00 0.  1.
</event>
<event>
12    1  0.8461994E-002  0.1968094E+03  0.7818608E-02  0.1152787E+00
         21   -1    0    0  501  502  0.00000000000E+00  0.00000000000E+00  0.11735899646E+03  0.11735899646E+03  0.00000000000E+00 0. -1.
         21   -1    0    0  502  503 -0.00000000000E+00 -0.00000000000E+00 -0.32789345349E+03  0.32789345349E+03  0.00000000000E+00 0.  1.
         -6    2    1    2    0  503 -0.88336055078E+02  0.27076037184E+02 -0.11326491904E+03  0.22707459528E+03  0.17377445014E+03 0.  0.
        -24    2    3    3    0    0 -0.49675945217E+02 -0.48578686229E+02 -0.83040060045E+01  0.91955667910E+02  0.59659869728E+02 0.  0.
          6    2    1    2  501    0  0.88336055078E+02 -0.27076037184E+02 -0.97269537990E+02  0.21817785467E+03  0.17205767298E+03 0.  0.
         24    2    5    5    0    0  0.11266670597E+03  0.15389616158E+02 -0.59243420717E+02  0.15602169744E+03  0.88895220648E+02 0.  0.
          5    1    5    5  501    0 -0.24330650892E+02 -0.42465653342E+02 -0.38026117273E+02  0.62156157229E+02  0.47000000000E+01 0. -1.
        -11    1    6    6    0    0  0.46227640024E+02 -0.23379549359E+02 -0.59771796703E+02  0.79096559417E+02  0.00000000000E+00 0.  1.
         12    1    6    6    0    0  0.66439065946E+02  0.38769165517E+02  0.52837598677E+00  0.76925138023E+02  0.00000000000E+00 0. -1.
         -5    1    3    3    0  503 -0.38660109861E+02  0.75654723413E+02 -0.10496091304E+03  0.13511892737E+03  0.47000000000E+01 0.  1.
         13    1    4    4    0    0 -0.50027913018E+02 -0.81169646650E+01 -0.90590452052E+01  0.51485371673E+02  0.00000000000E+00 0. -1.
        -14    1    4    4    0    0  0.35196780086E+00 -0.40461721564E+02  0.75503920069E+00  0.40470296236E+02  0.00000000000E+00 0.  1.
</event>
<event>
12    1  0.8461994E-002  0.2532718E+03  0.7818608E-02  0.1111953E+00
         21   -1    0    0  503  502  0.00000000000E+00  0.00000000000E+00  0.11097645490E+04  0.11097645490E+04  0.00000000000E+00 0. -1.
         21   -1    0    0  501  503 -0.00000000000E+00 -0.00000000000E+00 -0.60414275450E+02  0.60414275450E+02  0.00000000000E+00 0.  1.
          6    2    1    2  501    0 -0.40506392697E+02 -0.18132364473E+03  0.67233373182E+03  0.71845614518E+03  0.17212656278E+03 0.  0.
         24    2    3    3    0    0 -0.80738172842E+02 -0.12357880292E+03  0.56937476674E+03  0.59365349545E+03  0.80289940666E+02 0.  0.
         -6    2    1    2    0  502  0.40506392697E+02  0.18132364473E+03  0.37701654175E+03  0.45172267929E+03  0.16550792804E+03 0.  0.
        -24    2    5    5    0    0  0.63418061019E+02  0.15248334646E+03  0.24549024135E+03  0.31505532750E+03  0.10826531936E+03 0.  0.
          5    1    3    3  501    0  0.40231780145E+02 -0.57744841811E+02  0.10295896507E+03  0.12480264973E+03  0.47000000000E+01 0. -1.
        -11    1    4    4    0    0 -0.68619739517E+01  0.11222993527E+02  0.29073899161E+02  0.31911344105E+02  0.00000000000E+00 0.  1.
         12    1    4    4    0    0 -0.73876198891E+02 -0.13480179644E+03  0.54030086758E+03  0.56174215135E+03  0.00000000000E+00 0. -1.
         -5    1    5    5    0  502 -0.22911668321E+02  0.28840298272E+02  0.13152630040E+03  0.13666735179E+03  0.47000000000E+01 0.  1.
         13    1    6    6    0    0 -0.97985781311E+01  0.50049528956E+01 -0.74196064408E+01  0.13270728941E+02  0.00000000000E+00 0. -1.
        -14    1    6    6    0    0  0.73216639150E+02  0.14747839356E+03  0.25290984780E+03  0.30178459856E+03  0.00000000000E+00 0.  1.
</event>
<event>
12    1  0.8461994E-002  0.2512835E+03  0.7818608E-02  0.1112554E+00
         21   -1    0    0  503  502  0.00000000000E+00  0.00000000000E+00  0.82319498135E+02  0.82319498135E+02  0.00000000000E+00 0. -1.
         21   -1    0    0  501  503 -0.00000000000E+00 -0.00000000000E+00 -0.96509408364E+03  0.96509408364E+03  0.00000000000E+00 0.  1.
          6    2    1    2  501    0 -0.12290051253E+03  0.13669147591E+03 -0.20322950603E+03  0.32289656908E+03  0.17079480857E+03 0.  0.
         24    2    3    3    0    0 -0.13059320251E+03  0.52397422919E+02 -0.10232923670E+03  0.19111030576E+03  0.79068336355E+02 0.  0.
         -6    2    1    2    0  502  0.12290051253E+03 -0.13669147591E+03 -0.67954507947E+03  0.72451701269E+03  0.17133094023E+03 0.  0.
        -24    2    5    5    0    0 -0.17588422267E+00 -0.22066830871E+02 -0.19083352051E+03  0.20765369754E+03  0.78839391115E+02 0.  0.
          5    1    3    3  501    0  0.76926899770E+01  0.84294052994E+02 -0.10090026932E+03  0.13178626332E+03  0.47000000000E+01 0. -1.
        -13    1    4    4    0    0 -0.42211837790E+02  0.31587160965E+02 -0.82918788524E+02  0.98260436991E+02  0.00000000000E+00 0.  1.
         14    1    4    4    0    0 -0.88381364717E+02  0.20810261955E+02 -0.19410448178E+02  0.92849868768E+02  0.00000000000E+00 0. -1.
         -5    1    5    5    0  502  0.12307639675E+03 -0.11462464504E+03 -0.48871155896E+03  0.51686331515E+03  0.47000000000E+01 0.  1.
         13    1    6    6    0    0 -0.21863140293E+02 -0.43170867359E+01 -0.95981352868E+01  0.24264343023E+02  0.00000000000E+00 0. -1.
        -14    1    6    6    0    0  0.21687256070E+02 -0.17749744135E+02 -0.18123538523E+03  0.18338935452E+03  0.00000000000E+00 0.  1.
</event>
<event>
12    1  0.8461994E-002  0.2853157E+03  0.7818608E-02  0.1093151E+00
         21   -1    0    0  501  502  0.00000000000E+00  0.00000000000E+00  0.17664621727E+03  0.17664621727E+03  0.00000000000E+00 0. -1.
         21   -1    0    0  502  503 -0.00000000000E+00 -0.00000000000E+00 -0.48914060995E+03  0.48914060995E+03  0.00000000000E+00 0.  1.
         -6    2    1    2    0  503 -0.19633929080E+03  0.10964856436E+03 -0.24240789041E+03  0.37438836903E+03  0.17559368085E+03 0.  0.
        -24    2    3    3    0    0 -0.93354250094E+02  0.12680166486E+03 -0.12769119218E+03  0.21920409690E+03  0.83376959117E+02 0.  0.
          6    2    1    2  501    0  0.19633929080E+03 -0.10964856436E+03 -0.70086502269E+02  0.29139845819E+03  0.17154888183E+03 0.  0.
         24    2    5    5    0    0  0.10551319113E+03  0.98930049097E+01 -0.29052081112E+02  0.13568885385E+03  0.79602365493E+02 0.  0.
          5    1    5    5  501    0  0.90826099670E+02 -0.11954156927E+03 -0.41034421157E+02  0.15570960434E+03  0.47000000000E+01 0. -1.
        -11    1    6    6    0    0  0.44492501069E+02 -0.16034984804E+02 -0.47335843049E+02  0.66913267939E+02  0.00000000000E+00 0.  1.
         12    1    6    6    0    0  0.61020690064E+02  0.25927989713E+02  0.18283761937E+02  0.68775585909E+02  0.00000000000E+00 0. -1.
         -5    1    3    3    0  503 -0.10298504071E+03 -0.17153100503E+02 -0.11471669823E+03  0.15518427214E+03  0.47000000000E+01 0.  1.
         13    1    4    4    0    0 -0.53685632942E+02  0.17658447817E+02 -0.17617086809E+02  0.59197379261E+02  0.00000000000E+00 0. -1.
        -14    1    4    4    0    0 -0.39668617151E+02  0.10914321705E+03 -0.11007410538E+03  0.16000671763E+03  0.00000000000E+00 0.  1.
</event>
<event>
12    1  0.8461994E-002  0.2076452E+03  0.7818608E-02  0.1143595E+00
         21   -1    0    0  501  502  0.00000000000E+00  0.00000000000E+00  0.10403576251E+03  0.10403576251E+03  0.00000000000E+00 0.  1.
         21   -1    0    0  502  503 -0.00000000000E+00 -0.00000000000E+00 -0.42052806699E+03  0.42052806699E+03  0.00000000000E+00 0.  1.
         -6    2    1    2    0  503 -0.11198767129E+03  0.30884947571E+02 -0.12331114253E+03  0.24149981906E+03  0.17210870469E+03 0.  0.
        -24    2    3    3    0    0  0.58440277026E+00 -0.20846446981E+02 -0.68960564971E+02  0.10613112135E+03  0.77931633629E+02 0.  0.
          6    2    1    2  501    0  0.11198767129E+03 -0.30884947571E+02 -0.19318116196E+03  0.28306401044E+03  0.17120500625E+03 0.  0.
         24    2    5    5    0    0  0.10421239171E+03  0.24596889728E+02 -0.77240473663E+02  0.15421129435E+03  0.79685650918E+02 0.  0.
          5    1    5    5  501    0  0.77752795732E+01 -0.55481837300E+02 -0.11594068829E+03  0.12885271609E+03  0.47000000000E+01 0. -1.
        -13    1    6    6    0    0  0.10911924342E+03  0.82415162703E+01 -0.46197499902E+02  0.11878190465E+03  0.00000000000E+00 0.  1.
         14    1    6    6    0    0 -0.49068517063E+01  0.16355373458E+02 -0.31042973761E+02  0.35429389700E+02  0.00000000000E+00 0. -1.
         -5    1    3    3    0  503 -0.11257207406E+03  0.51731394552E+02 -0.54350577555E+02  0.13536869771E+03  0.47000000000E+01 0.  1.
         11    1    4    4    0    0  0.28217494918E+02 -0.35969182678E+02 -0.25169639209E+02  0.52187353448E+02  0.00000000000E+00 0. -1.
        -12    1    4    4    0    0 -0.27633092148E+02  0.15122735697E+02 -0.43790925762E+02  0.53943767905E+02  0.00000000000E+00 0.  1.
</event>
<event>
12    1  0.8461994E-002  0.1728192E+03  0.7818608E-02  0.1175105E+00
         21   -1    0    0  503  502  0.00000000000E+00  0.00000000000E+00  0.42028153545E+02  0.42028153545E+02  0.00000000000E+00 0.  1.
         21   -1    0    0  501  503 -0.00000000000E+00 -0.00000000000E+00 -0.70796962413E+03  0.70796962413E+03  0.00000000000E+00 0.  1.
          6    2    1    2  501    0  0.10094980818E+02  0.75957827221E+01 -0.33461183466E+03  0.37660530343E+03  0.17235681051E+03 0.  0.
         24    2    3    3    0    0  0.74195626735E+02  0.38964001412E+01 -0.22217479529E+03  0.24704158915E+03  0.78407487811E+02 0.  0.
         -6    2    1    2    0  502 -0.10094980818E+02 -0.75957827221E+01 -0.33132963593E+03  0.37339247424E+03  0.17170616653E+03 0.  0.
        -24    2    5    5    0    0  0.11427046023E+02  0.24821541538E+02 -0.76723416103E+02  0.11578716039E+03  0.82301261395E+02 0.  0.
          5    1    3    3  501    0 -0.64100645916E+02  0.36993825809E+01 -0.11243703937E+03  0.12956371429E+03  0.47000000000E+01 0. -1.
        -11    1    4    4    0    0 -0.71480165929E+01 -0.21398687750E+02 -0.39716888061E+02  0.45677447126E+02  0.00000000000E+00 0.  1.
         12    1    4    4    0    0  0.81343643328E+02  0.25295087891E+02 -0.18245790723E+03  0.20136414202E+03  0.00000000000E+00 0. -1.
         -5    1    5    5    0  502 -0.21522026841E+02 -0.32417324260E+02 -0.25460621982E+03  0.25760531385E+03  0.47000000000E+01 0.  1.
         11    1    6    6    0    0 -0.31383234135E+02  0.24462926936E+02 -0.54702442326E+02  0.67643916027E+02  0.00000000000E+00 0. -1.
        -12    1    6    6    0    0  0.42810280157E+02  0.35861460141E+00 -0.22020973777E+02  0.48143244362E+02  0.00000000000E+00 0.  1.
</event>
<event>
12    1  0.8461994E-002  0.2142109E+03  0.7818608E-02  0.1138371E+00
         21   -1    0    0  503  502  0.00000000000E+00  0.00000000000E+00  0.36377800403E+03  0.36377800403E+03  0.00000000000E+00 0.  1.
         21   -1    0    0  501  503 -0.00000000000E+00 -0.00000000000E+00 -0.21745913352E+03  0.21745913352E+03  0.00000000000E+00 0.  1.
          6    2    1    2  501    0 -0.55768239342E+02 -0.11345130851E+03 -0.11552288910E+03  0.24293634629E+03  0.17231144628E+03 0.  0.
         24    2    3    3    0    0 -0.48361475824E+02 -0.81471523132E+02 -0.45182588412E+00  0.12318240519E+03  0.78722673844E+02 0.  0.
         -6    2    1    2    0  502  0.55768239342E+02  0.11345130851E+03  0.26184175961E+03  0.33830079126E+03  0.17293068660E+03 0.  0.
        -24    2    5    5    0    0  0.54801779742E+02  0.14951355378E+03  0.20792063674E+03  0.27325467631E+03  0.77971719993E+02 0.  0.
          5    1    3    3  501    0 -0.74067635186E+01 -0.31979785382E+02 -0.11507106322E+03  0.11975394110E+03  0.47000000000E+01 0. -1.
        -11    1    4    4    0    0 -0.54238640320E+02 -0.35725552802E+02  0.26063584583E+02  0.69981823841E+02  0.00000000000E+00 0.  1.
         12    1    4    4    0    0  0.58771644961E+01 -0.45745970329E+02 -0.26515410467E+02  0.53200581351E+02  0.00000000000E+00 0. -1.
         -5    1    5    5    0  502  0.96645960036E+00 -0.36062245266E+02  0.53921122873E+02  0.65046114947E+02  0.47000000000E+01 0.  1.
         13    1    6    6    0    0  0.53313875041E+01  0.11826138308E+03  0.13025564180E+03  0.17601338200E+03  0.00000000000E+00 0. -1.
        -14    1    6    6    0    0  0.49470392238E+02  0.31252170695E+02  0.77664994936E+02  0.97241294313E+02  0.00000000000E+00 0.  1.
</event>
<event>
12    1  0.8461994E-002  0.2072384E+03  0.7818608E-02  0.1143907E+00
         21   -1    0    0  501  502  0.00000000000E+00  0.00000000000E+00  0.33658399459E+03  0.33658399459E+03  0.00000000000E+00 0.  1.
         21   -1    0    0  502  503 -0.00000000000E+00 -0.00000000000E+00 -0.22360900326E+03  0.22360900326E+03  0.00000000000E+00 0.  1.
         -6    2    1    2    0  503  0.43857670273E+01 -0.11530876349E+03 -0.12739081006E+03  0.24326149402E+03  0.17214061140E+03 0.  0.
        -24    2    3    3    0    0 -0.78171775905E+01 -0.21506558892E+00 -0.13207053375E+02  0.80610052445E+02  0.79135325725E+02 0.  0.
          6    2    1    2  501    0 -0.43857670273E+01  0.11530876349E+03  0.24036580139E+03  0.31693150384E+03  0.17133159007E+03 0.  0.
         24    2    5    5    0    0  0.33257484432E+01  0.64047363053E+02  0.24405237947E+03  0.26475028591E+03  0.80112574859E+02 0.  0.
          5    1    5    5  501    0 -0.77115154705E+01  0.51261400440E+02 -0.36865780776E+01  0.52181217922E+02  0.47000000000E+01 0. -1.
        -11    1    6    6    0    0 -0.11052543777E+02  0.76923842682E+02  0.15220792918E+03  0.17089964893E+03  0.00000000000E+00 0.  1.
         12    1    6    6    0    0  0.14378292220E+02 -0.12876479629E+02  0.91844450285E+02  0.93850636988E+02  0.00000000000E+00 0. -1.
         -5    1    3    3    0  503  0.12202944618E+02 -0.11509369790E+03 -0.11418375669E+03  0.16265144157E+03  0.47000000000E+01 0.  1.
         11    1    4    4    0    0  0.32055149306E+02  0.16738649885E+02 -0.48806083212E+01  0.36490208749E+02  0.00000000000E+00 0. -1.
        -12    1    4    4    0    0 -0.39872326896E+02 -0.16953715474E+02 -0.83264450534E+01  0.44119843695E+02  0.00000000000E+00 0.  1.
</event>
<event>
12    1  0.8461994E-002  0.2142557E+03  0.7818608E-02  0.1138384E+00
         21   -1    0    0  501  502  0.00000000000E+00  0.00000000000E+00  0.99867543953E+02  0.99867543953E+02  0.00000000000E+00 0.  1.
         21   -1    0    0  502  503 -0.00000000000E+00 -0.00000000000E+00 -0.51210661699E+03  0.51210661699E+03  0.00000000000E+00 0.  1.
         -6    2    1    2    0  503  0.12012423222E+03  0.45533584971E+02 -0.30520044880E+03  0.37246889205E+03  0.17053628079E+03 0.  0.
        -24    2    3    3    0    0  0.42354902401E+02  0.73709455348E+02 -0.23971711418E+03  0.26686536253E+03  0.80782456786E+02 0.  0.
          6    2    1    2  501    0 -0.12012423222E+03 -0.45533584971E+02 -0.10703862423E+03  0.23950526890E+03  0.17147118774E+03 0.  0.
         24    2    5    5    0    0 -0.12131542880E+03 -0.39240658040E+02 -0.18318915113E+02  0.15043059985E+03  0.77695046267E+02 0.  0.
          5    1    5    5  501    0  0.11911965743E+01 -0.62929269308E+01 -0.88719709118E+02  0.89074669041E+02  0.47000000000E+01 0. -1.
        -13    1    6    6    0    0 -0.69886236709E+02 -0.32022066635E+02 -0.47985914021E+02  0.90620895920E+02  0.00000000000E+00 0.  1.
         14    1    6    6    0    0 -0.51429192086E+02 -0.72185914048E+01  0.29666998908E+02  0.59809703934E+02  0.00000000000E+00 0. -1.
         -5    1    3    3    0  503  0.77769329820E+02 -0.28175870377E+02 -0.65483334625E+02  0.10560352951E+03  0.47000000000E+01 0.  1.
         11    1    4    4    0    0 -0.12596776764E+02 -0.48186785206E+01 -0.70249180821E+01  0.15206837987E+02  0.00000000000E+00 0. -1.
        -12    1    4    4    0    0  0.54951679165E+02  0.78528133868E+02 -0.23269219610E+03  0.25165852454E+03  0.00000000000E+00 0.  1.
</event>
<event>
12    1  0.8461994E-002  0.1837808E+03  0.7818608E-02  0.1165948E+00
         21   -1    0    0  501  502  0.00000000000E+00  0.00000000000E+00  0.87853886683E+03  0.87853886683E+03  0.00000000000E+00 0.  1.
         21   -1    0    0  502  503 -0.00000000000E+00 -0.00000000000E+00 -0.50072978416E+02  0.50072978416E+02  0.00000000000E+00 0.  1.
         -6    2    1    2    0  503 -0.58460649761E+02 -0.27030645952E+02  0.18262016445E+03  0.25908588688E+03  0.17212515483E+03 0.  0.
        -24    2    3    3    0    0  0.11861634124E+02  0.18969447396E+02  0.14281318163E+03  0.16598423233E+03  0.81575867970E+02 0.  0.
          6    2    1    2  501    0  0.58460649761E+02  0.27030645952E+02  0.64584572396E+03  0.66952595837E+03  0.16431678664E+03 0.  0.
         24    2    5    5    0    0  0.60146532018E+01  0.39166053679E+02  0.56744072397E+03  0.57430366738E+03  0.79155362025E+02 0.  0.
          5    1    5    5  501    0  0.52445996559E+02 -0.12135407727E+02  0.78404999993E+02  0.95222290981E+02  0.47000000000E+01 0. -1.
        -11    1    6    6    0    0  0.99085248773E+01  0.58424083589E+02  0.51327815346E+03  0.51668754120E+03  0.00000000000E+00 0.  1.
         12    1    6    6    0    0 -0.38938716755E+01 -0.19258029909E+02  0.54162570510E+02  0.57616126188E+02  0.00000000000E+00 0. -1.
         -5    1    3    3    0  503 -0.70322283885E+02 -0.46000093348E+02  0.39806982815E+02  0.93101654548E+02  0.47000000000E+01 0.  1.
         11    1    4    4    0    0 -0.33562896448E+02  0.11525130180E+02  0.84815972975E+02  0.91940447657E+02  0.00000000000E+00 0. -1.
        -12    1    4    4    0    0  0.45424530572E+02  0.74443172154E+01  0.57997208658E+02  0.74043784672E+02  0.00000000000E+00 0.  1.
</event>
<event>
12    1  0.8461994E-002  0.1872357E+03  0.7818608E-02  0.1161499E+00
         21   -1    0    0  501  502  0.00000000000E+00  0.00000000000E+00  0.13644956154E+04  0.13644956154E+04  0.00000000000E+00 0. -1.
         21   -1    0    0  502  503 -0.00000000000E+00 -0.00000000000E+00 -0.71054836411E+02  0.71054836411E+02  0.00000000000E+00 0. -1.
         -6    2    1    2    0  503 -0.24871353992E+02 -0.64241525069E+02  0.69877419513E+02  0.19774413128E+03  0.17168089558E+03 0.  0.
        -24    2    3    3    0    0  0.36655389260E+02 -0.58980721571E+02  0.82916053475E+02  0.13445659567E+03  0.79882170199E+02 0.  0.
          6    2    1    2  501    0  0.24871353992E+02  0.64241525069E+02  0.12235633595E+04  0.12378063206E+04  0.17410236844E+03 0.  0.
         24    2    5    5    0    0 -0.18308733965E+02 -0.51170207455E+00  0.26793034736E+03  0.27899766169E+03  0.75614500016E+02 0.  0.
          5    1    5    5  501    0  0.43180087957E+02  0.64753227143E+02  0.95563301216E+03  0.95880865889E+03  0.47000000000E+01 0. -1.
        -13    1    6    6    0    0  0.23749724191E+02 -0.37962311457E+01  0.36219222526E+02  0.43477498208E+02  0.00000000000E+00 0.  1.
         14    1    6    6    0    0 -0.42058458156E+02  0.32845290712E+01  0.23171112483E+03  0.23552016348E+03  0.00000000000E+00 0. -1.
         -5    1    3    3    0  503 -0.61526743252E+02 -0.52608034984E+01 -0.13038633962E+02  0.63287535615E+02  0.47000000000E+01 0.  1.
         13    1    4    4    0    0  0.97971354467E+01  0.38207152909E+01 -0.12990573189E+02  0.16713369501E+02  0.00000000000E+00 0. -1.
        -14    1    4    4    0    0  0.26858253813E+02 -0.62801436861E+02  0.95906626665E+02  0.11774322617E+03  0.00000000000E+00 0.  1.
</event>
<event>
12    1  0.8461994E-002  0.1870561E+03  0.7818608E-02  0.1162135E+00
         21   -1    0    0  501  502  0.00000000000E+00  0.00000000000E+00  0.52252661272E+02  0.52252661272E+02  0.00000000000E+00 0.  1.
         21   -1    0    0  502  503 -0.00000000000E+00 -0.00000000000E+00 -0.96050120629E+03  0.96050120629E+03  0.00000000000E+00 0.  1.
         -6    2    1    2    0  503  0.11198150549E+02  0.60821083517E+02 -0.73637572529E+03  0.75872581028E+03  0.17202047442E+03 0.  0.
        -24    2    3    3    0    0  0.25257927232E+02 -0.28411769448E+02 -0.30309008139E+03  0.31609874539E+03  0.81299617885E+02 0.  0.
          6    2    1    2  501    0 -0.11198150549E+02 -0.60821083517E+02 -0.17187281973E+03  0.25402805728E+03  0.17653720556E+03 0.  0.
         24    2    5    5    0    0 -0.43777212741E+02 -0.92984492455E+02 -0.81039741027E+02  0.15220164443E+03  0.77687455537E+02 0.  0.
          5    1    5    5  501    0  0.32579062193E+02  0.32163408938E+02 -0.90833078703E+02  0.10182641285E+03  0.47000000000E+01 0. -1.
        -11    1    6    6    0    0 -0.16886179166E+02  0.10790466543E+02 -0.46645029220E+01  0.20575101520E+02  0.00000000000E+00 0.  1.
         12    1    6    6    0    0 -0.26891033575E+02 -0.10377495900E+03 -0.76375238105E+02  0.13162654291E+03  0.00000000000E+00 0. -1.
         -5    1    3    3    0  503 -0.14059776683E+02  0.89232852965E+02 -0.43328564389E+03  0.44262706489E+03  0.47000000000E+01 0.  1.
         11    1    4    4    0    0  0.42625110382E+02  0.42189272040E+01 -0.88178073436E+02  0.98030974782E+02  0.00000000000E+00 0. -1.
        -12    1    4    4    0    0 -0.17367183150E+02 -0.32630696652E+02 -0.21491200796E+03  0.21806777061E+03  0.00000000000E+00 0.  1.
</event>
<event>
12    1  0.8461994E-002  0.1860978E+03  0.7818608E-02  0.1162509E+00
         21   -1    0    0  503  502  0.00000000000E+00  0.00000000000E+00  0.63269388529E+03  0.63269388529E+03  0.00000000000E+00 0.  1.
         21   -1    0    0  501  503 -0.00000000000E+00 -0.00000000000E+00 -0.55775392876E+02  0.55775392876E+02  0.00000000000E+00 0.  1.
          6    2    1    2  501    0 -0.70523692824E+02  0.11178953465E+02  0.34908982662E+03  0.39559588354E+03  0.17185411189E+03 0.  0.
         24    2    3    3    0    0 -0.10435872335E+03 -0.10199215221E+02  0.31961052615E+03  0.34566638782E+03  0.79621580683E+02 0.  0.
         -6    2    1    2    0  502  0.70523692824E+02 -0.11178953465E+02  0.22782866579E+03  0.29287339463E+03  0.16961828933E+03 0.  0.
        -24    2    5    5    0    0  0.76453085068E+02  0.31975660504E+02  0.22080707069E+03  0.24850143054E+03  0.78292282074E+02 0.  0.
          5    1    3    3  501    0  0.33835030522E+02  0.21378168686E+02  0.29479300469E+02  0.49929495721E+02  0.47000000000E+01 0. -1.
        -13    1    4    4    0    0 -0.34414883119E+02 -0.36644129670E+02  0.18469661759E+03  0.19141582215E+03  0.00000000000E+00 0.  1.
         14    1    4    4    0    0 -0.69943840227E+02  0.26444914449E+02  0.13491390856E+03  0.15425056567E+03  0.00000000000E+00 0. -1.
         -5    1    5    5    0  502 -0.59293922449E+01 -0.43154613969E+02  0.70215951022E+01  0.44371964088E+02  0.47000000000E+01 0.  1.
         13    1    6    6    0    0  0.51853811620E+02  0.19942763292E+02  0.21285466764E+03  0.21998554753E+03  0.00000000000E+00 0. -1.
        -14    1    6    6    0    0  0.24599273449E+02  0.12032897212E+02  0.79524030536E+01  0.28515883010E+02  0.00000000000E+00 0.  1.
</event>
<event>
12    1  0.8461994E-002  0.1753771E+03  0.7818608E-02  0.1172858E+00
         21   -1    0    0  503  502  0.00000000000E+00  0.00000000000E+00  0.25583218913E+03  0.25583218913E+03  0.00000000000E+00 0.  1.
         21   -1    0    0  501  503 -0.00000000000E+00 -0.00000000000E+00 -0.22448894937E+03  0.22448894937E+03  0.00000000000E+00 0.  1.
          6    2    1    2  501    0 -0.21363342413E+02 -0.66800137320E+00 -0.14902220908E+03  0.23014068782E+03  0.17406975259E+03 0.  0.
         24    2    3    3    0    0 -0.23128687954E+02  0.67027297609E+02 -0.10056904141E+03  0.14674063143E+03  0.79944268028E+02 0.  0.
         -6    2    1    2    0  502  0.21363342413E+02  0.66800137320E+00  0.18036544884E+03  0.25018045068E+03  0.17205151595E+03 0.  0.
        -24    2    5    5    0    0  0.41544000928E+02  0.48155075825E+02  0.60654275128E+02  0.11973837032E+03  0.81323556819E+02 0.  0.
          5    1    3    3  501    0  0.17653455417E+01 -0.67695298982E+02 -0.48453167676E+02  0.83400056397E+02  0.47000000000E+01 0. -1.
        -11    1    4    4    0    0  0.28920955982E+02  0.14863085143E+02 -0.38490630869E+02  0.50387117993E+02  0.00000000000E+00 0.  1.
         12    1    4    4    0    0 -0.52049643936E+02  0.52164212466E+02 -0.62078410537E+02  0.96353513433E+02  0.00000000000E+00 0. -1.
         -5    1    5    5    0  502 -0.20180658515E+02 -0.47487074452E+02  0.11971117371E+03  0.13044208036E+03  0.47000000000E+01 0.  1.
         11    1    6    6    0    0 -0.42097820183E+01  0.56453718269E+02  0.36264871685E+02  0.67230093628E+02  0.00000000000E+00 0. -1.
        -12    1    6    6    0    0  0.45753782946E+02 -0.82986424438E+01  0.24389403444E+02  0.52508276687E+02  0.00000000000E+00 0.  1.
</event>
<event>
12    1  0.8461994E-002  0.1890986E+03  0.7818608E-02  0.1159902E+00
         21   -1    0    0  501  502  0.00000000000E+00  0.00000000000E+00  0.11379277698E+03  0.11379277698E+03  0.00000000000E+00 0.  1.
         21   -1    0    0  502  503 -0.00000000000E+00 -0.00000000000E+00 -0.72640844520E+03  0.72640844520E+03  0.00000000000E+00 0.  1.
         -6    2    1    2    0  503 -0.48527590806E+02  0.54795242116E+02 -0.62353264632E+03  0.65078780476E+03  0.17138949841E+03 0.  0.
        -24    2    3    3    0    0  0.25863252051E+02 -0.15327797786E+02 -0.33915407141E+03  0.34855527491E+03  0.74575105276E+02 0.  0.
          6    2    1    2  501    0  0.48527590806E+02 -0.54795242116E+02  0.10916978101E+02  0.18941341743E+03  0.17435829967E+03 0.  0.
         24    2    5    5    0    0  0.94923951420E+02 -0.13476445366E+02  0.30459284961E+01  0.12661287073E+03  0.82640003763E+02 0.  0.
          5    1    5    5  501    0 -0.46396360614E+02 -0.41318796750E+02  0.78710496050E+01  0.62800546693E+02  0.47000000000E+01 0. -1.
        -13    1    6    6    0    0  0.92666608046E+01 -0.35099151861E+02  0.10945697184E+02  0.37916088283E+02  0.00000000000E+00 0.  1.
         14    1    6    6    0    0  0.85657290615E+02  0.21622706495E+02 -0.78997686877E+01  0.88696782450E+02  0.00000000000E+00 0. -1.
         -5    1    3    3    0  503 -0.74390842857E+02  0.70123039903E+02 -0.28437857492E+03  0.30223252985E+03  0.47000000000E+01 0.  1.
         13    1    4    4    0    0  0.93982005683E+01 -0.27904562131E+02 -0.45659458811E+02  0.54330258057E+02  0.00000000000E+00 0. -1.
        -14    1    4    4    0    0  0.16465051482E+02  0.12576764345E+02 -0.29349461259E+03  0.29422501686E+03  0.00000000000E+00 0.  1.
</event>
<event>
12    1  0.8461994E-002  0.2264331E+03  0.7818608E-02  0.1130040E+00
         21   -1    0    0  503  502  0.00000000000E+00  0.00000000000E+00  0.11684262664E+03  0.11684262664E+03  0.00000000000E+00 0. -1.
         21   -1    0    0  501  503 -0.00000000000E+00 -0.00000000000E+00 -0.45241101744E+03  0.45241101744E+03  0.00000000000E+00 0. -1.
          6    2    1    2  501    0 -0.81454545886E+02 -0.12040064064E+03 -0.22994324022E+03  0.31939640338E+03  0.16735893003E+03 0.  0.
         24    2    3    3    0    0  0.19839112410E+02 -0.60824259098E+02 -0.88227236550E+02  0.13523542450E+03  0.80071180166E+02 0.  0.
         -6    2    1    2    0  502  0.81454545886E+02  0.12040064064E+03 -0.10562515058E+03  0.24985724071E+03  0.17361109120E+03 0.  0.
        -24    2    5    5    0    0 -0.10354683936E+02  0.66047987741E+02 -0.82311715260E+01  0.10532066155E+03  0.80963778327E+02 0.  0.
          5    1    3    3  501    0 -0.10129365830E+03 -0.59576381538E+02 -0.14171600367E+03  0.18416097888E+03  0.47000000000E+01 0. -1.
        -13    1    4    4    0    0  0.26373960275E+02 -0.85673971895E+01  0.49845899929E+01  0.28175028173E+02  0.00000000000E+00 0.  1.
         14    1    4    4    0    0 -0.65348478643E+01 -0.52256861909E+02 -0.93211826543E+02  0.10706039632E+03  0.00000000000E+00 0. -1.
         -5    1    5    5    0  502  0.91809229821E+02  0.54352652896E+02 -0.97393979056E+02  0.14453657915E+03  0.47000000000E+01 0.  1.
         11    1    6    6    0    0  0.29577712179E+02  0.75490092491E+01  0.10108412611E+02  0.32156004166E+02  0.00000000000E+00 0. -1.
        -12    1    6    6    0    0 -0.39932396115E+02  0.58498978492E+02 -0.18339584137E+02  0.73164657386E+02  0.00000000000E+00 0.  1.
</event>
<event>
12    1  0.8461994E-002  0.3011864E+03  0.7818608E-02  0.1084703E+00
         21   -1    0    0  501  502  0.00000000000E+00  0.00000000000E+00  0.34486205888E+03  0.34486205888E+03  0.00000000000E+00 0. -1.
         21   -1    0    0  502  503 -0.00000000000E+00 -0.00000000000E+00 -0.52991730094E+03  0.52991730094E+03  0.00000000000E+00 0.  1.
         -6    2    1    2    0  503 -0.13451857377E+03 -0.20633852478E+03 -0.40311398141E+03  0.50294221878E+03  0.17256639282E+03 0.  0.
        -24    2    3    3    0    0 -0.14671935384E+03 -0.12444427116E+03 -0.27727154665E+03  0.35223078525E+03  0.10086659548E+03 0.  0.
          6    2    1    2  501    0  0.13451857377E+03  0.20633852478E+03  0.21805873934E+03  0.37183714104E+03  0.17332747086E+03 0.  0.
         24    2    5    5    0    0  0.84871424172E+02  0.20339488413E+03  0.12394013408E+03  0.26528243049E+03  0.80255676180E+02 0.  0.
          5    1    5    5  501    0  0.49647149602E+02  0.29436406458E+01  0.94118605263E+02  0.10655471055E+03  0.47000000000E+01 0. -1.
        -13    1    6    6    0    0  0.78655470705E+02  0.90522679456E+02  0.48384491934E+02  0.12931394986E+03  0.00000000000E+00 0.  1.
         14    1    6    6    0    0  0.62159534673E+01  0.11287220468E+03  0.75555642146E+02  0.13596848064E+03  0.00000000000E+00 0. -1.
         -5    1    3    3    0  503  0.12200780069E+02 -0.81894253620E+02 -0.12584243476E+03  0.15071143353E+03  0.47000000000E+01 0.  1.
         13    1    4    4    0    0 -0.47267388759E+02 -0.97169163933E+02 -0.10044564740E+03  0.14753094774E+03  0.00000000000E+00 0. -1.
        -14    1    4    4    0    0 -0.99451965083E+02 -0.27275107225E+02 -0.17682589925E+03  0.20469983751E+03  0.00000000000E+00 0.  1.
</event>
<event>
12    1  0.8461994E-002  0.2308041E+03  0.7818608E-02  0.1126580E+00
         21   -1    0    0  503  502  0.00000000000E+00  0.00000000000E+00  0.49730959882E+02  0.49730959882E+02  0.00000000000E+00 0.  1.
         21   -1    0    0  501  503 -0.00000000000E+00 -0.00000000000E+00 -0.11781342835E+04  0.11781342835E+04  0.00000000000E+00 0. -1.
          6    2    1    2  501    0  0.12579670979E+03 -0.85277972317E+02 -0.36494867544E+03  0.43028545676E+03  0.16988494294E+03 0.  0.
         24    2    3    3    0    0  0.32158363377E+02 -0.50766672196E+02 -0.75295780130E+02  0.12388692622E+03  0.77891595453E+02 0.  0.
         -6    2    1    2    0  502 -0.12579670979E+03  0.85277972317E+02 -0.76345464817E+03  0.79757978661E+03  0.17370484002E+03 0.  0.
        -24    2    5    5    0    0 -0.11609166229E+03 -0.52094390492E+01 -0.49105149444E+03  0.51033820236E+03  0.76217440843E+02 0.  0.
          5    1    3    3  501    0  0.93638346411E+02 -0.34511300122E+02 -0.28965289531E+03  0.30639853054E+03  0.47000000000E+01 0. -1.
        -11    1    4    4    0    0  0.52321959276E+02 -0.56592807029E+02 -0.63126389487E+02  0.99625670786E+02  0.00000000000E+00 0.  1.
         12    1    4    4    0    0 -0.20163595899E+02  0.58261348329E+01 -0.12169390642E+02  0.24261255435E+02  0.00000000000E+00 0. -1.
         -5    1    5    5    0  502 -0.97050475004E+01  0.90487411367E+02 -0.27240315373E+03  0.28724158426E+03  0.47000000000E+01 0.  1.
         11    1    6    6    0    0 -0.37351326434E+01  0.15443013801E+02 -0.14612044287E+03  0.14698170538E+03  0.00000000000E+00 0. -1.
        -12    1    6    6    0    0 -0.11235652964E+03 -0.20652452850E+02 -0.34493105156E+03  0.36335649698E+03  0.00000000000E+00 0.  1.
</event>
<event>
12    1  0.8461994E-002  0.1777665E+03  0.7818608E-02  0.1170176E+00
         21   -1    0    0  501  502  0.00000000000E+00  0.00000000000E+00  0.34453293386E+02  0.34453293386E+02  0.00000000000E+00 0. -1.
         21   -1    0    0  502  503 -0.00000000000E+00 -0.00000000000E+00 -0.14541622970E+04  0.14541622970E+04  0.00000000000E+00 0. -1.
         -6    2    1    2    0  503 -0.48169488107E+01  0.44093722386E+02 -0.11648230595E+04  0.11783096684E+04  0.17214370524E+03 0.  0.
        -24    2    3    3    0    0 -0.36645772671E+02  0.43720779536E+02 -0.11131324716E+04  0.11174227240E+04  0.79468393679E+02 0.  0.
          6    2    1    2  501    0  0.48169488107E+01 -0.44093722386E+02 -0.25488594411E+03  0.31030592203E+03  0.17133435554E+03 0.  0.
         24    2    5    5    0    0 -0.34577259628E+02  0.15124610376E+02 -0.20478941391E+03  0.22318263621E+03  0.80295979554E+02 0.  0.
          5    1    5    5  501    0  0.39394208438E+02 -0.59218332762E+02 -0.50096530203E+02  0.87123285820E+02  0.47000000000E+01 0. -1.
        -13    1    6    6    0    0 -0.12489187818E+02 -0.47063105939E+01 -0.18916939354E+03  0.18963962830E+03  0.00000000000E+00 0.  1.
         14    1    6    6    0    0 -0.22088071810E+02  0.19830920970E+02 -0.15620020372E+02  0.33543007903E+02  0.00000000000E+00 0. -1.
         -5    1    3    3    0  503  0.31828823860E+02  0.37294284996E+00 -0.51690587933E+02  0.60886944377E+02  0.47000000000E+01 0.  1.
         11    1    4    4    0    0 -0.60987050450E+02  0.21019549800E+02 -0.74781653034E+03  0.75059363496E+03  0.00000000000E+00 0. -1.
        -12    1    4    4    0    0  0.24341277779E+02  0.22701229736E+02 -0.36531594122E+03  0.36682908901E+03  0.00000000000E+00 0.  1.
</event>
<event>
12    1  0.8461994E-002  0.2301977E+03  0.7818608E-02  0.1127249E+00
         21   -1    0    0  501  502  0.00000000000E+00  0.00000000000E+00  0.48444576356E+03  0.48444576356E+03  0.00000000000E+00 0. -1.
         21   -1    0    0  502  503 -0.00000000000E+00 -0.00000000000E+00 -0.11055495806E+03  0.11055495806E+03  0.00000000000E+00 0.  1.
         -6    2    1    2    0  503  0.25591708014E+02  0.14577723307E+03  0.23894949486E+03  0.33179485566E+03  0.17630946641E+03 0.  0.
        -24    2    3    3    0    0  0.21168540097E+02  0.17352422232E+03  0.23354720488E+03  0.30279943250E+03  0.81144541391E+02 0.  0.
          6    2    1    2  501    0 -0.25591708014E+02 -0.14577723307E+03  0.13494131064E+03  0.26320586597E+03  0.17076953288E+03 0.  0.
         24    2    5    5    0    0  0.86216371834E+01 -0.14534791950E+02  0.16496695231E+02  0.83077166808E+02  0.79649745050E+02 0.  0.
          5    1    5    5  501    0 -0.34213345197E+02 -0.13124244112E+03  0.11844461541E+03  0.18012869916E+03  0.47000000000E+01 0. -1.
        -11    1    6    6    0    0 -0.24744695815E+02 -0.30762337592E+02 -0.56275777752E+01  0.39878453038E+02  0.00000000000E+00 0.  1.
         12    1    6    6    0    0  0.33366332998E+02  0.16227545642E+02  0.22124273007E+02  0.43198713770E+02  0.00000000000E+00 0. -1.
         -5    1    3    3    0  503  0.44231679168E+01 -0.27746989246E+02  0.54022899776E+01  0.28995423150E+02  0.47000000000E+01 0.  1.
         11    1    4    4    0    0 -0.25853510425E+02  0.43252963302E+02  0.37716374081E+02  0.62942415822E+02  0.00000000000E+00 0. -1.
        -12    1    4    4    0    0  0.47022050523E+02  0.13027125902E+03  0.19583083080E+03  0.23985701668E+03  0.00000000000E+00 0.  1.
</event>
<event>
12    1  0.8461994E-002  0.1818836E+03  0.7818608E-02  0.1166077E+00
         21   -1    0    0  501  502  0.00000000000E+00  0.00000000000E+00  0.14823125814E+03  0.14823125814E+03  0.00000000000E+00 0. -1.
         21   -1    0    0  502  503 -0.00000000000E+00 -0.00000000000E+00 -0.84720956106E+03  0.84720956106E+03  0.00000000000E+00 0. -1.
         -6    2    1    2    0  503 -0.60092862357E+02  0.73625736254E+01 -0.77689178433E+03  0.79789880260E+03  0.17151179272E+03 0.  0.
        -24    2    3    3    0    0 -0.99821845184E+02 -0.27996602877E+02 -0.50714461999E+03  0.52291828309E+03  0.74159656571E+02 0.  0.
          6    2    1    2  501    0  0.60092862357E+02 -0.73625736254E+01  0.77913481400E+02  0.19754201660E+03  0.17113438621E+03 0.  0.
         24    2    5    5    0    0  0.70548247339E+02 -0.63456007425E+02  0.58886225495E+02  0.13721030970E+03  0.79720520908E+02 0.  0.
          5    1    5    5  501    0 -0.10455384982E+02  0.56093433799E+02  0.19027255905E+02  0.60331706903E+02  0.47000000000E+01 0. -1.
        -13    1    6    6    0    0 -0.16517938173E+02 -0.10872686465E+02  0.18980003859E+00  0.19776086987E+02  0.00000000000E+00 0.  1.
         14    1    6    6    0    0  0.87066185512E+02 -0.52583320960E+02  0.58696425456E+02  0.11743422271E+03  0.00000000000E+00 0. -1.
         -5    1    3    3    0  503  0.39728982827E+02  0.35359176502E+02 -0.26974716434E+03  0.27498051951E+03  0.47000000000E+01 0.  1.
         11    1    4    4    0    0 -0.27405104635E+01  0.42282040613E+01 -0.18185506053E+03  0.18192485028E+03  0.00000000000E+00 0. -1.
        -12    1    4    4    0    0 -0.97081334721E+02 -0.32224806938E+02 -0.32528955946E+03  0.34099343282E+03  0.00000000000E+00 0.  1.
</event>
<event>
12    1  0.8461994E-002  0.1982204E+03  0.7818608E-02  0.1155957E+00
         21   -1    0    0  501  502  0.00000000000E+00  0.00000000000E+00  0.83690281050E+03  0.83690281050E+03  0.00000000000E+00 0.  1.
         21   -1    0    0  502  503 -0.00000000000E+00 -0.00000000000E+00 -0.65706369138E+02  0.65706369138E+02  0.00000000000E+00 0.  1.
         -6    2    1    2    0  503 -0.37262655744E+02 -0.21490868100E+02  0.10195593718E+03  0.20463053269E+03  0.17212866948E+03 0.  0.
        -24    2    3    3    0    0 -0.38017899386E+02 -0.33320444390E+02  0.13794300836E+03  0.16645110681E+03  0.78243751939E+02 0.  0.
          6    2    1    2  501    0  0.37262655744E+02  0.21490868100E+02  0.66924050419E+03  0.69797864695E+03  0.19349670857E+03 0.  0.
         24    2    5    5    0    0 -0.14877564538E+02 -0.51397892500E+02  0.46732700359E+03  0.47702044792E+03  0.79315157283E+02 0.  0.
          5    1    5    5  501    0  0.52140220281E+02  0.72888760600E+02  0.20191350060E+03  0.22095819903E+03  0.47000000000E+01 0. -1.
        -13    1    6    6    0    0  0.20880262085E+02 -0.51695995914E+02  0.21230986881E+03  0.21950840925E+03  0.00000000000E+00 0.  1.
         14    1    6    6    0    0 -0.35757826623E+02  0.29810341401E+00  0.25501713478E+03  0.25751203867E+03  0.00000000000E+00 0. -1.
         -5    1    3    3    0  503  0.75524364249E+00  0.11829576290E+02 -0.35987071179E+02  0.38179425875E+02  0.47000000000E+01 0.  1.
         13    1    4    4    0    0 -0.34124746111E+01  0.17857445172E+02  0.78995841007E+02  0.81060941442E+02  0.00000000000E+00 0. -1.
        -14    1    4    4    0    0 -0.34605424775E+02 -0.51177889562E+02  0.58947167349E+02  0.85390165373E+02  0.00000000000E+00 0.  1.
</event>
<event>
12    1  0.8461994E-002  0.2568198E+03  0.7818608E-02  0.1110022E+00
         21   -1    0    0  503  502  0.00000000000E+00  0.00000000000E+00  0.65132927567E+03  0.65132927567E+03  0.00000000000E+00 0.  1.
         21   -1    0    0  501  503 -0.00000000000E+00 -0.00000000000E+00 -0.17036954433E+03  0.17036954433E+03  0.00000000000E+00 0.  1.
          6    2    1    2  501    0 -0.18897069510E+03 -0.16474659107E+02 -0.27401271151E+02  0.25214870728E+03  0.16384994026E+03 0.  0.
         24    2    3    3    0    0 -0.14142972020E+03  0.33858558611E+02 -0.58853597631E+02  0.17595870832E+03  0.79680319613E+02 0.  0.
         -6    2    1    2    0  502  0.18897069510E+03  0.16474659107E+02  0.50836100249E+03  0.56955011272E+03  0.17313313965E+03 0.  0.
        -24    2    5    5    0    0  0.38164142650E+02 -0.20928985740E+02  0.27388131822E+03  0.28822385862E+03  0.78533381306E+02 0.  0.
          5    1    3    3  501    0 -0.47540974904E+02 -0.50333217719E+02  0.31452326480E+02  0.76189998961E+02  0.47000000000E+01 0. -1.
        -11    1    4    4    0    0 -0.11613138593E+03  0.54937160032E+02 -0.29427288757E+02  0.13179740390E+03  0.00000000000E+00 0.  1.
         12    1    4    4    0    0 -0.25298334269E+02 -0.21078601421E+02 -0.29426308874E+02  0.44161304426E+02  0.00000000000E+00 0. -1.
         -5    1    5    5    0  502  0.15080655245E+03  0.37403644848E+02  0.23447968427E+03  0.28132625410E+03  0.47000000000E+01 0.  1.
         13    1    6    6    0    0  0.42012006486E+02 -0.45998498168E+02  0.22036881029E+03  0.22900498482E+03  0.00000000000E+00 0. -1.
        -14    1    6    6    0    0 -0.38478638358E+01  0.25069512427E+02  0.53512507932E+02  0.59218873804E+02  0.00000000000E+00 0.  1.
</event>
<event>
12    1  0.8461994E-002  0.1844594E+03  0.7818608E-02  0.1166127E+00
         21   -1    0    0  501  502  0.00000000000E+00  0.00000000000E+00  0.58943231464E+02  0.58943231464E+02  0.00000000000E+00 0. -1.
         21   -1    0    0  502  503 -0.00000000000E+00 -0.00000000000E+00 -0.58320900632E+03  0.58320900632E+03  0.00000000000E+00 0. -1.
         -6    2    1    2    0  503 -0.72762255069E+02  0.17776304117E+02 -0.17215242597E+03  0.24464867118E+03  0.15686354513E+03 0.  0.
        -24    2    3    3    0    0 -0.22425524892E+02  0.10779524180E+02 -0.77754747411E+01  0.72530649370E+02  0.67684080716E+02 0.  0.
          6    2    1    2  501    0  0.72762255069E+02 -0.17776304117E+02 -0.35211334889E+03  0.39750356661E+03  0.16856729295E+03 0.  0.
         24    2    5    5    0    0  0.10534609776E+03 -0.41676837355E+02 -0.22660969570E+03  0.26557101090E+03  0.79631956888E+02 0.  0.
          5    1    5    5  501    0 -0.32583842695E+02  0.23900533238E+02 -0.12550365319E+03  0.13193255571E+03  0.47000000000E+01 0. -1.
        -13    1    6    6    0    0  0.67240165339E+02 -0.41883321634E+02 -0.74448490774E+02  0.10871076416E+03  0.00000000000E+00 0.  1.
         14    1    6    6    0    0  0.38105932425E+02  0.20648427863E+00 -0.15216120493E+03  0.15686024674E+03  0.00000000000E+00 0. -1.
         -5    1    3    3    0  503 -0.50336730177E+02  0.69967799378E+01 -0.16437695123E+03  0.17211802181E+03  0.47000000000E+01 0.  1.
         13    1    4    4    0    0 -0.31972778556E+02 -0.16931122741E+02 -0.19338287623E+02  0.41023052715E+02  0.00000000000E+00 0. -1.
        -14    1    4    4    0    0  0.95472536646E+01  0.27710646920E+02  0.11562812882E+02  0.31507596655E+02  0.00000000000E+00 0.  1.
</event>
<event>
12    1  0.8461994E-002  0.3003834E+03  0.7818608E-02  0.1085347E+00
         21   -1    0    0  501  502  0.00000000000E+00  0.00000000000E+00  0.42085549719E+03  0.42085549719E+03  0.00000000000E+00 0. -1.
         21   -1    0    0  502  503 -0.00000000000E+00 -0.00000000000E+00 -0.50732778048E+03  0.50732778048E+03  0.00000000000E+00 0. -1.
         -6    2    1    2    0  503  0.21646898181E+03  0.11593635628E+03 -0.39697410559E+03  0.49781387748E+03  0.17300334481E+03 0.  0.
        -24    2    3    3    0    0  0.21121145079E+03  0.73980822456E+02 -0.38656398756E+03  0.45401468790E+03  0.81327617166E+02 0.  0.
          6    2    1    2  501    0 -0.21646898181E+03 -0.11593635628E+03  0.31050182230E+03  0.43036940018E+03  0.16883832554E+03 0.  0.
         24    2    5    5    0    0 -0.14371371620E+03 -0.14393780032E+03  0.24699393007E+03  0.32970782897E+03  0.79558333386E+02 0.  0.
          5    1    5    5  501    0 -0.72755265614E+02  0.28001444043E+02  0.63507892230E+02  0.10066157121E+03  0.47000000000E+01 0. -1.
        -11    1    6    6    0    0 -0.39654997666E+02 -0.95452459700E+02  0.10925380751E+03  0.15039975186E+03  0.00000000000E+00 0.  1.
         12    1    6    6    0    0 -0.10405871853E+03 -0.48485340623E+02  0.13774012256E+03  0.17930807712E+03  0.00000000000E+00 0. -1.
         -5    1    3    3    0  503  0.52575310233E+01  0.41955533824E+02 -0.10410118025E+02  0.43799189584E+02  0.47000000000E+01 0.  1.
         13    1    4    4    0    0  0.11994252541E+03  0.25980488821E+01 -0.22786964890E+03  0.25752191392E+03  0.00000000000E+00 0. -1.
        -14    1    4    4    0    0  0.91268925384E+02  0.71382773573E+02 -0.15869433866E+03  0.19649277398E+03  0.00000000000E+00 0.  1.
</event>
<event>
12    1  0.8461994E-002  0.2887973E+03  0.7818608E-02  0.1091406E+00
         21   -1    0    0  501  502  0.00000000000E+00  0.00000000000E+00  0.72952892169E+03  0.72952892169E+03  0.00000000000E+00 0. -1.
         21   -1    0    0  502  503 -0.00000000000E+00 -0.00000000000E+00 -0.12236085467E+03  0.12236085467E+03  0.00000000000E+00 0.  1.
         -6    2    1    2    0  503  0.42944941933E+02 -0.22475498629E+03  0.18449041564E+03  0.33997153852E+03  0.17083577389E+03 0.  0.
        -24    2    3    3    0    0  0.20380475452E+02 -0.22298832582E+03  0.20069190555E+03  0.31174292693E+03  0.82263322971E+02 0.  0.
          6    2    1    2  501    0 -0.42944941933E+02  0.22475498629E+03  0.42267765138E+03  0.51191823784E+03  0.17619538402E+03 0.  0.
         24    2    5    5    0    0 -0.52922657858E+02  0.21268134650E+03  0.26338211443E+03  0.35178552511E+03  0.79679072603E+02 0.  0.
          5    1    5    5  501    0  0.99777159250E+01  0.12073639798E+02  0.15929553695E+03  0.16013271273E+03  0.47000000000E+01 0. -1.
        -13    1    6    6    0    0 -0.52379261071E+01 -0.51965300725E+01  0.10444521648E+01  0.74518907012E+01  0.00000000000E+00 0.  1.
         14    1    6    6    0    0 -0.47684731750E+02  0.21787787657E+03  0.26233766227E+03  0.34433363441E+03  0.00000000000E+00 0. -1.
         -5    1    3    3    0  503  0.22564466480E+02 -0.17666604759E+01 -0.16201489917E+02  0.28228611590E+02  0.47000000000E+01 0.  1.
         11    1    4    4    0    0  0.59976083019E+01 -0.13670092217E+01 -0.58265614638E+01  0.84728294003E+01  0.00000000000E+00 0. -1.
        -12    1    4    4    0    0  0.14382867151E+02 -0.22162131660E+03  0.20651846702E+03  0.30327009753E+03  0.00000000000E+00 0.  1.
</event>
<event>
12    1  0.8461994E-002  0.2029903E+03  0.7818608E-02  0.1147253E+00
         21   -1    0    0  503  502  0.00000000000E+00  0.00000000000E+00  0.41015845041E+03  0.41015845041E+03  0.00000000000E+00 0. -1.
         21   -1    0    0  501  503 -0.00000000000E+00 -0.00000000000E+00 -0.13555626451E+03  0.13555626451E+03  0.00000000000E+00 0. -1.
          6    2    1    2  501    0  0.10805460322E+03  0.11653768099E+01 -0.16064704647E+01  0.20293739902E+03  0.17176685301E+03 0.  0.
         24    2    3    3    0    0 -0.11248793300E+02 -0.16932195817E+02 -0.11374613669E+01  0.82176757557E+02  0.79614640980E+02 0.  0.
         -6    2    1    2    0  502 -0.10805460322E+03 -0.11653768099E+01  0.27620865636E+03  0.34277731589E+03  0.17183687340E+03 0.  0.
        -24    2    5    5    0    0 -0.45181212513E+02  0.22822163779E+01  0.26299688034E+03  0.27826692771E+03  0.78857932456E+02 0.  0.
          5    1    3    3  501    0  0.11930339652E+03  0.18097572627E+02 -0.46900909781E+00  0.12076064146E+03  0.47000000000E+01 0. -1.
        -11    1    4    4    0    0 -0.15156853787E+02 -0.15579622858E+02  0.37486328492E+02  0.43332201524E+02  0.00000000000E+00 0.  1.
         12    1    4    4    0    0  0.39080604863E+01 -0.13525729584E+01 -0.38623789859E+02  0.38844556033E+02  0.00000000000E+00 0. -1.
         -5    1    5    5    0  502 -0.62873390709E+02 -0.34475931879E+01  0.13211776021E+02  0.64510388185E+02  0.47000000000E+01 0.  1.
         13    1    6    6    0    0 -0.62914330524E+02  0.24377301134E+01  0.13397419379E+03  0.14803121331E+03  0.00000000000E+00 0. -1.
        -14    1    6    6    0    0  0.17733118011E+02 -0.15551373547E+00  0.12902268656E+03  0.13023571440E+03  0.00000000000E+00 0.  1.
</event>
<event>
12    1  0.8461994E-002  0.1919852E+03  0.7818608E-02  0.1156840E+00
         21   -1    0    0  503  502  0.00000000000E+00  0.00000000000E+00  0.75279458252E+02  0.75279458252E+02  0.00000000000E+00 0.  1.
         21   -1    0    0  501  503 -0.00000000000E+00 -0.00000000000E+00 -0.90910592461E+03  0.90910592461E+03  0.00000000000E+00 0.  1.
          6    2    1    2  501    0  0.60778354084E+02 -0.52940739480E+02 -0.75155477985E+03  0.77551471929E+03  0.17346977403E+03 0.  0.
         24    2    3    3    0    0 -0.30429231682E+02 -0.27245995295E+02 -0.45348108630E+03  0.46270637483E+03  0.82363895448E+02 0.  0.
         -6    2    1    2    0  502 -0.60778354084E+02  0.52940739480E+02 -0.82271686511E+02  0.20887066357E+03  0.17424578468E+03 0.  0.
        -24    2    5    5    0    0 -0.35092845890E+02 -0.87799943801E+01 -0.10612475409E+03  0.13773520721E+03  0.79999548365E+02 0.  0.
          5    1    3    3  501    0  0.91207585766E+02 -0.25694744185E+02 -0.29807369355E+03  0.31280834446E+03  0.47000000000E+01 0. -1.
        -11    1    4    4    0    0  0.21910724809E+02 -0.29338349142E+02 -0.13195756290E+03  0.13694384615E+03  0.00000000000E+00 0.  1.
         12    1    4    4    0    0 -0.52339956491E+02  0.20923538467E+01 -0.32152352340E+03  0.32576252868E+03  0.00000000000E+00 0. -1.
         -5    1    5    5    0  502 -0.25685508194E+02  0.61720733860E+02  0.23853067583E+02  0.71135456367E+02  0.47000000000E+01 0.  1.
         13    1    6    6    0    0 -0.40396564741E+02 -0.39084066885E+02 -0.59283561616E+02  0.81694475976E+02  0.00000000000E+00 0. -1.
        -14    1    6    6    0    0  0.53037188514E+01  0.30304072505E+02 -0.46841192478E+02  0.56040731229E+02  0.00000000000E+00 0.  1.
</event>
<event>
12    1  0.8461994E-002  0.2426842E+03  0.7818608E-02  0.1120392E+00
         21   -1    0    0  503  502  0.00000000000E+00  0.00000000000E+00  0.15212274624E+03  0.15212274624E+03  0.00000000000E+00 0.  1.
         21   -1    0    0  501  503 -0.00000000000E+00 -0.00000000000E+00 -0.37811870891E+03  0.37811870891E+03  0.00000000000E+00 0. -1.
          6    2    1    2  501    0 -0.38948317244E+02  0.14492762473E+03 -0.60628419867E+02  0.23657153391E+03  0.17253781480E+03 0.  0.
         24    2    3    3    0    0 -0.12958537042E+02 -0.41036264523E+00 -0.27872585738E+02  0.85265109992E+02  0.79530911390E+02 0.  0.
         -6    2    1    2    0  502  0.38948317244E+02 -0.14492762473E+03 -0.16536754281E+03  0.29366992124E+03  0.19072129037E+03 0.  0.
        -24    2    5    5    0    0  0.27417177515E+02 -0.12235446286E+03 -0.23820627436E+02  0.14979450961E+03  0.78413370113E+02 0.  0.
          5    1    3    3  501    0 -0.25989780202E+02  0.14533798737E+03 -0.32755834129E+02  0.15130642392E+03  0.47000000000E+01 0. -1.
        -11    1    4    4    0    0  0.17752762182E+02 -0.36787420551E+01 -0.46006741364E+02  0.49450115866E+02  0.00000000000E+00 0.  1.
         12    1    4    4    0    0 -0.30711299224E+02  0.32683794099E+01  0.18134155626E+02  0.35814994126E+02  0.00000000000E+00 0. -1.
         -5    1    5    5    0  502  0.11531139729E+02 -0.22573161865E+02 -0.14154691537E+03  0.14387541163E+03  0.47000000000E+01 0.  1.
         11    1    6    6    0    0  0.80623227530E+01  0.92358940789E+01 -0.10466108143E+02  0.16119621809E+02  0.00000000000E+00 0. -1.
        -12    1    6    6    0    0  0.19354854762E+02 -0.13159035694E+03 -0.13354519293E+02  0.13367488780E+03  0.00000000000E+00 0.  1.
</event>
<event>
12    1  0.8461994E-002  0.2335990E+03  0.7818608E-02  0.1124280E+00
         21   -1    0    0  503  502  0.00000000000E+00  0.00000000000E+00  0.12797771013E+04  0.12797771013E+04  0.00000000000E+00 0. -1.
         21   -1    0    0  501  503 -0.00000000000E+00 -0.00000000000E+00 -0.81781568146E+02  0.81781568146E+02  0.00000000000E+00 0.  1.
          6    2    1    2  501    0 -0.14556091633E+03 -0.60657499066E+02  0.12650640690E+03  0.26490127531E+03  0.17117681536E+03 0.  0.
         24    2    3    3    0    0 -0.98227187183E+02 -0.16107005548E+02  0.36583494500E+01  0.12583667303E+03  0.76899082106E+02 0.  0.
         -6    2    1    2    0  502  0.14556091633E+03  0.60657499066E+02  0.10714891263E+04  0.10966573942E+04  0.17234030255E+03 0.  0.
        -24    2    5    5    0    0  0.11209182294E+03  0.83516982492E+02  0.10107314813E+04  0.10234705264E+04  0.79838135640E+02 0.  0.
          5    1    3    3  501    0 -0.47333729146E+02 -0.44550493518E+02  0.12284805745E+03  0.13906460228E+03  0.47000000000E+01 0. -1.
        -13    1    4    4    0    0  0.37525275181E+01 -0.19917652854E+02 -0.10469704344E+02  0.22812476127E+02  0.00000000000E+00 0.  1.
         14    1    4    4    0    0 -0.10197971470E+03  0.38106473061E+01  0.14128053794E+02  0.10302419690E+03  0.00000000000E+00 0. -1.
         -5    1    5    5    0  502  0.33469093391E+02 -0.22859483426E+02  0.60757644951E+02  0.73186867776E+02  0.47000000000E+01 0.  1.
         13    1    6    6    0    0  0.55119984743E+02  0.73663717928E+00  0.24202197113E+03  0.24822044610E+03  0.00000000000E+00 0. -1.
        -14    1    6    6    0    0  0.56971838196E+02  0.82780345312E+02  0.76870951019E+03  0.77525008028E+03  0.00000000000E+00 0.  1.
</event>
<event>
12    1  0.8461994E-002  0.1970144E+03  0.7818608E-02  0.1153385E+00
         21   -1    0    0  501  502  0.00000000000E+00  0.00000000000E+00  0.93972848178E+03  0.93972848178E+03  0.00000000000E+00 0.  1.
         21   -1    0    0  502  503 -0.00000000000E+00 -0.00000000000E+00 -0.83973487764E+02  0.83973487764E+02  0.00000000000E+00 0.  1.
         -6    2    1    2    0  503 -0.80345431082E+02 -0.32257256134E+02  0.61219692919E+02  0.20630686558E+03  0.17697105163E+03 0.  0.
        -24    2    3    3    0    0 -0.83961966296E+02  0.35553345870E+02  0.63224445137E+02  0.13820792211E+03  0.82404169088E+02 0.  0.
          6    2    1    2  501    0  0.80345431082E+02  0.32257256134E+02  0.79453530110E+03  0.81739510397E+03  0.17132569108E+03 0.  0.
         24    2    5    5    0    0  0.16012160463E+02  0.21719124543E+02  0.14274904148E+03  0.16233996113E+03  0.72449047495E+02 0.  0.
          5    1    5    5  501    0  0.64333270620E+02  0.10538131591E+02  0.65178625962E+03  0.65505514283E+03  0.47000000000E+01 0. -1.
        -13    1    6    6    0    0  0.20661303203E+02  0.40674862814E+01  0.14253801804E+03  0.14408511541E+03  0.00000000000E+00 0.  1.
         14    1    6    6    0    0 -0.46491427405E+01  0.17651638262E+02  0.21102344010E+00  0.18254845725E+02  0.00000000000E+00 0. -1.
         -5    1    3    3    0  503  0.36165352131E+01 -0.67810602003E+02 -0.20047522177E+01  0.68098943475E+02  0.47000000000E+01 0.  1.
         13    1    4    4    0    0  0.86222031218E+01 -0.70573409457E+00 -0.11096506297E+02  0.14070284265E+02  0.00000000000E+00 0. -1.
        -14    1    4    4    0    0 -0.92584169417E+02  0.36259079964E+02  0.74320951434E+02  0.12413763784E+03  0.00000000000E+00 0.  1.
</event>
<event>
12    1  0.8461994E-002  0.1862284E+03  0.7818608E-02  0.1164507E+00
         21   -1    0    0  501  502  0.00000000000E+00  0.00000000000E+00  0.72313814725E+03  0.72313814725E+03  0.00000000000E+00 0. -1.
         21   -1    0    0  502  503 -0.00000000000E+00 -0.00000000000E+00 -0.51662990003E+02  0.51662990003E+02  0.00000000000E+00 0. -1.
         -6    2    1    2    0  503 -0.53236827846E+01 -0.60744127813E+02  0.48154642895E+03  0.51630223491E+03  0.17596262067E+03 0.  0.
        -24    2    3    3    0    0 -0.56073092687E+02 -0.72097818065E+02  0.27769362297E+03  0.30586824194E+03  0.89996367147E+02 0.  0.
          6    2    1    2  501    0  0.53236827846E+01  0.60744127813E+02  0.18992872829E+03  0.25849890234E+03  0.16440976254E+03 0.  0.
         24    2    5    5    0    0 -0.27447218671E+02  0.19522273582E+02  0.27997754238E+02  0.88155415215E+02  0.76505124081E+02 0.  0.
          5    1    5    5  501    0  0.32770901456E+02  0.41221854231E+02  0.16193097406E+03  0.17034348713E+03  0.47000000000E+01 0. -1.
        -13    1    6    6    0    0  0.49054735339E+01  0.38018517791E+02 -0.46448247537E+01  0.38614061721E+02  0.00000000000E+00 0.  1.
         14    1    6    6    0    0 -0.32352692205E+02 -0.18496244209E+02  0.32642578992E+02  0.49541353494E+02  0.00000000000E+00 0. -1.
         -5    1    3    3    0  503  0.50749409902E+02  0.11353690252E+02  0.20385280599E+03  0.21043399297E+03  0.47000000000E+01 0.  1.
         13    1    4    4    0    0 -0.70654533191E+02 -0.19240992986E+02  0.16644327610E+03  0.18183960798E+03  0.00000000000E+00 0. -1.
        -14    1    4    4    0    0  0.14581440505E+02 -0.52856825079E+02  0.11125034686E+03  0.12402863396E+03  0.00000000000E+00 0.  1.
</event>
<event>
12    1  0.8461994E-002  0.2311398E+03  0.7818608E-02  0.1126163E+00
         21   -1    0    0  501  502  0.00000000000E+00  0.00000000000E+00  0.45387357941E+03  0.45387357941E+03  0.00000000000E+00 0.  1.
         21   -1    0    0  502  503 -0.00000000000E+00 -0.00000000000E+00 -0.24113494347E+03  0.24113494347E+03  0.00000000000E+00 0.  1.
         -6    2    1    2    0  503  0.10585069711E+03 -0.10696766279E+03 -0.14298122026E+03  0.27178899441E+03  0.17543995318E+03 0.  0.
        -24    2    3    3    0    0  0.10447062133E+03 -0.82965290270E+02 -0.33597040411E+02  0.15969525106E+03  0.81095388136E+02 0.  0.
          6    2    1    2  501    0 -0.10585069711E+03  0.10696766279E+03  0.35571985620E+03  0.42321952847E+03  0.17300780971E+03 0.  0.
         24    2    5    5    0    0  0.23814456656E+01  0.45380526962E+02  0.21454381067E+03  0.23491143554E+03  0.84197816726E+02 0.  0.
          5    1    5    5  501    0 -0.10823214278E+03  0.61587135832E+02  0.14117604553E+03  0.18830809293E+03  0.47000000000E+01 0. -1.
        -11    1    6    6    0    0 -0.22465263364E+02  0.61014973499E+02  0.16463548186E+03  0.17700948261E+03  0.00000000000E+00 0.  1.
         12    1    6    6    0    0  0.24846709030E+02 -0.15634446536E+02  0.49908328814E+02  0.57901952930E+02  0.00000000000E+00 0. -1.
         -5    1    3    3    0  503  0.13800757780E+01 -0.24002372525E+02 -0.10938417985E+03  0.11209374335E+03  0.47000000000E+01 0.  1.
         13    1    4    4    0    0  0.25484555002E+01 -0.48277816330E+02 -0.76110718965E+01  0.48940480080E+02  0.00000000000E+00 0. -1.
        -14    1    4    4    0    0  0.10192216583E+03 -0.34687473940E+02 -0.25985968515E+02  0.11075477098E+03  0.00000000000E+00 0.  1.
</event>
<event>
12    1  0.8461994E-002  0.2025123E+03  0.7818608E-02  0.1148126E+00
         21   -1    0    0  503  502  0.00000000000E+00  0.00000000000E+00  0.73332252752E+03  0.73332252752E+03  0.00000000000E+00 0. -1.
         21   -1    0    0  501  503 -0.00000000000E+00 -0.00000000000E+00 -0.63227748272E+02  0.63227748272E+02  0.00000000000E+00 0.  1.
          6    2    1    2  501    0 -0.53262111763E+02  0.89631943280E+02  0.19554691789E+03  0.28151342756E+03  0.17361012354E+03 0.  0.
         24    2    3    3    0    0  0.36926257326E+02  0.67677225815E+02  0.10835526549E+03  0.15407549841E+03  0.77811569038E+02 0.  0.
         -6    2    1    2    0  502  0.53262111763E+02 -0.89631943280E+02  0.47454786135E+03  0.51503684823E+03  0.17086996376E+03 0.  0.
        -24    2    5    5    0    0  0.96180436107E+02 -0.55185616872E+02  0.25902699961E+03  0.29255119967E+03  0.78708889610E+02 0.  0.
          5    1    3    3  501    0 -0.90188369089E+02  0.21954717465E+02  0.87191652402E+02  0.12743792915E+03  0.47000000000E+01 0. -1.
        -13    1    4    4    0    0 -0.18370290807E+02 -0.12293508424E+01  0.72001369824E+01  0.19769189675E+02  0.00000000000E+00 0.  1.
         14    1    4    4    0    0  0.55296548133E+02  0.68906576657E+02  0.10115512851E+03  0.13430630874E+03  0.00000000000E+00 0. -1.
         -5    1    5    5    0  502 -0.42918324344E+02 -0.34446326408E+02  0.21552086174E+03  0.22248564855E+03  0.47000000000E+01 0.  1.
         13    1    6    6    0    0  0.65933421097E+02 -0.11294941984E+02  0.20901652560E+03  0.21946001847E+03  0.00000000000E+00 0. -1.
        -14    1    6    6    0    0  0.30247015010E+02 -0.43890674888E+02  0.50010474009E+02  0.73091181203E+02  0.00000000000E+00 0.  1.
</event>
<event>
12    1  0.8461994E-002  0.1860327E+03  0.7818608E-02  0.1162302E+00
         21   -1    0    0  503  502  0.00000000000E+00  0.00000000000E+00  0.71799741539E+03  0.71799741539E+03  0.00000000000E+00 0.  1.
         21   -1    0    0  501  503 -0.00000000000E+00 -0.00000000000E+00 -0.77399087456E+02  0.77399087456E+02  0.00000000000E+00 0. -1.
          6    2    1    2  501    0  0.49780013394E+01  0.68253089240E+02  0.74553882170E+02  0.19956558852E+03  0.17200255255E+03 0.  0.
         24    2    3    3    0    0 -0.55017354374E-02  0.51003322765E+02  0.11932092055E+03  0.15110356760E+03  0.77417485729E+02 0.  0.
         -6    2    1    2    0  502 -0.49780013394E+01 -0.68253089240E+02  0.56604444577E+03  0.59583091434E+03  0.17298814759E+03 0.  0.
        -24    2    5    5    0    0  0.25010154361E+02 -0.24225328963E+02  0.12602727791E+03  0.15257598637E+03  0.78639573081E+02 0.  0.
          5    1    3    3  501    0  0.49835030748E+01  0.17249766475E+02 -0.44767038379E+02  0.48462020919E+02  0.47000000000E+01 0. -1.
        -11    1    4    4    0    0 -0.22648055636E+02  0.11784514315E+02  0.97589065011E+02  0.10087336027E+03  0.00000000000E+00 0.  1.
         12    1    4    4    0    0  0.22642553901E+02  0.39218808450E+02  0.21731855538E+02  0.50230207331E+02  0.00000000000E+00 0. -1.
         -5    1    5    5    0  502 -0.29988155700E+02 -0.44027760277E+02  0.44001716786E+03  0.44325492797E+03  0.47000000000E+01 0.  1.
         13    1    6    6    0    0 -0.15186108336E+02 -0.26074962551E+02  0.13474780210E+02  0.33046804083E+02  0.00000000000E+00 0. -1.
        -14    1    6    6    0    0  0.40196262697E+02  0.18496335883E+01  0.11255249770E+03  0.11952918228E+03  0.00000000000E+00 0.  1.
</event>
<event>
12    1  0.8461994E-002  0.1836970E+03  0.7818608E-02  0.1164364E+00
         21   -1    0    0  501  502  0.00000000000E+00  0.00000000000E+00  0.44779568925E+03  0.44779568925E+03  0.00000000000E+00 0.  1.
         21   -1    0    0  502  503 -0.00000000000E+00 -0.00000000000E+00 -0.76458095060E+02  0.76458095060E+02  0.00000000000E+00 0.  1.
         -6    2    1    2    0  503  0.63553852628E+02  0.63188747855E+01  0.15181686086E+03  0.23801271900E+03  0.17182163660E+03 0.  0.
        -24    2    3    3    0    0  0.64453867805E+01  0.20715016246E+02  0.15919259277E+03  0.17847183237E+03  0.77712665936E+02 0.  0.
          6    2    1    2  501    0 -0.63553852628E+02 -0.63188747855E+01  0.21952073333E+03  0.28624106531E+03  0.17223697263E+03 0.  0.
         24    2    5    5    0    0 -0.10732679374E+02 -0.64917900978E+02  0.11199226793E+03  0.15279301141E+03  0.80460623834E+02 0.  0.
          5    1    5    5  501    0 -0.52821173254E+02  0.58599026193E+02  0.10752846541E+03  0.13344805389E+03  0.47000000000E+01 0. -1.
        -13    1    6    6    0    0 -0.45842889119E+02 -0.37059087484E+02  0.67932657312E+02  0.89943273108E+02  0.00000000000E+00 0.  1.
         14    1    6    6    0    0  0.35110209745E+02 -0.27858813494E+02  0.44059610614E+02  0.62849738305E+02  0.00000000000E+00 0. -1.
         -5    1    3    3    0  503  0.57108465848E+02 -0.14396141460E+02 -0.73757319121E+01  0.59540886638E+02  0.47000000000E+01 0.  1.
         11    1    4    4    0    0 -0.16012317102E+02 -0.25033169358E+02  0.57713834217E+02  0.64914871387E+02  0.00000000000E+00 0. -1.
        -12    1    4    4    0    0  0.22457703882E+02  0.45748185604E+02  0.10147875855E+03  0.11355696098E+03  0.00000000000E+00 0.  1.
</event>
<event>
12    1  0.8461994E-002  0.2078130E+03  0.7818608E-02  0.1143592E+00
         21   -1    0    0  503  502  0.00000000000E+00  0.00000000000E+00  0.26234899740E+03  0.26234899740E+03  0.00000000000E+00 0.  1.
         21   -1    0    0  501  503 -0.00000000000E+00 -0.00000000000E+00 -0.21013964347E+03  0.21013964347E+03  0.00000000000E+00 0. -1.
          6    2    1    2  501    0 -0.11607949572E+03  0.10623451605E+00 -0.85118894252E+02  0.22456950308E+03  0.17237103858E+03 0.  0.
         24    2    3    3    0    0 -0.30598793057E+02 -0.38555579425E+02  0.22304752813E+01  0.96297570283E+02  0.82737102808E+02 0.  0.
         -6    2    1    2    0  502  0.11607949572E+03 -0.10623451605E+00  0.13732824818E+03  0.24791913779E+03  0.17067627405E+03 0.  0.
        -24    2    5    5    0    0  0.65981640885E+02  0.56403514643E+02  0.36582730208E+02  0.12192351802E+03  0.77408750796E+02 0.  0.
          5    1    3    3  501    0 -0.85480702667E+02  0.38661813941E+02 -0.87349369533E+02  0.12827193280E+03  0.47000000000E+01 0. -1.
        -11    1    4    4    0    0  0.24916085362E+02 -0.28635205692E+02 -0.84844921588E+01  0.38894381625E+02  0.00000000000E+00 0.  1.
         12    1    4    4    0    0 -0.55514878419E+02 -0.99203737331E+01  0.10714967440E+02  0.57403188658E+02  0.00000000000E+00 0. -1.
         -5    1    5    5    0  502  0.50097854839E+02 -0.56509749159E+02  0.10074551797E+03  0.12599561977E+03  0.47000000000E+01 0.  1.
         13    1    6    6    0    0  0.49227212093E+02  0.64269248387E+02  0.53345985592E+02  0.96951786355E+02  0.00000000000E+00 0. -1.
        -14    1    6    6    0    0  0.16754428791E+02 -0.78657337443E+01 -0.16763255384E+02  0.24971731668E+02  0.00000000000E+00 0.  1.
</event>
<event>
12    1  0.8461994E-002  0.2633750E+03  0.7818608E-02  0.1105301E+00
         21   -1    0    0  503  502  0.00000000000E+00  0.00000000000E+00  0.95672677230E+02  0.95672677230E+02  0.00000000000E+00 0. -1.
         21   -1    0    0  501  503 -0.00000000000E+00 -0.00000000000E+00 -0.73812442997E+03  0.73812442997E+03  0.00000000000E+00 0.  1.
          6    2    1    2  501    0 -0.18271942654E+03  0.75777953570E+02 -0.26009467388E+03  0.37015620249E+03  0.17388987255E+03 0.  0.
         24    2    3    3    0    0 -0.63964494867E+02  0.55685461463E+02 -0.20760702555E+03  0.23868953270E+03  0.81729362801E+02 0.  0.
         -6    2    1    2    0  502  0.18271942654E+03 -0.75777953570E+02 -0.38235707886E+03  0.46364090471E+03  0.17215477246E+03 0.  0.
        -24    2    5    5    0    0  0.17252163320E+03 -0.10023848122E+03 -0.38144760601E+03  0.43671081851E+03  0.73502352561E+02 0.  0.
          5    1    3    3  501    0 -0.11875493168E+03  0.20092492107E+02 -0.52487648330E+02  0.13146666978E+03  0.47000000000E+01 0. -1.
        -11    1    4    4    0    0 -0.76642434587E+02  0.63946160773E+02 -0.15856400338E+03  0.18736519801E+03  0.00000000000E+00 0.  1.
         12    1    4    4    0    0  0.12677939720E+02 -0.82606993097E+01 -0.49043022164E+02  0.51324334692E+02  0.00000000000E+00 0. -1.
         -5    1    5    5    0  502  0.10197793346E+02  0.24460527650E+02 -0.90947285063E+00  0.26930086203E+02  0.47000000000E+01 0.  1.
         13    1    6    6    0    0  0.13117094128E+03 -0.79004740192E+02 -0.21541368078E+03  0.26429267617E+03  0.00000000000E+00 0. -1.
        -14    1    6    6    0    0  0.41350691914E+02 -0.21233741029E+02 -0.16603392523E+03  0.17241814233E+03  0.00000000000E+00 0.  1.
</event>
<event>
12    1  0.8461994E-002  0.2139954E+03  0.7818608E-02  0.1139327E+00
         21   -1    0    0  501  502  0.00000000000E+00  0.00000000000E+00  0.92927154775E+02  0.92927154775E+02  0.00000000000E+00 0.  1.
         21   -1    0    0  502  503 -0.00000000000E+00 -0.00000000000E+00 -0.12526205987E+04  0.12526205987E+04  0.00000000000E+00 0.  1.
         -6    2    1    2    0  503 -0.12614417058E+03  0.14622637491E+01 -0.11049948979E+04  0.11246722837E+04  0.16721103850E+03 0.  0.
        -24    2    3    3    0    0 -0.36223711016E+02  0.72862500069E+01 -0.24520974938E+03  0.26016537254E+03  0.78695318785E+02 0.  0.
          6    2    1    2  501    0  0.12614417058E+03 -0.14622637491E+01 -0.54698546055E+02  0.22087546978E+03  0.17285702827E+03 0.  0.
         24    2    5    5    0    0  0.15091867605E+03  0.17143036555E+02 -0.13214247395E+02  0.16888537115E+03  0.72645177195E+02 0.  0.
          5    1    5    5  501    0 -0.24774505470E+02 -0.18605300304E+02 -0.41484298659E+02  0.51990098634E+02  0.47000000000E+01 0. -1.
        -11    1    6    6    0    0  0.38388807300E+01  0.38222223695E+01  0.17261734533E+02  0.18091817714E+02  0.00000000000E+00 0.  1.
         12    1    6    6    0    0  0.14707979532E+03  0.13320814186E+02 -0.30475981928E+02  0.15079355344E+03  0.00000000000E+00 0. -1.
         -5    1    3    3    0  503 -0.89920459568E+02 -0.58239862579E+01 -0.85978514854E+03  0.86450691120E+03  0.47000000000E+01 0.  1.
         11    1    4    4    0    0 -0.56366794374E+02  0.84033548445E+01 -0.11440105918E+03  0.12781014914E+03  0.00000000000E+00 0. -1.
        -12    1    4    4    0    0  0.20143083358E+02 -0.11171048376E+01 -0.13080869020E+03  0.13235522340E+03  0.00000000000E+00 0.  1.
</event>
<event>
12    1  0.8461994E-002  0.3130974E+03  0.7818608E-02  0.1079022E+00
         21   -1    0    0  501  502  0.00000000000E+00  0.00000000000E+00  0.10431890418E+03  0.10431890418E+03  0.00000000000E+00 0.  1.
         21   -1    0    0  502  503 -0.00000000000E+00 -0.00000000000E+00 -0.97985293633E+03  0.97985293633E+03  0.00000000000E+00 0. -1.
         -6    2    1    2    0  503 -0.18027009758E+03  0.18876148970E+03 -0.55172673738E+03  0.63374852702E+03  0.17060654934E+03 0.  0.
        -24    2    3    3    0    0 -0.17463018015E+03  0.11640440683E+03 -0.32035957954E+03  0.39121974967E+03  0.79855786173E+02 0.  0.
          6    2    1    2  501    0  0.18027009758E+03 -0.18876148970E+03 -0.32380729476E+03  0.45042331349E+03  0.17292133793E+03 0.  0.
         24    2    5    5    0    0  0.12918967644E+03 -0.57555061689E+02 -0.13177624609E+03  0.21225876988E+03  0.87671253747E+02 0.  0.
          5    1    5    5  501    0  0.51080421146E+02 -0.13120642802E+03 -0.19203104867E+03  0.23816454360E+03  0.47000000000E+01 0. -1.
        -11    1    6    6    0    0  0.56165180082E+02 -0.71327047940E+02 -0.59175645549E+02  0.10836896349E+03  0.00000000000E+00 0.  1.
         12    1    6    6    0    0  0.73024496355E+02  0.13771986251E+02 -0.72600600544E+02  0.10388980639E+03  0.00000000000E+00 0. -1.
         -5    1    3    3    0  503 -0.56399174353E+01  0.72357082874E+02 -0.23136715785E+03  0.24252877735E+03  0.47000000000E+01 0.  1.
         13    1    4    4    0    0 -0.12677920061E+03  0.83404869568E+02 -0.28581252173E+03  0.32360181636E+03  0.00000000000E+00 0. -1.
        -14    1    4    4    0    0 -0.47850979536E+02  0.32999537262E+02 -0.34547057806E+02  0.67617933310E+02  0.00000000000E+00 0.  1.
</event>
<event>
12    1  0.8461994E-002  0.2616423E+03  0.7818608E-02  0.1106486E+00
         21   -1    0    0  503  502  0.00000000000E+00  0.00000000000E+00  0.52215338900E+02  0.52215338900E+02  0.00000000000E+00 0.  1.
         21   -1    0    0  501  503 -0.00000000000E+00 -0.00000000000E+00 -0.13581609541E+04  0.13581609541E+04  0.00000000000E+00 0. -1.
          6    2    1    2  501    0 -0.12084374548E+03  0.15538753749E+03 -0.80128133176E+03  0.84291664357E+03  0.17236066186E+03 0.  0.
         24    2    3    3    0    0 -0.76742353988E+01  0.99914856483E+02 -0.29970392417E+03  0.32572563229E+03  0.78948546098E+02 0.  0.
         -6    2    1    2    0  502  0.12084374548E+03 -0.15538753749E+03 -0.50466428347E+03  0.56745964946E+03  0.16904412773E+03 0.  0.
        -24    2    5    5    0    0  0.11299129949E+03 -0.17558869951E+03 -0.38072583754E+03  0.44155263522E+03  0.80113301902E+02 0.  0.
          5    1    3    3  501    0 -0.11316951008E+03  0.55472681009E+02 -0.50157740758E+03  0.51719101128E+03  0.47000000000E+01 0. -1.
        -11    1    4    4    0    0  0.33757667620E+02  0.30914213408E+02 -0.13193814057E+03  0.13965293284E+03  0.00000000000E+00 0.  1.
         12    1    4    4    0    0 -0.41431903019E+02  0.69000643075E+02 -0.16776578360E+03  0.18607269945E+03  0.00000000000E+00 0. -1.
         -5    1    5    5    0  502  0.78524459901E+01  0.20201162018E+02 -0.12393844593E+03  0.12590701424E+03  0.47000000000E+01 0.  1.
         11    1    6    6    0    0  0.41232132661E+01 -0.11261299764E+02 -0.86949554642E+02  0.87772676913E+02  0.00000000000E+00 0. -1.
        -12    1    6    6    0    0  0.10886808622E+03 -0.16432739975E+03 -0.29377628290E+03  0.35377995831E+03  0.00000000000E+00 0.  1.
</event>
<event>
12    1  0.8461994E-002  0.3748079E+03  0.7818608E-02  0.1053016E+00
         21   -1    0    0  501  502  0.00000000000E+00  0.00000000000E+00  0.28122078846E+04  0.28122078846E+04  0.00000000000E+00 0. -1.
         21   -1    0    0  502  503 -0.00000000000E+00 -0.00000000000E+00 -0.73337927638E+02  0.73337927638E+02  0.00000000000E+00 0.  1.
         -6    2    1    2    0  503 -0.33305922713E+03 -0.28191079463E+01  0.55307778889E+03  0.66811377839E+03  0.17188538089E+03 0.  0.
        -24    2    3    3    0    0 -0.15183046302E+03  0.58742043372E+02  0.23523624072E+03  0.29706259589E+03  0.80043611655E+02 0.  0.
          6    2    1    2  501    0  0.33305922713E+03  0.28191079463E+01  0.21857921681E+04  0.22174320339E+04  0.16846669279E+03 0.  0.
         24    2    5    5    0    0  0.13733566224E+03 -0.44762879376E+02  0.75318988124E+03  0.77073124875E+03  0.76595437858E+02 0.  0.
          5    1    5    5  501    0  0.19572356489E+03  0.47581987322E+02  0.14326022869E+04  0.14467007851E+04  0.47000000000E+01 0. -1.
        -13    1    6    6    0    0  0.10231509182E+02  0.18153551689E+02  0.12553076583E+03  0.12724860859E+03  0.00000000000E+00 0.  1.
         14    1    6    6    0    0  0.12710415306E+03 -0.62916431065E+02  0.62765911541E+03  0.64348264015E+03  0.00000000000E+00 0. -1.
         -5    1    3    3    0  503 -0.18122876411E+03 -0.61561151318E+02  0.31784154817E+03  0.37105118250E+03  0.47000000000E+01 0.  1.
         11    1    4    4    0    0 -0.48457085376E+01 -0.18428360899E+01 -0.61387724074E+01  0.80350147950E+01  0.00000000000E+00 0. -1.
        -12    1    4    4    0    0 -0.14698475448E+03  0.60584879462E+02  0.24137501313E+03  0.28902758109E+03  0.00000000000E+00 0.  1.
</event>
<event>
12    1  0.8461994E-002  0.1955598E+03  0.7818608E-02  0.1154193E+00
         21   -1    0    0  503  502  0.00000000000E+00  0.00000000000E+00  0.41753279989E+03  0.41753279989E+03  0.00000000000E+00 0. -1.
         21   -1    0    0  501  503 -0.00000000000E+00 -0.00000000000E+00 -0.13796113838E+03  0.13796113838E+03  0.00000000000E+00 0. -1.
          6    2    1    2  501    0  0.86905461277E+02 -0.33382806360E+02  0.30390007650E+03  0.36138469226E+03  0.17197868572E+03 0.  0.
         24    2    3    3    0    0  0.55109364735E+02  0.33731777816E+02  0.24964562368E+03  0.26929237545E+03  0.77592339427E+02 0.  0.
         -6    2    1    2    0  502 -0.86905461277E+02  0.33382806360E+02 -0.24328414989E+02  0.19410924601E+03  0.16858100916E+03 0.  0.
        -24    2    5    5    0    0 -0.12184379233E+03  0.39135212719E+02 -0.38425297185E+02  0.15570886523E+03  0.79945435410E+02 0.  0.
          5    1    3    3  501    0  0.31796096542E+02 -0.67114584175E+02  0.54254452820E+02  0.92092316809E+02  0.47000000000E+01 0. -1.
        -13    1    4    4    0    0 -0.11285704992E+02  0.83037081668E+01  0.12509926407E+03  0.12588147035E+03  0.00000000000E+00 0.  1.
         14    1    4    4    0    0  0.66395069727E+02  0.25428069649E+02  0.12454635961E+03  0.14341090510E+03  0.00000000000E+00 0. -1.
         -5    1    5    5    0  502  0.34938331057E+02 -0.57524063593E+01  0.14096882196E+02  0.38400380775E+02  0.47000000000E+01 0.  1.
         13    1    6    6    0    0 -0.10686895157E+03  0.39277669863E+02  0.65217604153E+00  0.11386014884E+03  0.00000000000E+00 0. -1.
        -14    1    6    6    0    0 -0.14974840762E+02 -0.14245714434E+00 -0.39077473226E+02  0.41848716392E+02  0.00000000000E+00 0.  1.
</event>
<event>
12    1  0.8461994E-002  0.1997998E+03  0.7818608E-02  0.1149961E+00
         21   -1    0    0  501  502  0.00000000000E+00  0.00000000000E+00  0.11162162426E+04  0.11162162426E+04  0.00000000000E+00 0.  1.
         21   -1    0    0  502  503 -0.00000000000E+00 -0.00000000000E+00 -0.36878512684E+02  0.36878512684E+02  0.00000000000E+00 0. -1.
         -6    2    1    2    0  503  0.90332544368E+02 -0.47324684302E+02  0.64157133780E+03  0.67188860216E+03  0.17152526902E+03 0.  0.
        -24    2    3    3    0    0  0.11489146782E+03 -0.37623369832E+02  0.34646441932E+03  0.37556540098E+03  0.79976304139E+02 0.  0.
          6    2    1    2  501    0 -0.90332544368E+02  0.47324684302E+02  0.43776639210E+03  0.48120615311E+03  0.17181488125E+03 0.  0.
         24    2    5    5    0    0  0.12858529323E+02 -0.91736434851E+01  0.17924435041E+03  0.19713539648E+03  0.80525336874E+02 0.  0.
          5    1    5    5  501    0 -0.10319107369E+03  0.56498327787E+02  0.25852204169E+03  0.28407075663E+03  0.47000000000E+01 0. -1.
        -11    1    6    6    0    0  0.33133870470E+01 -0.39958891654E+02  0.14354041710E+03  0.14903537465E+03  0.00000000000E+00 0.  1.
         12    1    6    6    0    0  0.95451422764E+01  0.30785248169E+02  0.35703933315E+02  0.48100021830E+02  0.00000000000E+00 0. -1.
         -5    1    3    3    0  503 -0.24558923455E+02 -0.97013144701E+01  0.29510691848E+03  0.29632320118E+03  0.47000000000E+01 0.  1.
         11    1    4    4    0    0  0.13670646665E+02 -0.35574414137E+02  0.54161928233E+02  0.66226429705E+02  0.00000000000E+00 0. -1.
        -12    1    4    4    0    0  0.10122082116E+03 -0.20489556947E+01  0.29230249109E+03  0.30933897128E+03  0.00000000000E+00 0.  1.
</event>
<event>
12    1  0.8461994E-002  0.1815320E+03  0.7818608E-02  0.1166940E+00
         21   -1    0    0  503  502  0.00000000000E+00  0.00000000000E+00  0.19060480982E+03  0.19060480982E+03  0.00000000000E+00 0.  1.
         21   -1    0    0  501  503 -0.00000000000E+00 -0.00000000000E+00 -0.44160274515E+03  0.44160274515E+03  0.00000000000E+00 0.  1.
          6    2    1    2  501    0  0.21920047582E+02 -0.42212514105E+02 -0.37351809880E+03  0.41529464552E+03  0.17518986167E+03 0.  0.
         24    2    3    3    0    0 -0.24694373122E+02 -0.15367007320E+02 -0.34258298437E+03  0.35306397176E+03  0.80281442392E+02 0.  0.
         -6    2    1    2    0  502 -0.21920047582E+02  0.42212514105E+02  0.12252016347E+03  0.21691290945E+03  0.17256197437E+03 0.  0.
        -24    2    5    5    0    0 -0.26990486186E+02  0.81698103047E+02  0.38676500822E+02  0.12397921886E+03  0.80448173416E+02 0.  0.
          5    1    3    3  501    0  0.46614420705E+02 -0.26845506785E+02 -0.30935114428E+02  0.62230673762E+02  0.47000000000E+01 0. -1.
        -11    1    4    4    0    0 -0.44041488922E+02  0.16875778561E+02 -0.21146462130E+03  0.21666040411E+03  0.00000000000E+00 0.  1.
         12    1    4    4    0    0  0.19347115799E+02 -0.32242785881E+02 -0.13111836307E+03  0.13640356764E+03  0.00000000000E+00 0. -1.
         -5    1    5    5    0  502  0.50704386038E+01 -0.39485588942E+02  0.83843662647E+02  0.92933690596E+02  0.47000000000E+01 0.  1.
         13    1    6    6    0    0  0.13822549925E+02 -0.65722611656E+01  0.19614896642E+02  0.24879744241E+02  0.00000000000E+00 0. -1.
        -14    1    6    6    0    0 -0.40813036111E+02  0.88270364213E+02  0.19061604181E+02  0.99099474614E+02  0.00000000000E+00 0.  1.
</event>
<event>
12    1  0.8461994E-002  0.2240955E+03  0.7818608E-02  0.1131467E+00
         21   -1    0    0  503  502  0.00000000000E+00  0.00000000000E+00  0.64961456540E+02  0.64961456540E+02  0.00000000000E+00 0.  1.
         21   -1    0    0  501  503 -0.00000000000E+00 -0.00000000000E+00 -0.19014782232E+04  0.19014782232E+04  0.00000000000E+00 0.  1.
          6    2    1    2  501    0  0.35339765301E+02  0.13458370536E+03 -0.16821591136E+04  0.16970203521E+04  0.17566194602E+03 0.  0.
         24    2    3    3    0    0 -0.19111071057E+02  0.74508380402E+02 -0.49733891617E+03  0.50941986017E+03  0.79030782657E+02 0.  0.
         -6    2    1    2    0  502 -0.35339765301E+02 -0.13458370536E+03 -0.15435765306E+03  0.26941932762E+03  0.17146083015E+03 0.  0.
        -24    2    5    5    0    0  0.18574845770E+02 -0.42608849872E+02 -0.12818299956E+03  0.15954047699E+03  0.82835641127E+02 0.  0.
          5    1    3    3  501    0  0.54450836358E+02  0.60075324956E+02 -0.11848201974E+04  0.11876004919E+04  0.47000000000E+01 0. -1.
        -13    1    4    4    0    0 -0.15721305562E+02  0.72717035430E+02 -0.49950586309E+03  0.50501587495E+03  0.00000000000E+00 0.  1.
         14    1    4    4    0    0 -0.33897654957E+01  0.17913449725E+01  0.21669469125E+01  0.44039852234E+01  0.00000000000E+00 0. -1.
         -5    1    5    5    0  502 -0.53914611071E+02 -0.91974855486E+02 -0.26174653499E+02  0.10987885062E+03  0.47000000000E+01 0.  1.
         13    1    6    6    0    0 -0.71684198027E+01  0.23048815237E+02 -0.38642132183E+02  0.45561480507E+02  0.00000000000E+00 0. -1.
        -14    1    6    6    0    0  0.25743265573E+02 -0.65657665109E+02 -0.89540867374E+02  0.11397899649E+03  0.00000000000E+00 0.  1.
</event>
<event>
12    1  0.8461994E-002  0.1889008E+03  0.7818608E-02  0.1160082E+00
         21   -1    0    0  501  502  0.00000000000E+00  0.00000000000E+00  0.30690191095E+03  0.30690191095E+03  0.00000000000E+00 0. -1.
         21   -1    0    0  502  503 -0.00000000000E+00 -0.00000000000E+00 -0.11684503077E+03  0.11684503077E+03  0.00000000000E+00 0. -1.
         -6    2    1    2    0  503 -0.77100242629E+01  0.71219324242E+02  0.12374864379E+03  0.22354628495E+03  0.17183590444E+03 0.  0.
        -24    2    3    3    0    0 -0.63211211818E+02  0.80888280239E+02  0.92353173293E+02  0.15888071375E+03  0.78583722273E+02 0.  0.
          6    2    1    2  501    0  0.77100242629E+01 -0.71219324242E+02  0.66308236392E+02  0.20020065677E+03  0.17479097270E+03 0.  0.
         24    2    5    5    0    0 -0.27778837873E+02  0.12893728300E+02  0.71426666189E+02  0.10864327985E+03  0.75918914319E+02 0.  0.
          5    1    5    5  501    0  0.35488862136E+02 -0.84113052542E+02 -0.51184297978E+01  0.91557376913E+02  0.47000000000E+01 0. -1.
        -13    1    6    6    0    0  0.24835329666E+02  0.15191002726E+02  0.23064534859E+02  0.37142064182E+02  0.00000000000E+00 0.  1.
         14    1    6    6    0    0 -0.52614167539E+02 -0.22972744257E+01  0.48362131330E+02  0.71501215671E+02  0.00000000000E+00 0. -1.
         -5    1    3    3    0  503  0.55501187555E+02 -0.96689559974E+01  0.31395470497E+02  0.64665571194E+02  0.47000000000E+01 0.  1.
         13    1    4    4    0    0  0.92461796845E+01  0.47444233047E+01  0.40242723107E+02  0.41562942080E+02  0.00000000000E+00 0. -1.
        -14    1    4    4    0    0 -0.72457391503E+02  0.76143856934E+02  0.52110450186E+02  0.11731777168E+03  0.00000000000E+00 0.  1.
</event>
<event>
12    1  0.8461994E-002  0.1865542E+03  0.7818608E-02  0.1162317E+00
         21   -1    0    0  501  502  0.00000000000E+00  0.00000000000E+00  0.11281702021E+03  0.11281702021E+03  0.00000000000E+00 0. -1.
         21   -1    0    0  502  503 -0.00000000000E+00 -0.00000000000E+00 -0.34815818161E+03  0.34815818161E+03  0.00000000000E+00 0.  1.
         -6    2    1    2    0  503  0.39796552389E+02 -0.49294699199E+02 -0.19940359521E+03  0.27099109742E+03  0.17222267025E+03 0.  0.
        -24    2    3    3    0    0  0.43524536542E+01 -0.94821013912E+02 -0.15171268511E+03  0.19598814833E+03  0.79903985695E+02 0.  0.
          6    2    1    2  501    0 -0.39796552389E+02  0.49294699199E+02 -0.35937566189E+02  0.18998410440E+03  0.17546714311E+03 0.  0.
         24    2    5    5    0    0  0.49664818067E+01 -0.23422287585E+02 -0.55605366067E+02  0.10223217138E+03  0.82378338369E+02 0.  0.
          5    1    5    5  501    0 -0.44763034196E+02  0.72716986784E+02  0.19667799878E+02  0.87751933024E+02  0.47000000000E+01 0. -1.
        -13    1    6    6    0    0 -0.13592198046E+02  0.18789444027E+02 -0.50834983290E+02  0.55874740095E+02  0.00000000000E+00 0.  1.
         14    1    6    6    0    0  0.18558679853E+02 -0.42211731612E+02 -0.47703827776E+01  0.46357431286E+02  0.00000000000E+00 0. -1.
         -5    1    3    3    0  503  0.35444098735E+02  0.45526314713E+02 -0.47690910100E+02  0.75002949093E+02  0.47000000000E+01 0.  1.
         13    1    4    4    0    0 -0.32132187266E+01  0.53524390459E+01  0.62199927128E+01  0.88125868888E+01  0.00000000000E+00 0. -1.
        -14    1    4    4    0    0  0.75656723809E+01 -0.10017345296E+03 -0.15793267782E+03  0.18717556144E+03  0.00000000000E+00 0.  1.
</event>
<event>
12    1  0.8461994E-002  0.2093010E+03  0.7818608E-02  0.1145647E+00
         21   -1    0    0  501  502  0.00000000000E+00  0.00000000000E+00  0.71282787440E+02  0.71282787440E+02  0.00000000000E+00 0.  1.
         21   -1    0    0  502  503 -0.00000000000E+00 -0.00000000000E+00 -0.10552718527E+04  0.10552718527E+04  0.00000000000E+00 0.  1.
         -6    2    1    2    0  503  0.29874006087E+02 -0.88370524199E+02 -0.97413692617E+02  0.21560853089E+03  0.16821357049E+03 0.  0.
        -24    2    3    3    0    0  0.75864358659E+02 -0.43149308908E+02 -0.88627057556E+02  0.15034471398E+03  0.84448291377E+02 0.  0.
          6    2    1    2  501    0 -0.29874006087E+02  0.88370524199E+02 -0.88657537266E+03  0.91094610927E+03  0.18736359517E+03 0.  0.
         24    2    5    5    0    0  0.50532160978E+02  0.57628862506E+02 -0.64709702372E+03  0.65642268976E+03  0.79256573472E+02 0.  0.
          5    1    5    5  501    0 -0.80406167065E+02  0.30741661693E+02 -0.23947834894E+03  0.25452341951E+03  0.47000000000E+01 0. -1.
        -11    1    6    6    0    0  0.27596791128E+02  0.71241247081E+02 -0.56398501303E+03  0.56913618150E+03  0.00000000000E+00 0.  1.
         12    1    6    6    0    0  0.22935369850E+02 -0.13612384575E+02 -0.83112010693E+02  0.87286508267E+02  0.00000000000E+00 0. -1.
         -5    1    3    3    0  503 -0.45990352572E+02 -0.45221215291E+02 -0.87866350612E+01  0.65263816911E+02  0.47000000000E+01 0.  1.
         13    1    4    4    0    0 -0.18466606593E+02 -0.93036614579E+01 -0.20809377968E+02  0.29336050978E+02  0.00000000000E+00 0. -1.
        -14    1    4    4    0    0  0.94330965252E+02 -0.33845647450E+02 -0.67817679588E+02  0.12100866300E+03  0.00000000000E+00 0.  1.
</event>
<event>
12    1  0.8461994E-002  0.2190673E+03  0.7818608E-02  0.1135004E+00
         21   -1    0    0  501  502  0.00000000000E+00  0.00000000000E+00  0.15462670685E+04  0.15462670685E+04  0.00000000000E+00 0.  1.
         21   -1    0    0  502  503 -0.00000000000E+00 -0.00000000000E+00 -0.40787419863E+02  0.40787419863E+02  0.00000000000E+00 0.  1.
         -6    2    1    2    0  503  0.11923030698E+03 -0.63718967580E+02  0.35554943498E+03  0.41644354607E+03  0.16951062920E+03 0.  0.
        -24    2    3    3    0    0  0.88588640961E+02  0.21056828089E+02  0.15412825726E+03  0.19572103234E+03  0.79119311799E+02 0.  0.
          6    2    1    2  501    0 -0.11923030698E+03  0.63718967580E+02  0.11499302136E+04  0.11706109423E+04  0.17237896920E+03 0.  0.
         24    2    5    5    0    0  0.19938267090E+01  0.12801275993E+02  0.57144029380E+03  0.57734828606E+03  0.81358380237E+02 0.  0.
          5    1    5    5  501    0 -0.12122413369E+03  0.50917691587E+02  0.57848991985E+03  0.59326265623E+03  0.47000000000E+01 0. -1.
        -11    1    6    6    0    0 -0.37920999435E+00  0.26970397142E+02  0.55441812414E+03  0.55507387121E+03  0.00000000000E+00 0.  1.
         12    1    6    6    0    0  0.23730367033E+01 -0.14169121150E+02  0.17022169653E+02  0.22274414853E+02  0.00000000000E+00 0. -1.
         -5    1    3    3    0  503  0.30641666019E+02 -0.84775795670E+02  0.20142117773E+03  0.22072251373E+03  0.47000000000E+01 0.  1.
         11    1    4    4    0    0  0.45061478575E+02 -0.17175296881E+02  0.11792875173E+03  0.12740768485E+03  0.00000000000E+00 0. -1.
        -12    1    4    4    0    0  0.43527162385E+02  0.38232124971E+02  0.36199505526E+02  0.68313347491E+02  0.00000000000E+00 0.  1.
</event>
<event>
12    1  0.8461994E-002  0.2174207E+03  0.7818608E-02  0.1135940E+00
         21   -1    0    0  501  502  0.00000000000E+00  0.00000000000E+00  0.21377777269E+04  0.21377777269E+04  0.00000000000E+00 0.  1.
         21   -1    0    0  502  503 -0.00000000000E+00 -0.00000000000E+00 -0.22049940754E+02  0.22049940754E+02  0.00000000000E+00 0. -1.
         -6    2    1    2    0  503  0.55706113815E+02  0.11936699070E+03  0.10509680705E+04  0.10732220919E+04  0.17297434404E+03 0.  0.
        -24    2    3    3    0    0  0.21066540679E+02  0.62756673616E+02  0.27328017114E+03  0.29269330519E+03  0.81271887804E+02 0.  0.
          6    2    1    2  501    0 -0.55706113815E+02 -0.11936699070E+03  0.10647597156E+04  0.10866055757E+04  0.17218239069E+03 0.  0.
         24    2    5    5    0    0 -0.47894197185E+02 -0.83289818180E+02  0.10227016791E+04  0.10304490369E+04  0.81703398321E+02 0.  0.
          5    1    5    5  501    0 -0.78119166298E+01 -0.36077172519E+02  0.42058036502E+02  0.56156538825E+02  0.47000000000E+01 0. -1.
        -11    1    6    6    0    0 -0.42379132253E+02 -0.18507389269E+02  0.68413283273E+03  0.68569398942E+03  0.00000000000E+00 0.  1.
         12    1    6    6    0    0 -0.55150649319E+01 -0.64782428911E+02  0.33856884636E+03  0.34475504748E+03  0.00000000000E+00 0. -1.
         -5    1    3    3    0  503  0.34639573135E+02  0.56610317084E+02  0.77768789940E+03  0.78052878673E+03  0.47000000000E+01 0.  1.
         11    1    4    4    0    0  0.37795231803E+02  0.87165430378E+01  0.55667083121E+02  0.67847489362E+02  0.00000000000E+00 0. -1.
        -12    1    4    4    0    0 -0.16728691124E+02  0.54040130578E+02  0.21761308802E+03  0.22484581583E+03  0.00000000000E+00 0.  1.
</event>
<event>
12    1  0.8461994E-002  0.1748173E+03  0.7818608E-02  0.1173664E+00
         21   -1    0    0  501  502  0.00000000000E+00  0.00000000000E+00  0.68965676941E+02  0.68965676941E+02  0.00000000000E+00 0. -1.
         21   -1    0    0  502  503 -0.00000000000E+00 -0.00000000000E+00 -0.43608618788E+03  0.43608618788E+03  0.00000000000E+00 0. -1.
         -6    2    1    2    0  503 -0.86138411671E+01  0.54989550234E+01 -0.18970886908E+03  0.25598160657E+03  0.17155958477E+03 0.  0.
        -24    2    3    3    0    0 -0.63619898390E+02 -0.27129099854E+02 -0.13520200643E+03  0.17181899983E+03  0.80366078864E+02 0.  0.
          6    2    1    2  501    0  0.86138411671E+01 -0.54989550234E+01 -0.17741164186E+03  0.24907025826E+03  0.17451838331E+03 0.  0.
         24    2    5    5    0    0 -0.54144318379E+02 -0.56918367866E+01 -0.53017220943E+02  0.10966191651E+03  0.79062671323E+02 0.  0.
          5    1    5    5  501    0  0.62758159546E+02  0.19288176320E+00 -0.12439442092E+03  0.13940834175E+03  0.47000000000E+01 0. -1.
        -13    1    6    6    0    0 -0.33501189122E+02 -0.32834123213E+02 -0.58647751415E+02  0.75099720811E+02  0.00000000000E+00 0.  1.
         14    1    6    6    0    0 -0.20643129257E+02  0.27142286426E+02  0.56305304724E+01  0.34562195696E+02  0.00000000000E+00 0. -1.
         -5    1    3    3    0  503  0.55006057223E+02  0.32628054877E+02 -0.54506862655E+02  0.84162606737E+02  0.47000000000E+01 0.  1.
         13    1    4    4    0    0 -0.74591809617E+02 -0.31192494852E+02 -0.74309506777E+02  0.10981262493E+03  0.00000000000E+00 0. -1.
        -14    1    4    4    0    0  0.10971911227E+02  0.40633949982E+01 -0.60892499648E+02  0.62006374900E+02  0.00000000000E+00 0.  1.
</event>
<event>
12    1  0.8461994E-002  0.1905007E+03  0.7818608E-02  0.1159404E+00
         21   -1    0    0  503  502  0.00000000000E+00  0.00000000000E+00  0.19021939664E+03  0.19021939664E+03  0.00000000000E+00 0. -1.
         21   -1    0    0  501  503 -0.00000000000E+00 -0.00000000000E+00 -0.20249614917E+03  0.20249614917E+03  0.00000000000E+00 0. -1.
          6    2    1    2  501    0 -0.55534953073E+02  0.59225105860E+02  0.51930719928E+02  0.19745206939E+03  0.17233332777E+03 0.  0.
         24    2    3    3    0    0 -0.24400024285E+02  0.64359253707E+02  0.95820062086E+02  0.14319243781E+03  0.81148722877E+02 0.  0.
         -6    2    1    2    0  502  0.55534953073E+02 -0.59225105860E+02 -0.64207472461E+02  0.19526347641E+03  0.16557017100E+03 0.  0.
        -24    2    5    5    0    0  0.72959851165E+02 -0.18003568668E+02 -0.91043178687E+02  0.14286989540E+03  0.80471599095E+02 0.  0.
          5    1    3    3  501    0 -0.31134928788E+02 -0.51341478477E+01 -0.43889342158E+02  0.54259631586E+02  0.47000000000E+01 0. -1.
        -13    1    4    4    0    0  0.29091344745E+02  0.17916447055E+02  0.42489918204E+02  0.54522459254E+02  0.00000000000E+00 0.  1.
         14    1    4    4    0    0 -0.53491369029E+02  0.46442806652E+02  0.53330143882E+02  0.88669978555E+02  0.00000000000E+00 0. -1.
         -5    1    5    5    0  502 -0.17424898092E+02 -0.41221537192E+02  0.26835706226E+02  0.52393581006E+02  0.47000000000E+01 0.  1.
         13    1    6    6    0    0  0.42004337334E+02 -0.27867105244E+02 -0.47116427424E+01  0.50627457835E+02  0.00000000000E+00 0. -1.
        -14    1    6    6    0    0  0.30955513831E+02  0.98635365759E+01 -0.86331535944E+02  0.92242437570E+02  0.00000000000E+00 0.  1.
</event>
<event>
12    1  0.8461994E-002  0.2323184E+03  0.7818608E-02  0.1125413E+00
         21   -1    0    0  503  502  0.00000000000E+00  0.00000000000E+00  0.30105654246E+02  0.30105654246E+02  0.00000000000E+00 0.  1.
         21   -1    0    0  501  503 -0.00000000000E+00 -0.00000000000E+00 -0.21545289641E+04  0.21545289641E+04  0.00000000000E+00 0. -1.
          6    2    1    2  501    0 -0.11093861944E+03 -0.10543691573E+03 -0.60825380441E+03  0.65111024499E+03  0.17477854579E+03 0.  0.
         24    2    3    3    0    0 -0.43831174577E+02 -0.86232278197E+02 -0.53729192943E+03  0.55146133651E+03  0.77908989055E+02 0.  0.
         -6    2    1    2    0  502  0.11093861944E+03  0.10543691573E+03 -0.15161695054E+04  0.15335243733E+04  0.17176354083E+03 0.  0.
        -24    2    5    5    0    0  0.45066819538E+02  0.11195553894E+03 -0.12813265136E+04  0.12894856320E+04  0.80065596350E+02 0.  0.
          5    1    3    3  501    0 -0.67107444865E+02 -0.19204637533E+02 -0.70961874983E+02  0.99648908475E+02  0.47000000000E+01 0. -1.
        -13    1    4    4    0    0 -0.16848933290E+02 -0.37173221753E+02 -0.71597395140E+02  0.82413117641E+02  0.00000000000E+00 0.  1.
         14    1    4    4    0    0 -0.26982241287E+02 -0.49059056444E+02 -0.46569453429E+03  0.46904821887E+03  0.00000000000E+00 0. -1.
         -5    1    5    5    0  502  0.65871799904E+02 -0.65186232138E+01 -0.23484299179E+03  0.24403874132E+03  0.47000000000E+01 0.  1.
         11    1    6    6    0    0  0.35441924566E+02  0.21627542489E+02 -0.68736872097E+03  0.68862155004E+03  0.00000000000E+00 0. -1.
        -12    1    6    6    0    0  0.96248949721E+01  0.90327996455E+02 -0.59395779264E+03  0.60086408196E+03  0.00000000000E+00 0.  1.
</event>
<event>
12    1  0.8461994E-002  0.2131764E+03  0.7818608E-02  0.1139241E+00
         21   -1    0    0  503  502  0.00000000000E+00  0.00000000000E+00  0.15512040500E+03  0.15512040500E+03  0.00000000000E+00 0.  1.
         21   -1    0    0  501  503 -0.00000000000E+00 -0.00000000000E+00 -0.46458519237E+03  0.46458519237E+03  0.00000000000E+00 0.  1.
          6    2    1    2  501    0  0.12437119132E+03  0.15600889481E+01 -0.34350460801E+03  0.40382855220E+03  0.17207979758E+03 0.  0.
         24    2    3    3    0    0  0.12803793926E+03 -0.20380984624E+02 -0.16837143331E+03  0.22722567954E+03  0.80457886268E+02 0.  0.
         -6    2    1    2    0  502 -0.12437119132E+03 -0.15600889481E+01  0.34039820642E+02  0.21587704517E+03  0.17312874439E+03 0.  0.
        -24    2    5    5    0    0  0.85146005947E+01 -0.17010468683E+02  0.15025596112E+02  0.80669875754E+02  0.76941574246E+02 0.  0.
          5    1    3    3  501    0 -0.36667479428E+01  0.21941073573E+02 -0.17513317470E+03  0.17660287266E+03  0.47000000000E+01 0. -1.
        -11    1    4    4    0    0  0.56027707324E+02 -0.26237169171E+02 -0.13321086130E+03  0.14687622886E+03  0.00000000000E+00 0.  1.
         12    1    4    4    0    0  0.72010231938E+02  0.58561845468E+01 -0.35160572008E+02  0.80349450683E+02  0.00000000000E+00 0. -1.
         -5    1    5    5    0  502 -0.13288579191E+03  0.15450379735E+02  0.19014224530E+02  0.13520716941E+03  0.47000000000E+01 0.  1.
         13    1    6    6    0    0  0.15725435050E+02  0.28325909566E+02  0.12394862641E+02  0.34688313308E+02  0.00000000000E+00 0. -1.
        -14    1    6    6    0    0 -0.72108344557E+01 -0.45336378250E+02  0.26307334713E+01  0.45981562446E+02  0.00000000000E+00 0.  1.
</event>
<event>
12    1  0.8461994E-002  0.1796543E+03  0.7818608E-02  0.1168802E+00
         21   -1    0    0  501  502  0.00000000000E+00  0.00000000000E+00  0.32913738914E+03  0.32913738914E+03  0.00000000000E+00 0.  1.
         21   -1    0    0  502  503 -0.00000000000E+00 -0.00000000000E+00 -0.11918255253E+03  0.11918255253E+03  0.00000000000E+00 0.  1.
         -6    2    1    2    0  503 -0.26358984118E+02  0.42108768536E+02  0.67246175694E+01  0.17706695736E+03  0.16982209066E+03 0.  0.
        -24    2    3    3    0    0  0.37099165485E+02 -0.17303124929E+02  0.56530509838E+01  0.90004060036E+02  0.79956410785E+02 0.  0.
          6    2    1    2  501    0  0.26358984118E+02 -0.42108768536E+02  0.20323021905E+03  0.27125298431E+03  0.17264910985E+03 0.  0.
         24    2    5    5    0    0  0.74903694892E+02 -0.41030308661E+02  0.18531246192E+03  0.21928291561E+03  0.80313378716E+02 0.  0.
          5    1    5    5  501    0 -0.48544710774E+02 -0.10784598756E+01  0.17917757130E+02  0.51970068698E+02  0.47000000000E+01 0. -1.
        -13    1    6    6    0    0  0.28243006806E+02 -0.51595302864E+01  0.14531253610E+03  0.14812164371E+03  0.00000000000E+00 0.  1.
         14    1    6    6    0    0  0.46660688085E+02 -0.35870778374E+02  0.39999925811E+02  0.71161271902E+02  0.00000000000E+00 0. -1.
         -5    1    3    3    0  503 -0.63458149603E+02  0.59411893466E+02  0.10715665855E+01  0.87062897328E+02  0.47000000000E+01 0.  1.
         13    1    4    4    0    0  0.10438977331E+02 -0.46577544540E+02 -0.74211102679E+01  0.48306446575E+02  0.00000000000E+00 0. -1.
        -14    1    4    4    0    0  0.26660188155E+02  0.29274419610E+02  0.13074161252E+02  0.41697613462E+02  0.00000000000E+00 0.  1.
</event>
<event>
12    1  0.8461994E-002  0.2062290E+03  0.7818608E-02  0.1144685E+00
         21   -1    0    0  501  502  0.00000000000E+00  0.00000000000E+00  0.42083484415E+02  0.42083484415E+02  0.00000000000E+00 0. -1.
         21   -1    0    0  502  503 -0.00000000000E+00 -0.00000000000E+00 -0.14958095206E+04  0.14958095206E+04  0.00000000000E+00 0. -1.
         -6    2    1    2    0  503  0.12004980188E+02  0.11041956049E+03 -0.11664359984E+04  0.11845266372E+04  0.17376368165E+03 0.  0.
        -24    2    3    3    0    0  0.72963958208E+02  0.68903530105E+02 -0.84651132194E+03  0.85617702723E+03  0.79914004569E+02 0.  0.
          6    2    1    2  501    0 -0.12004980188E+02 -0.11041956049E+03 -0.28729003774E+03  0.35336636774E+03  0.17319245127E+03 0.  0.
         24    2    5    5    0    0  0.11976161896E+02 -0.31031380511E+02 -0.45043857771E+02  0.97274821597E+02  0.79542861174E+02 0.  0.
          5    1    5    5  501    0 -0.23981142084E+02 -0.79388179976E+02 -0.24224617997E+03  0.25609154614E+03  0.47000000000E+01 0. -1.
        -13    1    6    6    0    0 -0.70565524756E+01  0.23480491356E+02 -0.79569190110E+00  0.24530828212E+02  0.00000000000E+00 0.  1.
         14    1    6    6    0    0  0.19032714372E+02 -0.54511871867E+02 -0.44248165870E+02  0.72743993386E+02  0.00000000000E+00 0. -1.
         -5    1    3    3    0  503 -0.60958978020E+02  0.41516030382E+02 -0.31992467646E+03  0.32834961001E+03  0.47000000000E+01 0.  1.
         13    1    4    4    0    0  0.48169627822E+02  0.84906396090E+02 -0.59728839699E+03  0.60521305201E+03  0.00000000000E+00 0. -1.
        -14    1    4    4    0    0  0.24794330385E+02 -0.16002865985E+02 -0.24922292495E+03  0.25096397522E+03  0.00000000000E+00 0.  1.
</event>
<event>
12    1  0.8461994E-002  0.2439411E+03  0.7818608E-02  0.1117331E+00
         21   -1    0    0  503  502  0.00000000000E+00  0.00000000000E+00  0.27774299225E+03  0.27774299225E+03  0.00000000000E+00 0. -1.
         21   -1    0    0  501  503 -0.00000000000E+00 -0.00000000000E+00 -0.12844872282E+04  0.12844872282E+04  0.00000000000E+00 0.  1.
          6    2    1    2  501    0  0.19887094881E+02 -0.17085548340E+03 -0.12167599251E+04  0.12409721868E+04  0.17297445013E+03 0.  0.
         24    2    3    3    0    0  0.47246558546E+02 -0.18564661759E+03 -0.11235377526E+04  0.11425863070E+04  0.80433099640E+02 0.  0.
         -6    2    1    2    0  502 -0.19887094881E+02  0.17085548340E+03  0.21001568916E+03  0.32125803361E+03  0.17179360207E+03 0.  0.
        -24    2    5    5    0    0  0.14380405910E+02  0.96131030426E+02  0.20231447585E+03  0.23855734335E+03  0.80811433860E+02 0.  0.
          5    1    3    3  501    0 -0.27359463665E+02  0.14791134190E+02 -0.93222172443E+02  0.98385879768E+02  0.47000000000E+01 0. -1.
        -13    1    4    4    0    0 -0.17651202677E+02 -0.90003719200E+02 -0.53532021967E+03  0.54312058700E+03  0.00000000000E+00 0.  1.
         14    1    4    4    0    0  0.64897761223E+02 -0.95642898394E+02 -0.58821753295E+03  0.59946572003E+03  0.00000000000E+00 0. -1.
         -5    1    5    5    0  502 -0.34267500790E+02  0.74724452978E+02  0.77012133114E+01  0.82700690261E+02  0.47000000000E+01 0.  1.
         11    1    6    6    0    0 -0.90156237683E+01 -0.66330445659E+01  0.62363764699E+02  0.63360223324E+02  0.00000000000E+00 0. -1.
        -12    1    6    6    0    0  0.23396029678E+02  0.10276407499E+03  0.13995071115E+03  0.17519712002E+03  0.00000000000E+00 0.  1.
</event>
<event>
12    1  0.8461994E-002  0.1975693E+03  0.7818608E-02  0.1152229E+00
         21   -1    0    0  503  502  0.00000000000E+00  0.00000000000E+00  0.13211352673E+03  0.13211352673E+03  0.00000000000E+00 0.  1.
         21   -1    0    0  501  503 -0.00000000000E+00 -0.00000000000E+00 -0.31548237844E+03  0.31548237844E+03  0.00000000000E+00 0.  1.
          6    2    1    2  501    0  0.81977570736E+02  0.51620735164E+02 -0.31742237617E+02  0.20010299788E+03  0.17218773971E+03 0.  0.
         24    2    3    3    0    0 -0.22039929701E+02  0.39479679457E+02  0.31810650012E+01  0.89609682710E+02  0.77300533437E+02 0.  0.
         -6    2    1    2    0  502 -0.81977570736E+02 -0.51620735164E+02 -0.15162661409E+03  0.24749290730E+03  0.16993259446E+03 0.  0.
        -24    2    5    5    0    0 -0.32175286411E+02  0.38114024112E+02 -0.73690731946E+02  0.11854064376E+03  0.78317509909E+02 0.  0.
          5    1    3    3  501    0  0.10401750044E+03  0.12141055707E+02 -0.34923302618E+02  0.11049331517E+03  0.47000000000E+01 0. -1.
        -11    1    4    4    0    0 -0.46415962719E+02  0.44195173731E+02 -0.25012820699E+01  0.64139780076E+02  0.00000000000E+00 0.  1.
         12    1    4    4    0    0  0.24376033017E+02 -0.47154942747E+01  0.56823470710E+01  0.25469902633E+02  0.00000000000E+00 0. -1.
         -5    1    5    5    0  502 -0.49802284326E+02 -0.89734759275E+02 -0.77935882147E+02  0.12895226354E+03  0.47000000000E+01 0.  1.
         11    1    6    6    0    0 -0.39487936498E+02 -0.11475872761E+02 -0.22414789937E+02  0.46833914981E+02  0.00000000000E+00 0. -1.
        -12    1    6    6    0    0  0.73126500873E+01  0.49589896873E+02 -0.51275942009E+02  0.71706728778E+02  0.00000000000E+00 0.  1.
</event>
<event>
12    1  0.8461994E-002  0.2062723E+03  0.7818608E-02  0.1145279E+00
         21   -1    0    0  501  502  0.00000000000E+00  0.00000000000E+00  0.14374826426E+03  0.14374826426E+03  0.00000000000E+00 0.  1.
         21   -1    0    0  502  503 -0.00000000000E+00 -0.00000000000E+00 -0.33029579113E+03  0.33029579113E+03  0.00000000000E+00 0.  1.
         -6    2    1    2    0  503  0.10332725694E+03 -0.26554296904E+02 -0.17582608665E+03  0.27104068816E+03  0.17654061625E+03 0.  0.
        -24    2    3    3    0    0  0.16772007250E+02  0.23519032449E+01 -0.15780512159E+03  0.17790516950E+03  0.80380104868E+02 0.  0.
          6    2    1    2  501    0 -0.10332725694E+03  0.26554296904E+02 -0.10721440223E+02  0.20300336723E+03  0.17237681142E+03 0.  0.
         24    2    5    5    0    0 -0.94505076172E+02  0.79440851603E+02 -0.20285094543E+02  0.14833736294E+03  0.79689584370E+02 0.  0.
          5    1    5    5  501    0 -0.88221807635E+01 -0.52886554699E+02  0.95636543195E+01  0.54666004292E+02  0.47000000000E+01 0. -1.
        -11    1    6    6    0    0  0.90519282428E+01  0.24199109120E+02 -0.16987665940E+02  0.30921110607E+02  0.00000000000E+00 0.  1.
         12    1    6    6    0    0 -0.10355700441E+03  0.55241742483E+02 -0.32974286030E+01  0.11741625233E+03  0.00000000000E+00 0. -1.
         -5    1    3    3    0  503  0.86555249685E+02 -0.28906200149E+02 -0.18020965056E+02  0.93135518663E+02  0.47000000000E+01 0.  1.
         11    1    4    4    0    0 -0.29113119735E+01 -0.78894688286E+01  0.74090338938E+01  0.11207731217E+02  0.00000000000E+00 0. -1.
        -12    1    4    4    0    0  0.19683319224E+02  0.10241372074E+02 -0.16521415548E+03  0.16669743828E+03  0.00000000000E+00 0.  1.
</event>
<event>
12    1  0.8461994E-002  0.1951491E+03  0.7818608E-02  0.1154437E+00
         21   -1    0    0  501  502  0.00000000000E+00  0.00000000000E+00  0.89713402492E+03  0.89713402492E+03  0.00000000000E+00 0. -1.
         21   -1    0    0  502  503 -0.00000000000E+00 -0.00000000000E+00 -0.45120578769E+02  0.45120578769E+02  0.00000000000E+00 0. -1.
         -6    2    1    2    0  503 -0.66636053982E+01 -0.90915236379E+02  0.30296522498E+03  0.36037632132E+03  0.17254907006E+03 0.  0.
        -24    2    3    3    0    0  0.70562931544E+01 -0.82176435222E+02  0.31789638606E+03  0.33780129456E+03  0.79049633492E+02 0.  0.
          6    2    1    2  501    0  0.66636053982E+01  0.90915236379E+02  0.54904822117E+03  0.58187828237E+03  0.16975983764E+03 0.  0.
         24    2    5    5    0    0 -0.13864220889E+02 -0.16258060265E+02  0.28637032407E+03  0.29739757162E+03  0.77335709403E+02 0.  0.
          5    1    5    5  501    0  0.20527826287E+02  0.10717329664E+03  0.26267789710E+03  0.28448071075E+03  0.47000000000E+01 0. -1.
        -13    1    6    6    0    0 -0.25037909144E+02 -0.38579469952E+02  0.10938563735E+03  0.11866124075E+03  0.00000000000E+00 0.  1.
         14    1    6    6    0    0  0.11173688255E+02  0.22321409687E+02  0.17698468672E+03  0.17873633087E+03  0.00000000000E+00 0. -1.
         -5    1    3    3    0  503 -0.13719898553E+02 -0.87388011571E+01 -0.14931161084E+02  0.22575026761E+02  0.47000000000E+01 0.  1.
         13    1    4    4    0    0  0.23001341954E+02 -0.53049860257E+02  0.86573160840E+02  0.10410697183E+03  0.00000000000E+00 0. -1.
        -14    1    4    4    0    0 -0.15945048799E+02 -0.29126574965E+02  0.23132322522E+03  0.23369432273E+03  0.00000000000E+00 0.  1.
</event>
<event>
12    1  0.8461994E-002  0.2550956E+03  0.7818608E-02  0.1110254E+00
         21   -1    0    0  503  502  0.00000000000E+00  0.00000000000E+00  0.52582330371E+03  0.52582330371E+03  0.00000000000E+00 0. -1.
         21   -1    0    0  501  503 -0.00000000000E+00 -0.00000000000E+00 -0.57636769170E+03  0.57636769170E+03  0.00000000000E+00 0.  1.
          6    2    1    2  501    0 -0.17648419592E+03 -0.65559779941E+02 -0.51383895885E+03  0.57330953413E+03  0.17090520805E+03 0.  0.
         24    2    3    3    0    0 -0.10947614872E+03 -0.26421552029E+02 -0.16457599752E+03  0.21549871061E+03  0.81678086189E+02 0.  0.
         -6    2    1    2    0  502  0.17648419592E+03  0.65559779941E+02  0.46329457086E+03  0.52888146129E+03  0.17213071939E+03 0.  0.
        -24    2    5    5    0    0  0.14281978019E+03 -0.17072321569E+02  0.33032577667E+03  0.36868112635E+03  0.78241296130E+02 0.  0.
          5    1    3    3  501    0 -0.67008047194E+02 -0.39138227912E+02 -0.34926296133E+03  0.35781082352E+03  0.47000000000E+01 0. -1.
        -11    1    4    4    0    0 -0.45012593144E+02  0.11175325494E+02 -0.11981420165E+03  0.12847748580E+03  0.00000000000E+00 0.  1.
         12    1    4    4    0    0 -0.64463555577E+02 -0.37596877523E+02 -0.44761795874E+02  0.87021224808E+02  0.00000000000E+00 0. -1.
         -5    1    5    5    0  502  0.33664415728E+02  0.82632101510E+02  0.13296879419E+03  0.16020033494E+03  0.47000000000E+01 0.  1.
         13    1    6    6    0    0  0.11649481359E+02  0.20886198376E+02  0.80431327459E+02  0.83911513723E+02  0.00000000000E+00 0. -1.
        -14    1    6    6    0    0  0.13117029883E+03 -0.37958519945E+02  0.24989444921E+03  0.28476961263E+03  0.00000000000E+00 0.  1.
</event>
<event>
12    1  0.8461994E-002  0.1918470E+03  0.7818608E-02  0.1157237E+00
         21   -1    0    0  501  502  0.00000000000E+00  0.00000000000E+00  0.59096273666E+02  0.59096273666E+02  0.00000000000E+00 0. -1.
         21   -1    0    0  502  503 -0.00000000000E+00 -0.00000000000E+00 -0.66612135193E+03  0.66612135193E+03  0.00000000000E+00 0. -1.
         -6    2    1    2    0  503 -0.49170499605E+02 -0.62243732230E+02 -0.40099137354E+03  0.44369466769E+03  0.17256551291E+03 0.  0.
        -24    2    3    3    0    0 -0.92999904576E+02 -0.26180513271E+02 -0.21283637840E+03  0.24710889837E+03  0.80181557464E+02 0.  0.
          6    2    1    2  501    0  0.49170499605E+02  0.62243732230E+02 -0.20603370472E+03  0.28152295791E+03  0.17468047434E+03 0.  0.
         24    2    5    5    0    0  0.10591767231E+02  0.22017399611E+02 -0.21206571275E+03  0.22526505581E+03  0.71941138621E+02 0.  0.
          5    1    5    5  501    0  0.38578732374E+02  0.40226332619E+02  0.60320080289E+01  0.56257902097E+02  0.47000000000E+01 0. -1.
        -11    1    6    6    0    0 -0.14138117022E+02  0.41651322783E+02 -0.13485709606E+03  0.14184905851E+03  0.00000000000E+00 0.  1.
         12    1    6    6    0    0  0.24729884253E+02 -0.19633923172E+02 -0.77208616692E+02  0.83415997301E+02  0.00000000000E+00 0. -1.
         -5    1    3    3    0  503  0.43829404971E+02 -0.36063218958E+02 -0.18815499513E+03  0.19658576931E+03  0.47000000000E+01 0.  1.
         11    1    4    4    0    0 -0.74086830708E+02 -0.32247478695E+02 -0.21239108497E+03  0.22724157045E+03  0.00000000000E+00 0. -1.
        -12    1    4    4    0    0 -0.18913073867E+02  0.60669654235E+01 -0.44529343430E+00  0.19867327923E+02  0.00000000000E+00 0.  1.
</event>
<event>
12    1  0.8461994E-002  0.3173747E+03  0.7818608E-02  0.1077127E+00
         21   -1    0    0  503  502  0.00000000000E+00  0.00000000000E+00  0.52763928192E+03  0.52763928192E+03  0.00000000000E+00 0.  1.
         21   -1    0    0  501  503 -0.00000000000E+00 -0.00000000000E+00 -0.28046296852E+03  0.28046296852E+03  0.00000000000E+00 0. -1.
          6    2    1    2  501    0 -0.11167356649E+03  0.23858669578E+03 -0.10675262421E+03  0.33271570971E+03  0.17294225585E+03 0.  0.
         24    2    3    3    0    0 -0.58164122028E+02  0.24092562146E+03 -0.78752783414E+02  0.27209547955E+03  0.80035797805E+02 0.  0.
         -6    2    1    2    0  502  0.11167356649E+03 -0.23858669578E+03  0.35392893761E+03  0.47538654073E+03  0.17700868164E+03 0.  0.
        -24    2    5    5    0    0  0.73270074313E+02 -0.49124521511E+02  0.10529678594E+03  0.16040911212E+03  0.82836874148E+02 0.  0.
          5    1    3    3  501    0 -0.53509444467E+02 -0.23389256804E+01 -0.27999840793E+02  0.60620230162E+02  0.47000000000E+01 0. -1.
        -13    1    4    4    0    0 -0.20631632041E+02  0.30441004520E+02  0.13585585689E+02  0.39203152110E+02  0.00000000000E+00 0.  1.
         14    1    4    4    0    0 -0.37532489987E+02  0.21048461694E+03 -0.92338369103E+02  0.23289232744E+03  0.00000000000E+00 0. -1.
         -5    1    5    5    0  502  0.38403492182E+02 -0.18946217426E+03  0.24863215167E+03  0.31497742861E+03  0.47000000000E+01 0.  1.
         13    1    6    6    0    0  0.14020133289E+02 -0.39938310563E+02  0.37642342258E+01  0.42494731995E+02  0.00000000000E+00 0. -1.
        -14    1    6    6    0    0  0.59249941024E+02 -0.91862109483E+01  0.10153255171E+03  0.11791438012E+03  0.00000000000E+00 0.  1.
</event>
<event>
12    1  0.8461994E-002  0.1971011E+03  0.7818608E-02  0.1152538E+00
         21   -1    0    0  501  502  0.00000000000E+00  0.00000000000E+00  0.16923743069E+04  0.16923743069E+04  0.00000000000E+00 0. -1.
         21   -1    0    0  502  503 -0.00000000000E+00 -0.00000000000E+00 -0.47635618052E+02  0.47635618052E+02  0.00000000000E+00 0. -1.
         -6    2    1    2    0  503  0.29016006844E+02 -0.92200363188E+02  0.19542634595E+03  0.27756134833E+03  0.17177313460E+03 0.  0.
        -24    2    3    3    0    0  0.25232717191E+01 -0.11686751372E+03  0.98634969210E+02  0.17411573972E+03  0.83204873679E+02 0.  0.
          6    2    1    2  501    0 -0.29016006844E+02  0.92200363188E+02  0.14493123429E+04  0.14624485766E+04  0.17001981168E+03 0.  0.
         24    2    5    5    0    0  0.25960765509E+02  0.10443693197E+03  0.93416209315E+03  0.94420727286E+03  0.85366994390E+02 0.  0.
          5    1    5    5  501    0 -0.54976772353E+02 -0.12236568785E+02  0.51515024974E+03  0.51824130376E+03  0.47000000000E+01 0. -1.
        -11    1    6    6    0    0 -0.10463282772E+02  0.10232212746E+02  0.41800384023E+03  0.41825995375E+03  0.00000000000E+00 0.  1.
         12    1    6    6    0    0  0.36424048281E+02  0.94204719227E+02  0.51615825292E+03  0.52594731911E+03  0.00000000000E+00 0. -1.
         -5    1    3    3    0  503  0.26492735125E+02  0.24667150531E+02  0.96791376740E+02  0.10344560861E+03  0.47000000000E+01 0.  1.
         11    1    4    4    0    0 -0.26449963703E+02 -0.81259222990E+02  0.95426788952E+02  0.12809736122E+03  0.00000000000E+00 0. -1.
        -12    1    4    4    0    0  0.28973235422E+02 -0.35608290729E+02  0.32081802579E+01  0.46018378503E+02  0.00000000000E+00 0.  1.
</event>
<event>
12    1  0.8461994E-002  0.2002984E+03  0.7818608E-02  0.1153149E+00
         21   -1    0    0  501  502  0.00000000000E+00  0.00000000000E+00  0.12980901498E+03  0.12980901498E+03  0.00000000000E+00 0. -1.
         21   -1    0    0  502  503 -0.00000000000E+00 -0.00000000000E+00 -0.53265376992E+03  0.53265376992E+03  0.00000000000E+00 0. -1.
         -6    2    1    2    0  503  0.61832076092E+02  0.47374370367E+01 -0.43227928266E+03  0.47642925061E+03  0.19045682891E+03 0.  0.
        -24    2    3    3    0    0 -0.18605627555E+02  0.84806288875E+01 -0.35685273389E+03  0.36599605854E+03  0.78683865789E+02 0.  0.
          6    2    1    2  501    0 -0.61832076092E+02 -0.47374370367E+01  0.29434527723E+02  0.18603353429E+03  0.17290585737E+03 0.  0.
         24    2    5    5    0    0  0.31606084447E+02  0.88043699380E+01 -0.77660530163E+01  0.84445918959E+02  0.77423124099E+02 0.  0.
          5    1    5    5  501    0 -0.93438160539E+02 -0.13541806975E+02  0.37200580739E+02  0.10158761533E+03  0.47000000000E+01 0. -1.
        -11    1    6    6    0    0  0.39378072033E+02 -0.16877383008E+02 -0.27701991106E+02  0.51018417513E+02  0.00000000000E+00 0.  1.
         12    1    6    6    0    0 -0.77719875861E+01  0.25681752946E+02  0.19935938089E+02  0.33427501446E+02  0.00000000000E+00 0. -1.
         -5    1    3    3    0  503  0.80437703646E+02 -0.37431918508E+01 -0.75426548765E+02  0.11043319207E+03  0.47000000000E+01 0.  1.
         11    1    4    4    0    0  0.22238366220E+02 -0.14837053823E+02 -0.63513075132E+02  0.68910041438E+02  0.00000000000E+00 0. -1.
        -12    1    4    4    0    0 -0.40843993774E+02  0.23317682710E+02 -0.29333965876E+03  0.29708601710E+03  0.00000000000E+00 0.  1.
</event>
<event>
12    1  0.8461994E-002  0.2148851E+03  0.7818608E-02  0.1137902E+00
         21   -1    0    0  501  502  0.00000000000E+00  0.00000000000E+00  0.52606849730E+02  0.52606849730E+02  0.00000000000E+00 0.  1.
         21   -1    0    0  502  503 -0.00000000000E+00 -0.00000000000E+00 -0.18476167195E+04  0.18476167195E+04  0.00000000000E+00 0. -1.
         -6    2    1    2    0  503  0.50480401764E+02 -0.11809280602E+03 -0.15877463512E+04  0.16022216150E+04  0.17228304006E+03 0.  0.
        -24    2    3    3    0    0  0.54375011379E+02 -0.82324236266E+02 -0.15249908028E+04  0.15297308747E+04  0.68888886619E+02 0.  0.
          6    2    1    2  501    0 -0.50480401764E+02  0.11809280602E+03 -0.20726351850E+03  0.29800195420E+03  0.17132663778E+03 0.  0.
         24    2    5    5    0    0  0.29933453240E+02  0.21086727989E+02 -0.96100177984E+02  0.12990690512E+03  0.79371897223E+02 0.  0.
          5    1    5    5  501    0 -0.80413855004E+02  0.97006078034E+02 -0.11116334052E+03  0.16809504908E+03  0.47000000000E+01 0. -1.
        -11    1    6    6    0    0 -0.14756362137E+02  0.82520052938E+01  0.58208883673E+01  0.17880955128E+02  0.00000000000E+00 0.  1.
         12    1    6    6    0    0  0.44689815378E+02  0.12834722695E+02 -0.10192106635E+03  0.11202594999E+03  0.00000000000E+00 0. -1.
         -5    1    3    3    0  503 -0.38946096148E+01 -0.35768569757E+02 -0.62755548450E+02  0.72490740290E+02  0.47000000000E+01 0.  1.
         11    1    4    4    0    0 -0.11629785698E+02  0.13689006492E+01 -0.85341033567E+02  0.86140686175E+02  0.00000000000E+00 0. -1.
        -12    1    4    4    0    0  0.66004797077E+02 -0.83693136916E+02 -0.14396497692E+04  0.14435901885E+04  0.00000000000E+00 0.  1.
</event>
<event>
12    1  0.8461994E-002  0.2228035E+03  0.7818608E-02  0.1132332E+00
         21   -1    0    0  503  502  0.00000000000E+00  0.00000000000E+00  0.15924142173E+03  0.15924142173E+03  0.00000000000E+00 0. -1.
         21   -1    0    0  501  503 -0.00000000000E+00 -0.00000000000E+00 -0.75577840086E+03  0.75577840086E+03  0.00000000000E+00 0. -1.
          6    2    1    2  501    0  0.10483273091E+03  0.94833236095E+02 -0.65127894389E+03  0.68833543925E+03  0.17221547559E+03 0.  0.
         24    2    3    3    0    0  0.86414549705E+01  0.69579603348E+02 -0.43990482164E+03  0.45468694880E+03  0.91148084764E+02 0.  0.
         -6    2    1    2    0  502 -0.10483273091E+03 -0.94833236095E+02  0.54741964760E+02  0.22668438333E+03  0.16854044856E+03 0.  0.
        -24    2    5    5    0    0 -0.88848301723E+02 -0.12542674928E+03  0.72201339076E+02  0.18771792625E+03  0.79994351785E+02 0.  0.
          5    1    3    3  501    0  0.96191275942E+02  0.25253632747E+02 -0.21137412225E+03  0.23364849045E+03  0.47000000000E+01 0. -1.
        -11    1    4    4    0    0  0.18419725761E+02 -0.17529734049E+02 -0.13761602431E+03  0.13994551805E+03  0.00000000000E+00 0.  1.
         12    1    4    4    0    0 -0.97782707906E+01  0.87109337398E+02 -0.30228879733E+03  0.31474143075E+03  0.00000000000E+00 0. -1.
         -5    1    5    5    0  502 -0.15984429190E+02  0.30593513189E+02 -0.17459374316E+02  0.38966457079E+02  0.47000000000E+01 0.  1.
         11    1    6    6    0    0 -0.57299199524E+02 -0.63835804571E+02 -0.25953805041E+01  0.85819253150E+02  0.00000000000E+00 0. -1.
        -12    1    6    6    0    0 -0.31549102199E+02 -0.61590944713E+02  0.74796719580E+02  0.10189867310E+03  0.00000000000E+00 0.  1.
</event>
<event>
12    1  0.8461994E-002  0.1847963E+03  0.7818608E-02  0.1163284E+00
         21   -1    0    0  501  502  0.00000000000E+00  0.00000000000E+00  0.14845965427E+03  0.14845965427E+03  0.00000000000E+00 0. -1.
         21   -1    0    0  502  503 -0.00000000000E+00 -0.00000000000E+00 -0.28086245003E+03  0.28086245003E+03  0.00000000000E+00 0. -1.
         -6    2    1    2    0  503 -0.59587303278E+02  0.28419428559E+02 -0.15776175044E+03  0.24297826317E+03  0.17260172606E+03 0.  0.
        -24    2    3    3    0    0  0.18512272967E+02 -0.15940403367E+02 -0.11796558073E+03  0.14462602058E+03  0.80025039105E+02 0.  0.
          6    2    1    2  501    0  0.59587303278E+02 -0.28419428559E+02  0.25358954680E+02  0.18634384113E+03  0.17240255193E+03 0.  0.
         24    2    5    5    0    0 -0.16406436541E+02 -0.54400144357E+02  0.37552648912E+02  0.10497540582E+03  0.79881709552E+02 0.  0.
          5    1    5    5  501    0  0.75993739819E+02  0.25980715797E+02 -0.12193694232E+02  0.81368435306E+02  0.47000000000E+01 0. -1.
        -11    1    6    6    0    0 -0.44012328559E+02 -0.54868676729E+02  0.25054481350E+02  0.74668492599E+02  0.00000000000E+00 0.  1.
         12    1    6    6    0    0  0.27605892018E+02  0.46853237264E+00  0.12498167561E+02  0.30306913222E+02  0.00000000000E+00 0. -1.
         -5    1    3    3    0  503 -0.78099576245E+02  0.44359831926E+02 -0.39796169711E+02  0.98352242586E+02  0.47000000000E+01 0.  1.
         11    1    4    4    0    0  0.30151048619E+02  0.17146991949E+02 -0.98680851572E+02  0.10459930943E+03  0.00000000000E+00 0. -1.
        -12    1    4    4    0    0 -0.11638775652E+02 -0.33087395316E+02 -0.19284729155E+02  0.40026711157E+02  0.00000000000E+00 0.  1.
</event>
<event>
12    1  0.8461994E-002  0.2635310E+03  0.7818608E-02  0.1105049E+00
         21   -1    0    0  503  502  0.00000000000E+00  0.00000000000E+00  0.67345338307E+02  0.67345338307E+02  0.00000000000E+00 0.  1.
         21   -1    0    0  501  503 -0.00000000000E+00 -0.00000000000E+00 -0.17442267858E+04  0.17442267858E+04  0.00000000000E+00 0.  1.
          6    2    1    2  501    0  0.20015530228E+03  0.32518294451E+01 -0.14177089864E+04  0.14419942346E+04  0.17139394130E+03 0.  0.
         24    2    3    3    0    0  0.50753514711E+02 -0.22186470716E+02 -0.80169057766E+03  0.80758996985E+03  0.80159954812E+02 0.  0.
         -6    2    1    2    0  502 -0.20015530228E+03 -0.32518294451E+01 -0.25917246106E+03  0.36957788946E+03  0.17130304252E+03 0.  0.
        -24    2    5    5    0    0 -0.29264215419E+02 -0.36215707577E+01 -0.13095247115E+03  0.15588101047E+03  0.79251685435E+02 0.  0.
          5    1    3    3  501    0  0.14940178757E+03  0.25438300161E+02 -0.61601840873E+03  0.63440426476E+03  0.47000000000E+01 0. -1.
        -11    1    4    4    0    0  0.54296819398E+02 -0.11794166971E+00 -0.73975120171E+03  0.74174119404E+03  0.00000000000E+00 0.  1.
         12    1    4    4    0    0 -0.35433046870E+01 -0.22068529046E+02 -0.61939375946E+02  0.65848775804E+02  0.00000000000E+00 0. -1.
         -5    1    5    5    0  502 -0.17089108686E+03  0.36974131263E+00 -0.12821998990E+03  0.21369687899E+03  0.47000000000E+01 0.  1.
         13    1    6    6    0    0 -0.42416523282E+01  0.30541882068E+02 -0.96446146301E+02  0.10125540633E+03  0.00000000000E+00 0. -1.
        -14    1    6    6    0    0 -0.25022563090E+02 -0.34163452825E+02 -0.34506324853E+02  0.54625604138E+02  0.00000000000E+00 0.  1.
</event>
<event>
12    1  0.8461994E-002  0.2570665E+03  0.7818608E-02  0.1109142E+00
         21   -1    0    0  501  502  0.00000000000E+00  0.00000000000E+00  0.15400798798E+03  0.15400798798E+03  0.00000000000E+00 0. -1.
         21   -1    0    0  502  503 -0.00000000000E+00 -0.00000000000E+00 -0.43044441036E+03  0.43044441036E+03  0.00000000000E+00 0. -1.
         -6    2    1    2    0  503  0.14803522714E+03 -0.12118859716E+03 -0.16603260053E+03  0.30602293069E+03  0.17170353844E+03 0.  0.
        -24    2    3    3    0    0  0.17751897723E+03 -0.11590329485E+03 -0.14022468573E+03  0.26620629591E+03  0.79096576781E+02 0.  0.
          6    2    1    2  501    0 -0.14803522714E+03  0.12118859716E+03 -0.11040382186E+03  0.27842946765E+03  0.16950769899E+03 0.  0.
         24    2    5    5    0    0 -0.67059230814E+02  0.13536742129E+03 -0.91981019550E+02  0.19405150441E+03  0.79838582289E+02 0.  0.
          5    1    5    5  501    0 -0.80975996331E+02 -0.14178824131E+02 -0.18422802312E+02  0.84377963240E+02  0.47000000000E+01 0. -1.
        -13    1    6    6    0    0 -0.12836766784E+02  0.11378677212E+02 -0.49229604006E+02  0.52132626896E+02  0.00000000000E+00 0.  1.
         14    1    6    6    0    0 -0.54222464030E+02  0.12398874408E+03 -0.42751415544E+02  0.14191887751E+03  0.00000000000E+00 0. -1.
         -5    1    3    3    0  503 -0.29483750082E+02 -0.52853023014E+01 -0.25807914795E+02  0.39816634783E+02  0.47000000000E+01 0.  1.
         11    1    4    4    0    0  0.86958973280E+02 -0.47074427374E+02 -0.20353465353E+02  0.10095607113E+03  0.00000000000E+00 0. -1.
        -12    1    4    4    0    0  0.90560003947E+02 -0.68828867481E+02 -0.11987122038E+03  0.16525022478E+03  0.00000000000E+00 0.  1.
</event>
<event>
12    1  0.8461994E-002  0.2272092E+03  0.7818608E-02  0.1128665E+00
         21   -1    0    0  503  502  0.00000000000E+00  0.00000000000E+00  0.81187419141E+03  0.81187419141E+03  0.00000000000E+00 0. -1.
         21   -1    0    0  501  503 -0.00000000000E+00 -0.00000000000E+00 -0.75577045136E+02  0.75577045136E+02  0.00000000000E+00 0. -1.
          6    2    1    2  501    0  0.27882216570E+02 -0.14640879052E+03  0.19071560552E+03  0.29644932924E+03  0.17116311132E+03 0.  0.
         24    2    3    3    0    0  0.17311795957E+02 -0.11356637007E+02  0.29249473739E+02  0.85631351660E+02  0.77772264913E+02 0.  0.
         -6    2    1    2    0  502 -0.27882216570E+02  0.14640879052E+03  0.54558154076E+03  0.59100190730E+03  0.17149660310E+03 0.  0.
        -24    2    5    5    0    0 -0.54006589223E+02  0.16367248651E+03  0.50469338346E+03  0.53928682775E+03  0.80059207832E+02 0.  0.
          5    1    3    3  501    0  0.10570420613E+02 -0.13505215352E+03  0.16146613178E+03  0.21081797758E+03  0.47000000000E+01 0. -1.
        -13    1    4    4    0    0  0.24744432625E+02 -0.36527535243E+02 -0.27981126917E+01  0.44208338710E+02  0.00000000000E+00 0.  1.
         14    1    4    4    0    0 -0.74326366680E+01  0.25170898236E+02  0.32047586430E+02  0.41423012950E+02  0.00000000000E+00 0. -1.
         -5    1    5    5    0  502  0.26124372653E+02 -0.17263695986E+02  0.40888157296E+02  0.51715079548E+02  0.47000000000E+01 0.  1.
         13    1    6    6    0    0 -0.97924562167E+01  0.13844750901E+03  0.38317930569E+03  0.40754139085E+03  0.00000000000E+00 0. -1.
        -14    1    6    6    0    0 -0.44214133006E+02  0.25224977502E+02  0.12151407777E+03  0.13174543690E+03  0.00000000000E+00 0.  1.
</event>
<event>
12    1  0.8461994E-002  0.2117463E+03  0.7818608E-02  0.1142721E+00
         21   -1    0    0  501  502  0.00000000000E+00  0.00000000000E+00  0.14732748645E+03  0.14732748645E+03  0.00000000000E+00 0. -1.
         21   -1    0    0  502  503 -0.00000000000E+00 -0.00000000000E+00 -0.45896600758E+03  0.45896600758E+03  0.00000000000E+00 0. -1.
         -6    2    1    2    0  503 -0.10694654228E+03 -0.96093958056E+01 -0.34448915244E+03  0.40436280721E+03  0.18250095977E+03 0.  0.
        -24    2    3    3    0    0 -0.51540329633E+02  0.66282747588E+02 -0.16763015121E+03  0.20403641818E+03  0.80505801912E+02 0.  0.
          6    2    1    2  501    0  0.10694654228E+03  0.96093958056E+01  0.32850631308E+02  0.20193068682E+03  0.16783007748E+03 0.  0.
         24    2    5    5    0    0  0.16448899368E+02  0.15029399327E+02 -0.32397877325E+02  0.90133291096E+02  0.81104491701E+02 0.  0.
          5    1    5    5  501    0  0.90497642916E+02 -0.54200035212E+01  0.65248508633E+02  0.11179739572E+03  0.47000000000E+01 0. -1.
        -11    1    6    6    0    0  0.12675712154E+02 -0.14441401586E+02  0.21347685785E+02  0.28721968017E+02  0.00000000000E+00 0.  1.
         12    1    6    6    0    0  0.37731872139E+01  0.29470800913E+02 -0.53745563110E+02  0.61411323079E+02  0.00000000000E+00 0. -1.
         -5    1    3    3    0  503 -0.55406212651E+02 -0.75892143393E+02 -0.17685900122E+03  0.20032638903E+03  0.47000000000E+01 0.  1.
         11    1    4    4    0    0 -0.71930543989E+02  0.40194617001E+02 -0.12998377984E+03  0.15390059589E+03  0.00000000000E+00 0. -1.
        -12    1    4    4    0    0  0.20390214356E+02  0.26088130587E+02 -0.37646371376E+02  0.50135822291E+02  0.00000000000E+00 0.  1.
</event>
<event>
12    1  0.8461994E-002  0.2154620E+03  0.7818608E-02  0.1137367E+00
         21   -1    0    0  503  502  0.00000000000E+00  0.00000000000E+00  0.61839516744E+03  0.61839516744E+03  0.00000000000E+00 0.  1.
         21   -1    0    0  501  503 -0.00000000000E+00 -0.00000000000E+00 -0.11558294571E+03  0.11558294571E+03  0.00000000000E+00 0.  1.
          6    2    1    2  501    0  0.11028991872E+03  0.65466144258E+02  0.33979853248E+02  0.21812499697E+03  0.17313059135E+03 0.  0.
         24    2    3    3    0    0  0.85344846083E+02  0.11140561170E+03  0.34017214941E+02  0.16563897299E+03  0.81142746985E+02 0.  0.
         -6    2    1    2    0  502 -0.11028991872E+03 -0.65466144258E+02  0.46883236847E+03  0.51585311618E+03  0.17277431964E+03 0.  0.
        -24    2    5    5    0    0 -0.10394814600E+02 -0.74448353066E+02  0.16118398644E+03  0.19223400539E+03  0.72959070013E+02 0.  0.
          5    1    3    3  501    0  0.24945072642E+02 -0.45939467441E+02 -0.37361693252E-01  0.52486023985E+02  0.47000000000E+01 0. -1.
        -11    1    4    4    0    0 -0.15424791420E+02  0.68020312920E+01  0.31741198481E+01  0.17154208139E+02  0.00000000000E+00 0.  1.
         12    1    4    4    0    0  0.10076963750E+03  0.10460358041E+03  0.30843095093E+02  0.14848476485E+03  0.00000000000E+00 0. -1.
         -5    1    5    5    0  502 -0.99895104125E+02  0.89822088073E+01  0.30764838203E+03  0.32361911079E+03  0.47000000000E+01 0.  1.
         13    1    6    6    0    0  0.29038746635E+02 -0.51159922791E+02  0.95380233008E+02  0.11206237261E+03  0.00000000000E+00 0. -1.
        -14    1    6    6    0    0 -0.39433561235E+02 -0.23288430275E+02  0.65803753436E+02  0.80171632780E+02  0.00000000000E+00 0.  1.
</event>
<event>
12    1  0.8461994E-002  0.2787515E+03  0.7818608E-02  0.1096838E+00
         21   -1    0    0  501  502  0.00000000000E+00  0.00000000000E+00  0.61186731283E+02  0.61186731283E+02  0.00000000000E+00 0.  1.
         21   -1    0    0  502  503 -0.00000000000E+00 -0.00000000000E+00 -0.15164800420E+04  0.15164800420E+04  0.00000000000E+00 0. -1.
         -6    2    1    2    0  503  0.17624220287E+03  0.12230484872E+03 -0.10517756540E+04  0.10872293078E+04  0.17267238124E+03 0.  0.
        -24    2    3    3    0    0  0.12810824627E+03  0.10317052955E+02 -0.64411826682E+03  0.66171223468E+03  0.80352818998E+02 0.  0.
          6    2    1    2  501    0 -0.17624220287E+03 -0.12230484872E+03 -0.40351765673E+03  0.49043746553E+03  0.17799611850E+03 0.  0.
         24    2    5    5    0    0 -0.64496849154E+02 -0.18921058156E+02 -0.50960932153E+02  0.10638855422E+03  0.64835621924E+02 0.  0.
          5    1    5    5  501    0 -0.11174535371E+03 -0.10338379056E+03 -0.35255672458E+03  0.38404891131E+03  0.47000000000E+01 0. -1.
        -11    1    6    6    0    0 -0.70421012692E+02 -0.32545201612E+02 -0.48039929940E+02  0.91247707068E+02  0.00000000000E+00 0.  1.
         12    1    6    6    0    0  0.59241635371E+01  0.13624143456E+02 -0.29210022130E+01  0.15140847151E+02  0.00000000000E+00 0. -1.
         -5    1    3    3    0  503  0.48133956601E+02  0.11198779577E+03 -0.40765738718E+03  0.42551707311E+03  0.47000000000E+01 0.  1.
         11    1    4    4    0    0  0.12742682151E+03  0.10923960690E+02 -0.64656924834E+03  0.65909689778E+03  0.00000000000E+00 0. -1.
        -12    1    4    4    0    0  0.68142475404E+00 -0.60690773478E+00  0.24509815181E+01  0.26153368992E+01  0.00000000000E+00 0.  1.
</event>
<event>
12    1  0.8461994E-002  0.1768560E+03  0.7818608E-02  0.1170965E+00
         21   -1    0    0  503  502  0.00000000000E+00  0.00000000000E+00  0.77484234879E+02  0.77484234879E+02  0.00000000000E+00 0.  1.
         21   -1    0    0  501  503 -0.00000000000E+00 -0.00000000000E+00 -0.56391784581E+03  0.56391784581E+03  0.00000000000E+00 0.  1.
          6    2    1    2  501    0  0.30841701870E+02  0.27387722768E+02 -0.41475043375E+03  0.45088354647E+03  0.17197892967E+03 0.  0.
         24    2    3    3    0    0 -0.34498614562E+02 -0.72499414492E+01 -0.31362609571E+03  0.32551470474E+03  0.79723139878E+02 0.  0.
         -6    2    1    2    0  502 -0.30841701870E+02 -0.27387722768E+02 -0.71683177182E+02  0.19051853422E+03  0.17163197854E+03 0.  0.
        -24    2    5    5    0    0 -0.50052069361E+02  0.11346658007E+02 -0.99947458587E+02  0.13864994954E+03  0.81242585721E+02 0.  0.
          5    1    3    3  501    0  0.65340316431E+02  0.34637664217E+02 -0.10112433804E+03  0.12536884174E+03  0.47000000000E+01 0. -1.
        -11    1    4    4    0    0 -0.25008104273E+02 -0.21361152577E+02 -0.30439189487E+03  0.30616356704E+03  0.00000000000E+00 0.  1.
         12    1    4    4    0    0 -0.94905102883E+01  0.14111211128E+02 -0.92342008366E+01  0.19351137696E+02  0.00000000000E+00 0. -1.
         -5    1    5    5    0  502  0.19210367491E+02 -0.38734380775E+02  0.28264281405E+02  0.51868584678E+02  0.47000000000E+01 0.  1.
         13    1    6    6    0    0 -0.68343213024E+02  0.88280775844E+01 -0.49267424062E+02  0.84711326244E+02  0.00000000000E+00 0. -1.
        -14    1    6    6    0    0  0.18291143663E+02  0.25185804228E+01 -0.50680034525E+02  0.53938623298E+02  0.00000000000E+00 0.  1.
</event>
<event>
12    1  0.8461994E-002  0.1782126E+03  0.7818608E-02  0.1170563E+00
         21   -1    0    0  501  502  0.00000000000E+00  0.00000000000E+00  0.11918264227E+03  0.11918264227E+03  0.00000000000E+00 0.  1.
         21   -1    0    0  502  503 -0.00000000000E+00 -0.00000000000E+00 -0.32768110801E+03  0.32768110801E+03  0.00000000000E+00 0. -1.
         -6    2    1    2    0  503  0.43299154429E+02 -0.19626278266E+02 -0.20453877270E+03  0.26860720984E+03  0.16749243584E+03 0.  0.
        -24    2    3    3    0    0  0.50395542412E+00  0.20990619862E+02 -0.19038676191E+03  0.20775056779E+03  0.80450725373E+02 0.  0.
          6    2    1    2  501    0 -0.43299154429E+02  0.19626278266E+02 -0.39596930337E+01  0.17825654045E+03  0.17175478878E+03 0.  0.
         24    2    5    5    0    0 -0.86327017677E+02 -0.11592619518E+02  0.20739394871E+02  0.11945049027E+03  0.79066771257E+02 0.  0.
          5    1    5    5  501    0  0.43027863248E+02  0.31218897783E+02 -0.24699087905E+02  0.58806050180E+02  0.47000000000E+01 0. -1.
        -11    1    6    6    0    0 -0.86676187789E+02 -0.49956849320E+01  0.42532228712E+02  0.96678378539E+02  0.00000000000E+00 0.  1.
         12    1    6    6    0    0  0.34917011256E+00 -0.65969345855E+01 -0.21792833841E+02  0.22772111728E+02  0.00000000000E+00 0. -1.
         -5    1    3    3    0  503  0.42795199005E+02 -0.40616898128E+02 -0.14152010788E+02  0.60856642043E+02  0.47000000000E+01 0.  1.
         11    1    4    4    0    0 -0.21397640964E+02 -0.23423207498E+02 -0.53719377382E+02  0.62388117415E+02  0.00000000000E+00 0. -1.
        -12    1    4    4    0    0  0.21901596388E+02  0.44413827360E+02 -0.13666738453E+03  0.14536245038E+03  0.00000000000E+00 0.  1.
</event>
<event>
12    1  0.8461994E-002  0.2232664E+03  0.7818608E-02  0.1132196E+00
         21   -1    0    0  503  502  0.00000000000E+00  0.00000000000E+00  0.57754091698E+03  0.57754091698E+03  0.00000000000E+00 0. -1.
         21   -1    0    0  501  503 -0.00000000000E+00 -0.00000000000E+00 -0.17994638468E+03  0.17994638468E+03  0.00000000000E+00 0.  1.
          6    2    1    2  501    0 -0.40844646015E+02  0.13173629394E+03 -0.75771109669E+02  0.23577352491E+03  0.17557094788E+03 0.  0.
         24    2    3    3    0    0  0.21972652512E+01  0.20654368183E+02 -0.81814806044E+02  0.11639841603E+03  0.80146727105E+02 0.  0.
         -6    2    1    2    0  502  0.40844646015E+02 -0.13173629394E+03  0.47336564197E+03  0.52171377675E+03  0.17055057198E+03 0.  0.
        -24    2    5    5    0    0  0.31835797727E+01 -0.15264070987E+03  0.41022730503E+03  0.44513773541E+03  0.80943438288E+02 0.  0.
          5    1    3    3  501    0 -0.43041911267E+02  0.11108192576E+03  0.60436963753E+01  0.11937510888E+03  0.47000000000E+01 0. -1.
        -13    1    4    4    0    0 -0.12020806679E+02  0.19978016588E+02  0.86141208682E+01  0.24856066026E+02  0.00000000000E+00 0.  1.
         14    1    4    4    0    0  0.14218071930E+02  0.67635159536E+00 -0.90428926912E+02  0.91542349999E+02  0.00000000000E+00 0. -1.
         -5    1    5    5    0  502  0.37661066243E+02  0.20904415929E+02  0.63138336938E+02  0.76576041339E+02  0.47000000000E+01 0.  1.
         13    1    6    6    0    0  0.31089818591E+01 -0.14430520458E+03  0.28342681775E+03  0.31806354531E+03  0.00000000000E+00 0. -1.
        -14    1    6    6    0    0  0.74597913621E-01 -0.83355052856E+01  0.12680048728E+03  0.12707419010E+03  0.00000000000E+00 0.  1.
</event>
<event>
12    1  0.8461994E-002  0.1782274E+03  0.7818608E-02  0.1169878E+00
         21   -1    0    0  501  502  0.00000000000E+00  0.00000000000E+00  0.53614278062E+03  0.53614278062E+03  0.00000000000E+00 0.  1.
         21   -1    0    0  502  503 -0.00000000000E+00 -0.00000000000E+00 -0.85473366401E+02  0.85473366401E+02  0.00000000000E+00 0.  1.
         -6    2    1    2    0  503  0.37121983566E+02 -0.27828395103E+02  0.51016921363E+02  0.18402371974E+03  0.17061518667E+03 0.  0.
        -24    2    3    3    0    0  0.44930186550E+02  0.46170158510E+02  0.26937411639E+02  0.10567407546E+03  0.79315703851E+02 0.  0.
          6    2    1    2  501    0 -0.37121983566E+02  0.27828395103E+02  0.39965249286E+03  0.43759242729E+03  0.17208299199E+03 0.  0.
         24    2    5    5    0    0 -0.74615177375E+02 -0.81661991357E+01  0.17022656006E+03  0.20230600814E+03  0.79476585698E+02 0.  0.
          5    1    5    5  501    0  0.37493193810E+02  0.35994594238E+02  0.22942593280E+03  0.23528641915E+03  0.47000000000E+01 0. -1.
        -11    1    6    6    0    0 -0.69041021330E+02  0.48234176319E+01  0.17434792420E+03  0.18758231968E+03  0.00000000000E+00 0.  1.
         12    1    6    6    0    0 -0.55741560449E+01 -0.12989616768E+02 -0.41213641374E+01  0.14723688456E+02  0.00000000000E+00 0. -1.
         -5    1    3    3    0  503 -0.78082029850E+01 -0.73998553613E+02  0.24079509723E+02  0.78349644282E+02  0.47000000000E+01 0.  1.
         11    1    4    4    0    0 -0.13234281099E+02  0.23653305382E+02  0.33349485060E+02  0.42974564634E+02  0.00000000000E+00 0. -1.
        -12    1    4    4    0    0  0.58164467650E+02  0.22516853128E+02 -0.64120734209E+01  0.62699510822E+02  0.00000000000E+00 0.  1.
</event>
<event>
12    1  0.8461994E-002  0.1732758E+03  0.7818608E-02  0.1174479E+00
         21   -1    0    0  503  502  0.00000000000E+00  0.00000000000E+00  0.63270066792E+02  0.63270066792E+02  0.00000000000E+00 0. -1.
         21   -1    0    0  501  503 -0.00000000000E+00 -0.00000000000E+00 -0.13783330589E+04  0.13783330589E+04  0.00000000000E+00 0. -1.
          6    2    1    2  501    0  0.63239041035E+00 -0.14619712726E+02 -0.12412115709E+04  0.12532456462E+04  0.17263936368E+03 0.  0.
         24    2    3    3    0    0 -0.46959484190E+02 -0.57009417887E+02 -0.79398044857E+03  0.80147176418E+03  0.80602538325E+02 0.  0.
         -6    2    1    2    0  502 -0.63239041035E+00  0.14619712726E+02 -0.73851421196E+02  0.18835747955E+03  0.17265680343E+03 0.  0.
        -24    2    5    5    0    0 -0.18081179673E+02 -0.35253238317E+02  0.99746623385E+01  0.89157309321E+02  0.79245265136E+02 0.  0.
          5    1    3    3  501    0  0.47591874601E+02  0.42389705161E+02 -0.44723112237E+03  0.45177388198E+03  0.47000000000E+01 0. -1.
        -13    1    4    4    0    0 -0.21720221992E+02 -0.29032320013E+02 -0.98334136189E+02  0.10480575360E+03  0.00000000000E+00 0.  1.
         14    1    4    4    0    0 -0.25239262198E+02 -0.27977097873E+02 -0.69564631238E+03  0.69666601057E+03  0.00000000000E+00 0. -1.
         -5    1    5    5    0  502  0.17448789262E+02  0.49872951043E+02 -0.83826083535E+02  0.99200170228E+02  0.47000000000E+01 0.  1.
         11    1    6    6    0    0 -0.48477070429E+02 -0.16172621844E+02 -0.24943614497E+01  0.51164459283E+02  0.00000000000E+00 0. -1.
        -12    1    6    6    0    0  0.30395890756E+02 -0.19080616473E+02  0.12469023788E+02  0.37992850039E+02  0.00000000000E+00 0.  1.
</event>
<event>
12    1  0.8461994E-002  0.2220855E+03  0.7818608E-02  0.1132362E+00
         21   -1    0    0  501  502  0.00000000000E+00  0.00000000000E+00  0.37335154633E+03  0.37335154633E+03  0.00000000000E+00 0. -1.
         21   -1    0    0  502  503 -0.00000000000E+00 -0.00000000000E+00 -0.25201184557E+03  0.25201184557E+03  0.00000000000E+00 0.  1.
         -6    2    1    2    0  503  0.12430011783E+03  0.65850688340E+02 -0.15507273285E+03  0.27086808625E+03  0.17185789254E+03 0.  0.
        -24    2    3    3    0    0  0.32665078838E+02 -0.12775365025E+02 -0.17060058913E+02  0.87432471373E+02  0.78250713180E+02 0.  0.
          6    2    1    2  501    0 -0.12430011783E+03 -0.65850688340E+02  0.27641243360E+03  0.35449530565E+03  0.17168650451E+03 0.  0.
         24    2    5    5    0    0 -0.79315851202E+02 -0.61725768811E+02  0.75194335924E+02  0.14821536955E+03  0.78819622102E+02 0.  0.
          5    1    5    5  501    0 -0.44984266629E+02 -0.41249195293E+01  0.20121809768E+03  0.20627993610E+03  0.47000000000E+01 0. -1.
        -11    1    6    6    0    0 -0.16211547083E+02 -0.57283430031E+02  0.56926485409E+02  0.82370081680E+02  0.00000000000E+00 0.  1.
         12    1    6    6    0    0 -0.63104304119E+02 -0.44423387804E+01  0.18267850515E+02  0.65845287869E+02  0.00000000000E+00 0. -1.
         -5    1    3    3    0  503  0.91635038993E+02  0.78626053365E+02 -0.13801267394E+03  0.18343561488E+03  0.47000000000E+01 0.  1.
         13    1    4    4    0    0 -0.12530436427E+02 -0.14301186671E+01  0.22837081050E+02  0.26088107393E+02  0.00000000000E+00 0. -1.
        -14    1    4    4    0    0  0.45195515264E+02 -0.11345246358E+02 -0.39897139963E+02  0.61344363980E+02  0.00000000000E+00 0.  1.
</event>
<event>
12    1  0.8461994E-002  0.1815970E+03  0.7818608E-02  0.1166614E+00
         21   -1    0    0  503  502  0.00000000000E+00  0.00000000000E+00  0.37343372033E+03  0.37343372033E+03  0.00000000000E+00 0.  1.
         21   -1    0    0  501  503 -0.00000000000E+00 -0.00000000000E+00 -0.11353251472E+03  0.11353251472E+03  0.00000000000E+00 0.  1.
          6    2    1    2  501    0  0.48185866939E+02  0.33559244103E+02  0.13197546244E+02  0.18063278498E+03  0.17031126547E+03 0.  0.
         24    2    3    3    0    0 -0.39289140391E+02  0.32875041018E+02  0.65998685865E+00  0.92136313656E+02  0.76578455435E+02 0.  0.
         -6    2    1    2    0  502 -0.48185866939E+02 -0.33559244103E+02  0.24670365937E+03  0.30633345007E+03  0.17184116633E+03 0.  0.
        -24    2    5    5    0    0 -0.83110567330E+02 -0.32552457278E+01  0.22900829681E+03  0.25660133900E+03  0.80507665113E+02 0.  0.
          5    1    3    3  501    0  0.87475007330E+02  0.68420308513E+00  0.12537559386E+02  0.88496471323E+02  0.47000000000E+01 0. -1.
        -11    1    4    4    0    0 -0.17185171373E+02 -0.23623635247E+02  0.97354369539E+01  0.30792612590E+02  0.00000000000E+00 0.  1.
         12    1    4    4    0    0 -0.22103969017E+02  0.56498676265E+02 -0.90754500953E+01  0.61343701066E+02  0.00000000000E+00 0. -1.
         -5    1    5    5    0  502  0.34924700391E+02 -0.30303998375E+02  0.17695362554E+02  0.49732111064E+02  0.47000000000E+01 0.  1.
         13    1    6    6    0    0 -0.36862820572E+02 -0.27652033434E+02  0.41756477351E+02  0.62186058681E+02  0.00000000000E+00 0. -1.
        -14    1    6    6    0    0 -0.46247746758E+02  0.24396787706E+02  0.18725181946E+03  0.19441528032E+03  0.00000000000E+00 0.  1.
</event>
<event>
12    1  0.8461994E-002  0.4819590E+03  0.7818608E-02  0.1018635E+00
         21   -1    0    0  501  502  0.00000000000E+00  0.00000000000E+00  0.27080705315E+03  0.27080705315E+03  0.00000000000E+00 0.  1.
         21   -1    0    0  502  503 -0.00000000000E+00 -0.00000000000E+00 -0.10879128870E+04  0.10879128870E+04  0.00000000000E+00 0. -1.
         -6    2    1    2    0  503 -0.18971306319E+03  0.40720684453E+03 -0.72185891477E+03  0.86796589444E+03  0.17457388267E+03 0.  0.
        -24    2    3    3    0    0 -0.80465363387E+02  0.28465099216E+03 -0.55415967148E+03  0.63323174043E+03  0.79928928110E+02 0.  0.
          6    2    1    2  501    0  0.18971306319E+03 -0.40720684453E+03 -0.95246919070E+02  0.49075404569E+03  0.17308696426E+03 0.  0.
         24    2    5    5    0    0  0.14270850086E+02 -0.11957578885E+03 -0.10715735511E+02  0.14336491903E+03  0.77049637120E+02 0.  0.
          5    1    5    5  501    0  0.17544221310E+03 -0.28763105568E+03 -0.84531183559E+02  0.34738912666E+03  0.47000000000E+01 0. -1.
        -13    1    6    6    0    0  0.31486702875E+02 -0.15971326403E+02  0.91622570400E+01  0.36475233777E+02  0.00000000000E+00 0.  1.
         14    1    6    6    0    0 -0.17215852789E+02 -0.10360446245E+03 -0.19877992551E+02  0.10688968526E+03  0.00000000000E+00 0. -1.
         -5    1    3    3    0  503 -0.10924769980E+03  0.12255585236E+03 -0.16769924329E+03  0.23473415401E+03  0.47000000000E+01 0.  1.
         13    1    4    4    0    0 -0.17253009779E+02  0.19162686689E+03 -0.31836215648E+03  0.37198519478E+03  0.00000000000E+00 0. -1.
        -14    1    4    4    0    0 -0.63212353608E+02  0.93024125275E+02 -0.23579751500E+03  0.26124654565E+03  0.00000000000E+00 0.  1.
</event>
<event>
12    1  0.8461994E-002  0.2256714E+03  0.7818608E-02  0.1130411E+00
         21   -1    0    0  503  502  0.00000000000E+00  0.00000000000E+00  0.51677135394E+03  0.51677135394E+03  0.00000000000E+00 0.  1.
         21   -1    0    0  501  503 -0.00000000000E+00 -0.00000000000E+00 -0.10218319241E+03  0.10218319241E+03  0.00000000000E+00 0.  1.
          6    2    1    2  501    0 -0.11828316256E+03 -0.76642785753E+02  0.27927087780E+03  0.35905403901E+03  0.17624572785E+03 0.  0.
         24    2    3    3    0    0 -0.12907444405E+03 -0.17494749332E+02  0.14159279187E+03  0.20874672943E+03  0.80996296056E+02 0.  0.
         -6    2    1    2    0  502  0.11828316256E+03  0.76642785753E+02  0.13531728373E+03  0.25990050734E+03  0.17138402285E+03 0.  0.
        -24    2    5    5    0    0 -0.87990727580E+01  0.16507226352E+02  0.40970047034E+02  0.90520251379E+02  0.78520436529E+02 0.  0.
          5    1    3    3  501    0  0.10791281490E+02 -0.59148036421E+02  0.13767808593E+03  0.15030730958E+03  0.47000000000E+01 0. -1.
        -11    1    4    4    0    0 -0.44514600673E+02 -0.97040258867E+01  0.23098552327E+01  0.45618562260E+02  0.00000000000E+00 0.  1.
         12    1    4    4    0    0 -0.84559843375E+02 -0.77907234455E+01  0.13928293664E+03  0.16312816717E+03  0.00000000000E+00 0. -1.
         -5    1    5    5    0  502  0.12708223532E+03  0.60135559401E+02  0.94347236700E+02  0.16938025596E+03  0.47000000000E+01 0.  1.
         11    1    6    6    0    0 -0.21969213592E+02  0.19921962011E+02 -0.14778757270E+02  0.33135216653E+02  0.00000000000E+00 0. -1.
        -12    1    6    6    0    0  0.13170140834E+02 -0.34147356596E+01  0.55748804304E+02  0.57385034726E+02  0.00000000000E+00 0.  1.
</event>
<event>
12    1  0.8461994E-002  0.2749861E+03  0.7818608E-02  0.1098573E+00
         21   -1    0    0  503  502  0.00000000000E+00  0.00000000000E+00  0.81765521103E+03  0.81765521103E+03  0.00000000000E+00 0. -1.
         21   -1    0    0  501  503 -0.00000000000E+00 -0.00000000000E+00 -0.12115158560E+03  0.12115158560E+03  0.00000000000E+00 0. -1.
          6    2    1    2  501    0 -0.21268029094E+03  0.30414693624E+02  0.11843096959E+03  0.29866198925E+03  0.17033827968E+03 0.  0.
         24    2    3    3    0    0 -0.10222338885E+03 -0.47024836763E+02  0.67473995209E+02  0.15438339998E+03  0.81366686416E+02 0.  0.
         -6    2    1    2    0  502  0.21268029094E+03 -0.30414693624E+02  0.57807265585E+03  0.64014480738E+03  0.17163746451E+03 0.  0.
        -24    2    5    5    0    0  0.73489382291E+02  0.31700842886E+02  0.16933720744E+03  0.20388891261E+03  0.80560325931E+02 0.  0.
          5    1    3    3  501    0 -0.11045690209E+03  0.77439530387E+02  0.50956974379E+02  0.14427858928E+03  0.47000000000E+01 0. -1.
        -11    1    4    4    0    0 -0.30760937064E+02  0.22841776473E+02  0.25265666431E+02  0.45894835240E+02  0.00000000000E+00 0.  1.
         12    1    4    4    0    0 -0.71462451789E+02 -0.69866613236E+02  0.42208328778E+02  0.10848856474E+03  0.00000000000E+00 0. -1.
         -5    1    5    5    0  502  0.13919090865E+03 -0.62115536510E+02  0.40873544841E+03  0.43625589477E+03  0.47000000000E+01 0.  1.
         11    1    6    6    0    0  0.44967940081E+02 -0.16013010810E+02  0.12153741471E+03  0.13057517116E+03  0.00000000000E+00 0. -1.
        -12    1    6    6    0    0  0.28521442210E+02  0.47713853696E+02  0.47799792731E+02  0.73313741450E+02  0.00000000000E+00 0.  1.
</event>
<event>
12    1  0.8461994E-002  0.2266660E+03  0.7818608E-02  0.1129556E+00
         21   -1    0    0  503  502  0.00000000000E+00  0.00000000000E+00  0.10134329459E+04  0.10134329459E+04  0.00000000000E+00 0.  1.
         21   -1    0    0  501  503 -0.00000000000E+00 -0.00000000000E+00 -0.16202046142E+03  0.16202046142E+03  0.00000000000E+00 0.  1.
          6    2    1    2  501    0 -0.13917070049E+03  0.29655484090E+02 -0.63826722594E+02  0.23256408711E+03  0.17252325200E+03 0.  0.
         24    2    3    3    0    0 -0.71886130537E+02  0.48636896733E+02  0.23330029752E+02  0.12073431978E+03  0.80618373821E+02 0.  0.
         -6    2    1    2    0  502  0.13917070049E+03 -0.29655484090E+02  0.91523920710E+03  0.94288932024E+03  0.17643563242E+03 0.  0.
        -24    2    5    5    0    0  0.15421893014E+03 -0.46646410602E+02  0.89247534121E+03  0.91040202442E+03  0.79751146500E+02 0.  0.
          5    1    3    3  501    0 -0.67284569958E+02 -0.18981412643E+02 -0.87156752346E+02  0.11182976732E+03  0.47000000000E+01 0. -1.
        -13    1    4    4    0    0 -0.54960183249E+02 -0.10226816704E+02  0.22130810651E+01  0.55947361425E+02  0.00000000000E+00 0.  1.
         14    1    4    4    0    0 -0.16925947288E+02  0.58863713437E+02  0.21116948687E+02  0.64786958356E+02  0.00000000000E+00 0. -1.
         -5    1    5    5    0  502 -0.15048229642E+02  0.16990926513E+02  0.22763865896E+02  0.32487295819E+02  0.47000000000E+01 0.  1.
         11    1    6    6    0    0  0.51214011080E+01 -0.27583482703E+02  0.10343311569E+03  0.10717036292E+03  0.00000000000E+00 0. -1.
        -12    1    6    6    0    0  0.14909752903E+03 -0.19062927899E+02  0.78904222552E+03  0.80323166150E+03  0.00000000000E+00 0.  1.
</event>
<event>
12    1  0.8461994E-002  0.2200197E+03  0.7818608E-02  0.1134215E+00
         21   -1    0    0  501  502  0.00000000000E+00  0.00000000000E+00  0.10805469365E+04  0.10805469365E+04  0.00000000000E+00 0. -1.
         21   -1    0    0  502  503 -0.00000000000E+00 -0.00000000000E+00 -0.45028308255E+02  0.45028308255E+02  0.00000000000E+00 0.  1.
         -6    2    1    2    0  503 -0.12813891427E+03 -0.40390857886E+02  0.45041582956E+03  0.50047209340E+03  0.17189209990E+03 0.  0.
        -24    2    3    3    0    0 -0.15917198573E+03 -0.30492562293E+02  0.33664535841E+03  0.38203714128E+03  0.79729308181E+02 0.  0.
          6    2    1    2  501    0  0.12813891427E+03  0.40390857886E+02  0.58510279864E+03  0.62510315131E+03  0.17423450302E+03 0.  0.
         24    2    5    5    0    0  0.27154671538E+02 -0.10492882103E+02  0.33381194851E+03  0.34950171148E+03  0.99365751626E+02 0.  0.
          5    1    5    5  501    0  0.10098424273E+03  0.50883739989E+02  0.25129085013E+03  0.27560143983E+03  0.47000000000E+01 0. -1.
        -11    1    6    6    0    0  0.28227817691E+02 -0.25774568595E+02  0.40134106147E+02  0.55424584384E+02  0.00000000000E+00 0.  1.
         12    1    6    6    0    0 -0.10731461529E+01  0.15281686492E+02  0.29367784237E+03  0.29407712710E+03  0.00000000000E+00 0. -1.
         -5    1    3    3    0  503  0.31033071455E+02 -0.98982955933E+01  0.11377047114E+03  0.11843495212E+03  0.47000000000E+01 0.  1.
         11    1    4    4    0    0 -0.12551794694E+03 -0.23734831342E+02  0.31860421250E+03  0.34325900053E+03  0.00000000000E+00 0. -1.
        -12    1    4    4    0    0 -0.33654038790E+02 -0.67577309511E+01  0.18041145916E+02  0.38778140756E+02  0.00000000000E+00 0.  1.
</event>
<event>
12    1  0.8461994E-002  0.1800861E+03  0.7818608E-02  0.1167829E+00
         21   -1    0    0  501  502  0.00000000000E+00  0.00000000000E+00  0.23170015488E+03  0.23170015488E+03  0.00000000000E+00 0.  1.
         21   -1    0    0  502  503 -0.00000000000E+00 -0.00000000000E+00 -0.33446598220E+03  0.33446598220E+03  0.00000000000E+00 0.  1.
         -6    2    1    2    0  503 -0.10093589965E+02  0.52497032887E+02 -0.26742078727E+03  0.32215328357E+03  0.17149647702E+03 0.  0.
        -24    2    3    3    0    0 -0.65225594166E+02  0.60836337999E+01 -0.12362373670E+03  0.16123894842E+03  0.80148496422E+02 0.  0.
          6    2    1    2  501    0  0.10093589965E+02 -0.52497032887E+02  0.16465495996E+03  0.24401285350E+03  0.17196859544E+03 0.  0.
         24    2    5    5    0    0 -0.11600841434E+02  0.21278163152E+02  0.13649638341E+03  0.16198588637E+03  0.83790363106E+02 0.  0.
          5    1    5    5  501    0  0.21694431398E+02 -0.73775196039E+02  0.28158576549E+02  0.82026967136E+02  0.47000000000E+01 0. -1.
        -11    1    6    6    0    0  0.35355033428E+02  0.97258904948E+01  0.77248103854E+02  0.85509302907E+02  0.00000000000E+00 0.  1.
         12    1    6    6    0    0 -0.46955874862E+02  0.11552272657E+02  0.59248279554E+02  0.76476583460E+02  0.00000000000E+00 0. -1.
         -5    1    3    3    0  503  0.55132004201E+02  0.46413399087E+02 -0.14379705057E+03  0.16091433515E+03  0.47000000000E+01 0.  1.
         11    1    4    4    0    0 -0.67174228754E+02 -0.24126171924E+02 -0.99899502854E+02  0.12277768466E+03  0.00000000000E+00 0. -1.
        -12    1    4    4    0    0  0.19486345880E+01  0.30209805724E+02 -0.23724233846E+02  0.38461263762E+02  0.00000000000E+00 0.  1.
</event>
<event>
12    1  0.8461994E-002  0.1992191E+03  0.7818608E-02  0.1150505E+00
         21   -1    0    0  503  502  0.00000000000E+00  0.00000000000E+00  0.11746226903E+03  0.11746226903E+03  0.00000000000E+00 0. -1.
         21   -1    0    0  501  503 -0.00000000000E+00 -0.00000000000E+00 -0.33727346016E+03  0.33727346016E+03  0.00000000000E+00 0.  1.
          6    2    1    2  501    0  0.99060463236E+02  0.16273961841E+02 -0.10372339633E+03  0.22416115425E+03  0.17149887148E+03 0.  0.
         24    2    3    3    0    0  0.45221074776E+01  0.18432261156E+02 -0.10345587855E+03  0.12948105850E+03  0.75511773901E+02 0.  0.
         -6    2    1    2    0  502 -0.99060463236E+02 -0.16273961841E+02 -0.11608779481E+03  0.23057457494E+03  0.17207684707E+03 0.  0.
        -24    2    5    5    0    0 -0.21494000570E+02 -0.16763836253E+02 -0.12743095258E+03  0.15204080300E+03  0.78324580010E+02 0.  0.
          5    1    3    3  501    0  0.94538355758E+02 -0.21582993150E+01 -0.26751778460E+00  0.94680095750E+02  0.47000000000E+01 0. -1.
        -13    1    4    4    0    0  0.74723595713E+01  0.45873840369E+02 -0.82998858224E+02  0.95126525503E+02  0.00000000000E+00 0.  1.
         14    1    4    4    0    0 -0.29502520937E+01 -0.27441579213E+02 -0.20457020322E+02  0.34354532998E+02  0.00000000000E+00 0. -1.
         -5    1    5    5    0  502 -0.77566462666E+02  0.48987441149E+00  0.11343157776E+02  0.78533771944E+02  0.47000000000E+01 0.  1.
         11    1    6    6    0    0  0.98398152460E+01 -0.28690792303E+02 -0.13357034094E+02  0.33142025992E+02  0.00000000000E+00 0. -1.
        -12    1    6    6    0    0 -0.31333815816E+02  0.11926956050E+02 -0.11407391849E+03  0.11889877701E+03  0.00000000000E+00 0.  1.
</event>
<event>
12    1  0.8461994E-002  0.1819446E+03  0.7818608E-02  0.1166068E+00
         21   -1    0    0  503  502  0.00000000000E+00  0.00000000000E+00  0.24552313885E+02  0.24552313885E+02  0.00000000000E+00 0.  1.
         21   -1    0    0  501  503 -0.00000000000E+00 -0.00000000000E+00 -0.14724540533E+04  0.14724540533E+04  0.00000000000E+00 0.  1.
          6    2    1    2  501    0  0.28865192274E+02 -0.48463362476E+02 -0.94388025236E+03  0.96115049622E+03  0.17239039641E+03 0.  0.
         24    2    3    3    0    0 -0.38983453636E+02 -0.48631199716E+02 -0.71895535959E+03  0.72616801963E+03  0.80860870656E+02 0.  0.
         -6    2    1    2    0  502 -0.28865192274E+02  0.48463362476E+02 -0.50402148701E+03  0.53585587091E+03  0.17297964677E+03 0.  0.
        -24    2    5    5    0    0 -0.46105437690E+01 -0.29412644634E+02 -0.15032463448E+03  0.17284552127E+03  0.79948218954E+02 0.  0.
          5    1    3    3  501    0  0.67848645910E+02  0.16783723956E+00 -0.22492489277E+03  0.23498247660E+03  0.47000000000E+01 0. -1.
        -11    1    4    4    0    0  0.87679705914E+01 -0.47157949174E+02 -0.23402440244E+03  0.23888945229E+03  0.00000000000E+00 0.  1.
         12    1    4    4    0    0 -0.47751424227E+02 -0.14732505417E+01 -0.48493095715E+03  0.48727856733E+03  0.00000000000E+00 0. -1.
         -5    1    5    5    0  502 -0.24254648505E+02  0.77876007110E+02 -0.35369685253E+03  0.36301034965E+03  0.47000000000E+01 0.  1.
         11    1    6    6    0    0 -0.21440418620E+02 -0.31571081201E+02 -0.15111495442E+03  0.15585940513E+03  0.00000000000E+00 0. -1.
        -12    1    6    6    0    0  0.16829874851E+02  0.21584365663E+01  0.79031993975E+00  0.16986116140E+02  0.00000000000E+00 0.  1.
</event>
<event>
12    1  0.8461994E-002  0.2095483E+03  0.7818608E-02  0.1142252E+00
         21   -1    0    0  501  502  0.00000000000E+00  0.00000000000E+00  0.48204444317E+02  0.48204444317E+02  0.00000000000E+00 0.  1.
         21   -1    0    0  502  503 -0.00000000000E+00 -0.00000000000E+00 -0.90790289256E+03  0.90790289256E+03  0.00000000000E+00 0.  1.
         -6    2    1    2    0  503 -0.22376813074E+02  0.11686216222E+03 -0.46368969070E+03  0.50884046944E+03  0.17249060077E+03 0.  0.
        -24    2    3    3    0    0  0.14127444107E+02 -0.19058302955E+02 -0.17220504521E+03  0.18512404693E+03  0.63667350872E+02 0.  0.
          6    2    1    2  501    0  0.22376813074E+02 -0.11686216222E+03 -0.39600875754E+03  0.44726686744E+03  0.17049113742E+03 0.  0.
         24    2    5    5    0    0  0.36677951887E+02 -0.14103745250E+03 -0.25820168500E+03  0.30654783364E+03  0.77888567907E+02 0.  0.
          5    1    5    5  501    0 -0.14301138812E+02  0.24175290278E+02 -0.13780707254E+03  0.14071903380E+03  0.47000000000E+01 0. -1.
        -11    1    6    6    0    0  0.17375381969E+02 -0.12537669762E+03 -0.25026857475E+03  0.28045602100E+03  0.00000000000E+00 0.  1.
         12    1    6    6    0    0  0.19302569917E+02 -0.15660754879E+02 -0.79331102471E+01  0.26091812643E+02  0.00000000000E+00 0. -1.
         -5    1    3    3    0  503 -0.36504257182E+02  0.13592046517E+03 -0.29148464549E+03  0.32371642251E+03  0.47000000000E+01 0.  1.
         13    1    4    4    0    0  0.35780973978E+02 -0.13375701248E+02 -0.63227554549E+02  0.73870908597E+02  0.00000000000E+00 0. -1.
        -14    1    4    4    0    0 -0.21653529871E+02 -0.56826017063E+01 -0.10897749066E+03  0.11125313833E+03  0.00000000000E+00 0.  1.
</event>
<event>
12    1  0.8461994E-002  0.2249611E+03  0.7818608E-02  0.1131929E+00
         21   -1    0    0  501  502  0.00000000000E+00  0.00000000000E+00  0.20115545212E+04  0.20115545212E+04  0.00000000000E+00 0.  1.
         21   -1    0    0  502  503 -0.00000000000E+00 -0.00000000000E+00 -0.34539017416E+02  0.34539017416E+02  0.00000000000E+00 0.  1.
         -6    2    1    2    0  503 -0.56548622624E+02  0.13229061058E+03  0.41309745430E+03  0.46607861291E+03  0.16087639446E+03 0.  0.
        -24    2    3    3    0    0 -0.21657038091E+01  0.95293065112E+02  0.36300056844E+03  0.38326491717E+03  0.77698941502E+02 0.  0.
          6    2    1    2  501    0  0.56548622624E+02 -0.13229061058E+03  0.15639180495E+04  0.15800149257E+04  0.17294203531E+03 0.  0.
         24    2    5    5    0    0  0.38220916785E+02 -0.62503728747E+02  0.39956075282E+03  0.41341468656E+03  0.76781203966E+02 0.  0.
          5    1    5    5  501    0  0.18327705839E+02 -0.69786881838E+02  0.11643572966E+04  0.11666002391E+04  0.47000000000E+01 0. -1.
        -11    1    6    6    0    0  0.45836902527E+02 -0.76166143258E+02  0.36140580402E+03  0.37217799262E+03  0.00000000000E+00 0.  1.
         12    1    6    6    0    0 -0.76159857419E+01  0.13662414512E+02  0.38154948803E+02  0.41236693942E+02  0.00000000000E+00 0. -1.
         -5    1    3    3    0  503 -0.54382918815E+02  0.36997545472E+02  0.50096885851E+02  0.82813695738E+02  0.47000000000E+01 0.  1.
         11    1    4    4    0    0 -0.23076180141E+02 -0.17615945463E+01  0.83829775126E+02  0.86965766270E+02  0.00000000000E+00 0. -1.
        -12    1    4    4    0    0  0.20910476332E+02  0.97054659659E+02  0.27917079332E+03  0.29629915090E+03  0.00000000000E+00 0.  1.
</event>
<event>
12    1  0.8461994E-002  0.1794077E+03  0.7818608E-02  0.1169205E+00
         21   -1    0    0  501  502  0.00000000000E+00  0.00000000000E+00  0.52849996682E+03  0.52849996682E+03  0.00000000000E+00 0.  1.
         21   -1    0    0  502  503 -0.00000000000E+00 -0.00000000000E+00 -0.81826814533E+02  0.81826814533E+02  0.00000000000E+00 0.  1.
         -6    2    1    2    0  503 -0.38621660280E+02  0.33369243882E+02  0.66430444243E+02  0.19131163078E+03  0.17199417743E+03 0.  0.
        -24    2    3    3    0    0 -0.48933009548E+02  0.51579044823E+02 -0.15068870700E+02  0.10703738139E+03  0.78581759094E+02 0.  0.
          6    2    1    2  501    0  0.38621660280E+02 -0.33369243882E+02  0.38024270804E+03  0.41901515057E+03  0.16847563714E+03 0.  0.
         24    2    5    5    0    0  0.69049904726E+02 -0.62299612257E+02  0.21119521347E+03  0.24476822895E+03  0.81602308056E+02 0.  0.
          5    1    5    5  501    0 -0.30428244446E+02  0.28930368374E+02  0.16904749457E+03  0.17424692162E+03  0.47000000000E+01 0. -1.
        -11    1    6    6    0    0  0.24266298568E+02  0.18129909698E+02  0.69250136620E+02  0.75585238596E+02  0.00000000000E+00 0.  1.
         12    1    6    6    0    0  0.44783606158E+02 -0.80429521955E+02  0.14194507685E+03  0.16918299035E+03  0.00000000000E+00 0. -1.
         -5    1    3    3    0  503  0.10311349268E+02 -0.18209800941E+02  0.81499314943E+02  0.84274249389E+02  0.47000000000E+01 0.  1.
         13    1    4    4    0    0  0.35694668399E+01 -0.14151806890E+02  0.11753898559E+02  0.18739500076E+02  0.00000000000E+00 0. -1.
        -14    1    4    4    0    0 -0.52502476388E+02  0.65730851713E+02 -0.26822769258E+02  0.88297881314E+02  0.00000000000E+00 0.  1.
</event>
<event>
12    1  0.8461994E-002  0.2036498E+03  0.7818608E-02  0.1147094E+00
         21   -1    0    0  501  502  0.00000000000E+00  0.00000000000E+00  0.45470241223E+02  0.45470241223E+02  0.00000000000E+00 0. -1.
         21   -1    0    0  502  503 -0.00000000000E+00 -0.00000000000E+00 -0.15929996351E+04  0.15929996351E+04  0.00000000000E+00 0. -1.
         -6    2    1    2    0  503  0.38268263044E+02  0.10069086042E+03 -0.23271539071E+03  0.30797781836E+03  0.17056017764E+03 0.  0.
        -24    2    3    3    0    0 -0.52275406345E+01  0.12153200842E+03 -0.13328171285E+03  0.19736414524E+03  0.79945197430E+02 0.  0.
          6    2    1    2  501    0 -0.38268263044E+02 -0.10069086042E+03 -0.13148140032E+04  0.13304920580E+04  0.17282981243E+03 0.  0.
         24    2    5    5    0    0 -0.46910649457E+02  0.91719045108E+01 -0.45416465837E+03  0.46280322972E+03  0.75077024889E+02 0.  0.
          5    1    5    5  501    0  0.86423864131E+01 -0.10986276493E+03 -0.86064934480E+03  0.86768882824E+03  0.47000000000E+01 0. -1.
        -13    1    6    6    0    0 -0.63616367640E+02  0.74645750924E+01 -0.25461383259E+03  0.26254707360E+03  0.00000000000E+00 0.  1.
         14    1    6    6    0    0  0.16705718183E+02  0.17073294184E+01 -0.19955082578E+03  0.20025615612E+03  0.00000000000E+00 0. -1.
         -5    1    3    3    0  503  0.43495803678E+02 -0.20841148008E+02 -0.99433677862E+02  0.11061367312E+03  0.47000000000E+01 0.  1.
         13    1    4    4    0    0  0.23434889838E+02  0.30134394698E+01 -0.21629047723E+02  0.32032648729E+02  0.00000000000E+00 0. -1.
        -14    1    4    4    0    0 -0.28662430473E+02  0.11851856895E+03 -0.11165266513E+03  0.16533149651E+03  0.00000000000E+00 0.  1.
</event>
<event>
12    1  0.8461994E-002  0.2074097E+03  0.7818608E-02  0.1144040E+00
         21   -1    0    0  503  502  0.00000000000E+00  0.00000000000E+00  0.55405008142E+03  0.55405008142E+03  0.00000000000E+00 0. -1.
         21   -1    0    0  501  503 -0.00000000000E+00 -0.00000000000E+00 -0.26959616800E+03  0.26959616800E+03  0.00000000000E+00 0. -1.
          6    2    1    2  501    0  0.10231731187E+03 -0.54564554769E+02 -0.20614446529E+03  0.29100609394E+03  0.16953726197E+03 0.  0.
         24    2    3    3    0    0 -0.95403392998E+01 -0.23890644356E+02 -0.12027994511E+03  0.14661832185E+03  0.79799035979E+02 0.  0.
         -6    2    1    2    0  502 -0.10231731187E+03  0.54564554769E+02  0.49059837871E+03  0.53264015548E+03  0.17196698255E+03 0.  0.
        -24    2    5    5    0    0 -0.93308467565E+02  0.43195352801E+02  0.49857090844E+03  0.51543349225E+03  0.80786295637E+02 0.  0.
          5    1    3    3  501    0  0.11185765117E+03 -0.30673910413E+02 -0.85864520180E+02  0.14438777210E+03  0.47000000000E+01 0. -1.
        -11    1    4    4    0    0 -0.18104232039E+02 -0.33537575073E+01  0.52384522689E+01  0.19142943591E+02  0.00000000000E+00 0.  1.
         12    1    4    4    0    0  0.85638927393E+01 -0.20536886848E+02 -0.12551839738E+03  0.12747537825E+03  0.00000000000E+00 0. -1.
         -5    1    5    5    0  502 -0.90088443050E+01  0.11369201968E+02 -0.79725297330E+01  0.17206663228E+02  0.47000000000E+01 0.  1.
         13    1    6    6    0    0 -0.25446611295E+02  0.56097316679E+02  0.22572555172E+03  0.23397962233E+03  0.00000000000E+00 0. -1.
        -14    1    6    6    0    0 -0.67861856271E+02 -0.12901963878E+02  0.27284535672E+03  0.28145386992E+03  0.00000000000E+00 0.  1.
</event>
<event>
12    1  0.8461994E-002  0.2268407E+03  0.7818608E-02  0.1129525E+00
         21   -1    0    0  501  502  0.00000000000E+00  0.00000000000E+00  0.15125453533E+04  0.15125453533E+04  0.00000000000E+00 0. -1.
         21   -1    0    0  502  503 -0.00000000000E+00 -0.00000000000E+00 -0.50056748721E+02  0.50056748721E+02  0.00000000000E+00 0.  1.
         -6    2    1    2    0  503  0.42880753650E+02  0.13746087425E+03  0.27790713708E+03  0.35649682123E+03  0.17065566420E+03 0.  0.
        -24    2    3    3    0    0  0.48136659264E+02  0.38772092660E+02  0.21855910610E+03  0.24112187188E+03  0.80939861051E+02 0.  0.
          6    2    1    2  501    0 -0.42880753650E+02 -0.13746087425E+03  0.11845814675E+04  0.12061052808E+04  0.17527819097E+03 0.  0.
         24    2    5    5    0    0 -0.82375481454E+02 -0.38454496576E+02  0.63851015522E+03  0.64970788285E+03  0.78489785739E+02 0.  0.
          5    1    5    5  501    0  0.39494727804E+02 -0.99006377675E+02  0.54607131227E+03  0.55639739793E+03  0.47000000000E+01 0. -1.
        -13    1    6    6    0    0 -0.42019254879E+02 -0.44379270569E+02  0.53454832009E+03  0.53803070911E+03  0.00000000000E+00 0.  1.
         14    1    6    6    0    0 -0.40356226575E+02  0.59247739935E+01  0.10396183513E+03  0.11167717374E+03  0.00000000000E+00 0. -1.
         -5    1    3    3    0  503 -0.52559056140E+01  0.98688781591E+02  0.59348030985E+02  0.11537494935E+03  0.47000000000E+01 0.  1.
         13    1    4    4    0    0 -0.13041307099E+02  0.30781088799E+02  0.12230498623E+03  0.12679140655E+03  0.00000000000E+00 0. -1.
        -14    1    4    4    0    0  0.61177966363E+02  0.79910038616E+01  0.96254119864E+02  0.11433046533E+03  0.00000000000E+00 0.  1.
</event>
<event>
12    1  0.8461994E-002  0.2150961E+03  0.7818608E-02  0.1137677E+00
         21   -1    0    0  503  502  0.00000000000E+00  0.00000000000E+00  0.53674563072E+02  0.53674563072E+02  0.00000000000E+00 0. -1.
         21   -1    0    0  501  503 -0.00000000000E+00 -0.00000000000E+00 -0.13039994080E+04  0.13039994080E+04  0.00000000000E+00 0.  1.
          6    2    1    2  501    0 -0.71300786969E+02  0.10855193703E+03 -0.10207561370E+04  0.10430820071E+04  0.17090832961E+03 0.  0.
         24    2    3    3    0    0 -0.65814065100E+01  0.86016441888E+02 -0.86257074056E+03  0.87062576226E+03  0.80739038002E+02 0.  0.
         -6    2    1    2    0  502  0.71300786969E+02 -0.10855193703E+03 -0.22956870797E+03  0.31459196398E+03  0.17146132761E+03 0.  0.
        -24    2    5    5    0    0  0.60741502223E+02 -0.50862631091E+01 -0.16533253478E+03  0.19226036495E+03  0.76901239983E+02 0.  0.
          5    1    3    3  501    0 -0.64719380459E+02  0.22535495139E+02 -0.15818539640E+03  0.17245624484E+03  0.47000000000E+01 0. -1.
        -13    1    4    4    0    0 -0.15668409880E+02  0.95542378903E+02 -0.60316130275E+03  0.61088247836E+03  0.00000000000E+00 0.  1.
         14    1    4    4    0    0  0.90870033699E+01 -0.95259370152E+01 -0.25940943781E+03  0.25974328390E+03  0.00000000000E+00 0. -1.
         -5    1    5    5    0  502  0.10559284746E+02 -0.10346567392E+03 -0.64236173190E+02  0.12233159902E+03  0.47000000000E+01 0.  1.
         13    1    6    6    0    0  0.15917661768E+02 -0.20574186002E+02 -0.69430650780E+01  0.26923507173E+02  0.00000000000E+00 0. -1.
        -14    1    6    6    0    0  0.44823840455E+02  0.15487922893E+02 -0.15838946970E+03  0.16533685778E+03  0.00000000000E+00 0.  1.
</event>
<event>
12    1  0.8461994E-002  0.1780344E+03  0.7818608E-02  0.1169766E+00
         21   -1    0    0  503  502  0.00000000000E+00  0.00000000000E+00  0.36730965686E+02  0.36730965686E+02  0.00000000000E+00 0. -1.
         21   -1    0    0  501  503 -0.00000000000E+00 -0.00000000000E+00 -0.86288460421E+03  0.86288460421E+03  0.00000000000E+00 0. -1.
          6    2    1    2  501    0 -0.23380393884E+02 -0.38255918592E+02 -0.42727744342E+03  0.46281074506E+03  0.17209768726E+03 0.  0.
         24    2    3    3    0    0  0.27301090478E+02 -0.18643423962E+02 -0.10583881214E+03  0.13677677983E+03  0.80081874022E+02 0.  0.
         -6    2    1    2    0  502  0.23380393884E+02  0.38255918592E+02 -0.39887619510E+03  0.43680482484E+03  0.17229648243E+03 0.  0.
        -24    2    5    5    0    0  0.51940624044E+02  0.81395525978E+02 -0.29943633870E+03  0.32461263476E+03  0.79926101115E+02 0.  0.
          5    1    3    3  501    0 -0.50681484362E+02 -0.19612494631E+02 -0.32143863128E+03  0.32603396523E+03  0.47000000000E+01 0. -1.
        -11    1    4    4    0    0  0.19749307979E+02 -0.41066453275E+02 -0.10339394396E+03  0.11299024912E+03  0.00000000000E+00 0.  1.
         12    1    4    4    0    0  0.75517824991E+01  0.22423029314E+02 -0.24448681834E+01  0.23786530704E+02  0.00000000000E+00 0. -1.
         -5    1    5    5    0  502 -0.28560230160E+02 -0.43139607385E+02 -0.99439856404E+02  0.11219219007E+03  0.47000000000E+01 0.  1.
         13    1    6    6    0    0  0.24639316170E+02 -0.12370638069E+02 -0.60333957564E+02  0.66334870339E+02  0.00000000000E+00 0. -1.
        -14    1    6    6    0    0  0.27301307874E+02  0.93766164047E+02 -0.23910238113E+03  0.25827776442E+03  0.00000000000E+00 0.  1.
</event>
<event>
12    1  0.8461994E-002  0.1773108E+03  0.7818608E-02  0.1170487E+00
         21   -1    0    0  501  502  0.00000000000E+00  0.00000000000E+00  0.84317571236E+03  0.84317571236E+03  0.00000000000E+00 0.  1.
         21   -1    0    0  502  503 -0.00000000000E+00 -0.00000000000E+00 -0.40622509304E+02  0.40622509304E+02  0.00000000000E+00 0.  1.
         -6    2    1    2    0  503 -0.40146376991E+02  0.33853321633E+01  0.27351662495E+03  0.32583871512E+03  0.17244225725E+03 0.  0.
        -24    2    3    3    0    0  0.12881019424E+02 -0.53839709333E+02  0.17217099193E+03  0.19785575736E+03  0.80245967468E+02 0.  0.
          6    2    1    2  501    0  0.40146376991E+02 -0.33853321633E+01  0.52903657811E+03  0.55795950655E+03  0.17267286386E+03 0.  0.
         24    2    5    5    0    0  0.39470964828E+02 -0.40685401884E+02  0.50133721354E+03  0.51125729910E+03  0.82654493011E+02 0.  0.
          5    1    5    5  501    0  0.67541216282E+00  0.37300069721E+02  0.27699364567E+02  0.46702207445E+02  0.47000000000E+01 0. -1.
        -13    1    6    6    0    0  0.11456350706E+02 -0.63127223213E+02  0.30689570922E+03  0.31353033445E+03  0.00000000000E+00 0.  1.
         14    1    6    6    0    0  0.28014614122E+02  0.22441821329E+02  0.19444150432E+03  0.19772696466E+03  0.00000000000E+00 0. -1.
         -5    1    3    3    0  503 -0.53027396415E+02  0.57225041496E+02  0.10134563302E+03  0.12798295776E+03  0.47000000000E+01 0.  1.
         13    1    4    4    0    0 -0.15276971197E+02  0.94264003746E+01  0.83182911915E+02  0.85097824341E+02  0.00000000000E+00 0. -1.
        -14    1    4    4    0    0  0.28157990621E+02 -0.63266109707E+02  0.88988080013E+02  0.11275793301E+03  0.00000000000E+00 0.  1.
</event>
<event>
12    1  0.8461994E-002  0.2236464E+03  0.7818608E-02  0.1131413E+00
         21   -1    0    0  503  502  0.00000000000E+00  0.00000000000E+00  0.22941065511E+03  0.22941065511E+03  0.00000000000E+00 0. -1.
         21   -1    0    0  501  503 -0.00000000000E+00 -0.00000000000E+00 -0.26161095208E+03  0.26161095208E+03  0.00000000000E+00 0.  1.
          6    2    1    2  501    0 -0.15132571290E+02  0.14097065752E+03 -0.11768198414E+03  0.25271876721E+03  0.17296243787E+03 0.  0.
         24    2    3    3    0    0  0.55061378576E+02  0.63681093048E+02 -0.38837312146E+02  0.12180108439E+03  0.78994495508E+02 0.  0.
         -6    2    1    2    0  502  0.15132571290E+02 -0.14097065752E+03  0.85481687164E+02  0.23830283998E+03  0.17140421146E+03 0.  0.
        -24    2    5    5    0    0 -0.37695317920E+02 -0.22477730371E+02  0.57490044461E+02  0.10549854139E+03  0.76802680085E+02 0.  0.
          5    1    3    3  501    0 -0.70193949866E+02  0.77289564469E+02 -0.78844671995E+02  0.13091768282E+03  0.47000000000E+01 0. -1.
        -13    1    4    4    0    0  0.11812507956E+02  0.70533143423E+02 -0.26983404418E+02  0.76436665150E+02  0.00000000000E+00 0.  1.
         14    1    4    4    0    0  0.43248870620E+02 -0.68520503748E+01 -0.11853907728E+02  0.45364419237E+02  0.00000000000E+00 0. -1.
         -5    1    5    5    0  502  0.52827889210E+02 -0.11849292715E+03  0.27991642703E+02  0.13280429859E+03  0.47000000000E+01 0.  1.
         11    1    6    6    0    0 -0.39020572927E+02 -0.33315898072E+02  0.71332168120E+02  0.87868267222E+02  0.00000000000E+00 0. -1.
        -12    1    6    6    0    0  0.13252550069E+01  0.10838167701E+02 -0.13842123659E+02  0.17630274171E+02  0.00000000000E+00 0.  1.
</event>
<event>
12    1  0.8461994E-002  0.1742876E+03  0.7818608E-02  0.1173602E+00
         21   -1    0    0  503  502  0.00000000000E+00  0.00000000000E+00  0.21376982372E+04  0.21376982372E+04  0.00000000000E+00 0. -1.
         21   -1    0    0  501  503 -0.00000000000E+00 -0.00000000000E+00 -0.23167691124E+02  0.23167691124E+02  0.00000000000E+00 0. -1.
          6    2    1    2  501    0  0.29264757711E+01  0.25146005958E+02  0.38471132259E+03  0.42234933582E+03  0.17243918887E+03 0.  0.
         24    2    3    3    0    0  0.17486086724E+02  0.68686475092E+02  0.34579082984E+03  0.36197840341E+03  0.80208923713E+02 0.  0.
         -6    2    1    2    0  502 -0.29264757711E+01 -0.25146005958E+02  0.17298192234E+04  0.17385165925E+04  0.17182697872E+03 0.  0.
        -24    2    5    5    0    0 -0.41692729660E+02 -0.55042432733E+02  0.73251626606E+03  0.74000174652E+03  0.79085723747E+02 0.  0.
          5    1    3    3  501    0 -0.14559610953E+02 -0.43540469134E+02  0.38920492749E+02  0.60370932404E+02  0.47000000000E+01 0. -1.
        -11    1    4    4    0    0 -0.49782507759E+01 -0.17383584533E+02  0.57601958056E+02  0.60373483947E+02  0.00000000000E+00 0.  1.
         12    1    4    4    0    0  0.22464337500E+02  0.86070059625E+02  0.28818887179E+03  0.30160491946E+03  0.00000000000E+00 0. -1.
         -5    1    5    5    0  502  0.38766253889E+02  0.29896426774E+02  0.99730295739E+03  0.99851484595E+03  0.47000000000E+01 0.  1.
         13    1    6    6    0    0  0.11559439991E+02 -0.24789629708E+01  0.35200258956E+03  0.35220106326E+03  0.00000000000E+00 0. -1.
        -14    1    6    6    0    0 -0.53252169652E+02 -0.52563469762E+02  0.38051367650E+03  0.38780068325E+03  0.00000000000E+00 0.  1.
</event>
<event>
12    1  0.8461994E-002  0.1960080E+03  0.7818608E-02  0.1153160E+00
         21   -1    0    0  501  502  0.00000000000E+00  0.00000000000E+00  0.24174918421E+03  0.24174918421E+03  0.00000000000E+00 0.  1.
         21   -1    0    0  502  503 -0.00000000000E+00 -0.00000000000E+00 -0.21845373852E+03  0.21845373852E+03  0.00000000000E+00 0.  1.
         -6    2    1    2    0  503 -0.84923043651E+02 -0.40272323944E+02 -0.10850513831E+03  0.22400270796E+03  0.17195948568E+03 0.  0.
        -24    2    3    3    0    0 -0.73988097458E+02  0.12074040285E+02 -0.78774196967E+01  0.10995121674E+03  0.80044958041E+02 0.  0.
          6    2    1    2  501    0  0.84923043651E+02  0.40272323944E+02  0.13180058400E+03  0.23620021477E+03  0.17200396534E+03 0.  0.
         24    2    5    5    0    0  0.25451651536E+02 -0.41788971054E+02  0.53986264252E+02  0.10834067865E+03  0.80181551840E+02 0.  0.
          5    1    5    5  501    0  0.59471392115E+02  0.82061294998E+02  0.77814319751E+02  0.12785953611E+03  0.47000000000E+01 0. -1.
        -11    1    6    6    0    0  0.41945469199E+02 -0.54002373098E+01  0.53742761587E+02  0.68387640494E+02  0.00000000000E+00 0.  1.
         12    1    6    6    0    0 -0.16493817663E+02 -0.36388733744E+02  0.24350266492E+00  0.39953038159E+02  0.00000000000E+00 0. -1.
         -5    1    3    3    0  503 -0.10934946193E+02 -0.52346364229E+02 -0.10062771861E+03  0.11405149122E+03  0.47000000000E+01 0.  1.
         13    1    4    4    0    0 -0.39154954194E+02 -0.32156664215E+02  0.83694011538E+01  0.51353757087E+02  0.00000000000E+00 0. -1.
        -14    1    4    4    0    0 -0.34833143264E+02  0.44230704500E+02 -0.16246820851E+02  0.58597459654E+02  0.00000000000E+00 0.  1.
</event>
<event>
12    1  0.8461994E-002  0.2747741E+03  0.7818608E-02  0.1098712E+00
         21   -1    0    0  501  502  0.00000000000E+00  0.00000000000E+00  0.34290950647E+03  0.34290950647E+03  0.00000000000E+00 0. -1.
         21   -1    0    0  502  503 -0.00000000000E+00 -0.00000000000E+00 -0.25730063828E+03  0.25730063828E+03  0.00000000000E+00 0.  1.
         -6    2    1    2    0  503  0.21012987632E+03 -0.34531566211E+02 -0.72418856647E+02  0.28323448152E+03  0.17213450187E+03 0.  0.
        -24    2    3    3    0    0  0.60371967378E+02  0.38405298535E+02 -0.25494721262E+02  0.11011261112E+03  0.79718661013E+02 0.  0.
          6    2    1    2  501    0 -0.21012987632E+03  0.34531566211E+02  0.15802772484E+03  0.31697566323E+03  0.17364853951E+03 0.  0.
         24    2    5    5    0    0 -0.90720244403E+02  0.16424178958E+02  0.61674744889E+01  0.12288763344E+03  0.81014914140E+02 0.  0.
          5    1    5    5  501    0 -0.11940963192E+03  0.18107387252E+02  0.15186025035E+03  0.19408802979E+03  0.47000000000E+01 0. -1.
        -13    1    6    6    0    0 -0.97052844036E+02  0.34735869117E+02  0.81903951744E+01  0.10340656513E+03  0.00000000000E+00 0.  1.
         14    1    6    6    0    0  0.63325996331E+01 -0.18311690159E+02 -0.20229206855E+01  0.19481068315E+02  0.00000000000E+00 0. -1.
         -5    1    3    3    0  503  0.14975790895E+03 -0.72936864746E+02 -0.46924135385E+02  0.17312187041E+03  0.47000000000E+01 0.  1.
         13    1    4    4    0    0  0.17588658930E+02  0.48856987580E+02  0.10806053641E+02  0.53039013505E+02  0.00000000000E+00 0. -1.
        -14    1    4    4    0    0  0.42783308448E+02 -0.10451689044E+02 -0.36300774902E+02  0.57073597610E+02  0.00000000000E+00 0.  1.
</event>
<event>
12    1  0.8461994E-002  0.2153554E+03  0.7818608E-02  0.1137492E+00
         21   -1    0    0  503  502  0.00000000000E+00  0.00000000000E+00  0.45490636444E+03  0.45490636444E+03  0.00000000000E+00 0. -1.
         21   -1    0    0  501  503 -0.00000000000E+00 -0.00000000000E+00 -0.17134276927E+03  0.17134276927E+03  0.00000000000E+00 0. -1.
          6    2    1    2  501    0 -0.10964987172E+03 -0.70109154001E+02 -0.57734065121E+02  0.22295998423E+03  0.17157955720E+03 0.  0.
         24    2    3    3    0    0 -0.12584622374E+03 -0.67991198765E+02 -0.90230344580E+00  0.16364095956E+03  0.79482541194E+02 0.  0.
         -6    2    1    2    0  502  0.10964987172E+03  0.70109154001E+02  0.34129766029E+03  0.40328914948E+03  0.17093758311E+03 0.  0.
        -24    2    5    5    0    0  0.91222783541E+02  0.76443378943E+02  0.35295406195E+03  0.38010204780E+03  0.75735133657E+02 0.  0.
          5    1    3    3  501    0  0.16196352013E+02 -0.21179552360E+01 -0.56831761675E+02  0.59319024671E+02  0.47000000000E+01 0. -1.
        -11    1    4    4    0    0  0.71739585431E+01 -0.18720400344E+02  0.78246800088E+01  0.21520796627E+02  0.00000000000E+00 0.  1.
         12    1    4    4    0    0 -0.13302018228E+03 -0.49270798421E+02 -0.87269834546E+01  0.14212016293E+03  0.00000000000E+00 0. -1.
         -5    1    5    5    0  502  0.18427088183E+02 -0.63342249416E+01 -0.11656401661E+02  0.23187101677E+02  0.47000000000E+01 0.  1.
         13    1    6    6    0    0  0.35037511107E+02  0.71829371941E+02  0.15658200295E+03  0.17579820678E+03  0.00000000000E+00 0. -1.
        -14    1    6    6    0    0  0.56185272434E+02  0.46140070017E+01  0.19637205900E+03  0.20430384102E+03  0.00000000000E+00 0.  1.
</event>
<event>
12    1  0.8461994E-002  0.1822936E+03  0.7818608E-02  0.1165872E+00
         21   -1    0    0  501  502  0.00000000000E+00  0.00000000000E+00  0.78768287595E+02  0.78768287595E+02  0.00000000000E+00 0. -1.
         21   -1    0    0  502  503 -0.00000000000E+00 -0.00000000000E+00 -0.86253122898E+03  0.86253122898E+03  0.00000000000E+00 0.  1.
         -6    2    1    2    0  503 -0.60670588917E+02 -0.24412753034E+01 -0.72987442635E+03  0.75229490949E+03  0.17188389228E+03 0.  0.
        -24    2    3    3    0    0 -0.70094654416E+02  0.14604441160E+02 -0.72361942622E+03  0.73130480499E+03  0.77814481461E+02 0.  0.
          6    2    1    2  501    0  0.60670588917E+02  0.24412753034E+01 -0.53888515040E+02  0.18900460709E+03  0.17068066458E+03 0.  0.
         24    2    5    5    0    0 -0.27671328107E+02  0.36670174689E+02 -0.23157701831E+02  0.89293099540E+02  0.72983384140E+02 0.  0.
          5    1    5    5  501    0  0.88341917025E+02 -0.34228899386E+02 -0.30730813209E+02  0.99711507547E+02  0.47000000000E+01 0. -1.
        -13    1    6    6    0    0 -0.50388726017E+02  0.13087891639E+02 -0.62308424960E+01  0.52432242136E+02  0.00000000000E+00 0.  1.
         14    1    6    6    0    0  0.22717397910E+02  0.23582283050E+02 -0.16926859335E+02  0.36860857404E+02  0.00000000000E+00 0. -1.
         -5    1    3    3    0  503  0.94240654986E+01 -0.17045716464E+02 -0.62550001293E+01  0.20990104500E+02  0.47000000000E+01 0.  1.
         13    1    4    4    0    0 -0.38460104085E+02 -0.30216792498E+02 -0.41200982895E+03  0.41490279983E+03  0.00000000000E+00 0. -1.
        -14    1    4    4    0    0 -0.31634550331E+02  0.44821233658E+02 -0.31160959727E+03  0.31640200516E+03  0.00000000000E+00 0.  1.
</event>
<event>
12    1  0.8461994E-002  0.1954011E+03  0.7818608E-02  0.1158234E+00
         21   -1    0    0  503  502  0.00000000000E+00  0.00000000000E+00  0.78572949768E+03  0.78572949768E+03  0.00000000000E+00 0.  1.
         21   -1    0    0  501  503 -0.00000000000E+00 -0.00000000000E+00 -0.74960612285E+02  0.74960612285E+02  0.00000000000E+00 0.  1.
          6    2    1    2  501    0  0.26395154602E+02  0.22738898014E+02  0.67055092108E+02  0.18797246690E+03  0.17211479095E+03 0.  0.
         24    2    3    3    0    0 -0.32634096226E+02 -0.31183681675E+02  0.61608856292E+02  0.10769888134E+03  0.75934126908E+02 0.  0.
         -6    2    1    2    0  502 -0.26395154602E+02 -0.22738898014E+02  0.64371379329E+03  0.67271764307E+03  0.19227016918E+03 0.  0.
        -24    2    5    5    0    0  0.65297417650E+01  0.21910048483E+02  0.58842943295E+03  0.59425728542E+03  0.79811252101E+02 0.  0.
          5    1    3    3  501    0  0.59029250828E+02  0.53922579689E+02  0.54462358165E+01  0.80273585557E+02  0.47000000000E+01 0. -1.
        -11    1    4    4    0    0 -0.54853839294E+02 -0.67031114542E+01  0.39478945149E+02  0.67915112446E+02  0.00000000000E+00 0.  1.
         12    1    4    4    0    0  0.22219743068E+02 -0.24480570221E+02  0.22129911143E+02  0.39783768896E+02  0.00000000000E+00 0. -1.
         -5    1    5    5    0  502 -0.32924896367E+02 -0.44648946498E+02  0.55284360343E+02  0.78460357651E+02  0.47000000000E+01 0.  1.
         11    1    6    6    0    0 -0.78304813960E+01 -0.17625363137E+02  0.42059461795E+02  0.46270597480E+02  0.00000000000E+00 0. -1.
        -12    1    6    6    0    0  0.14360223161E+02  0.39535411621E+02  0.54636997115E+03  0.54798668794E+03  0.00000000000E+00 0.  1.
</event>
<event>
12    1  0.8461994E-002  0.1796901E+03  0.7818608E-02  0.1170305E+00
         21   -1    0    0  501  502  0.00000000000E+00  0.00000000000E+00  0.24673318507E+04  0.24673318507E+04  0.00000000000E+00 0. -1.
         21   -1    0    0  502  503 -0.00000000000E+00 -0.00000000000E+00 -0.13582533730E+02  0.13582533730E+02  0.00000000000E+00 0. -1.
         -6    2    1    2    0  503  0.36723392216E+02  0.33725023337E+02  0.16131805607E+04  0.16231574376E+04  0.17263418217E+03 0.  0.
        -24    2    3    3    0    0 -0.10470731862E+01  0.69184349966E+02  0.14024529480E+04  0.14061040140E+04  0.73936839657E+02 0.  0.
          6    2    1    2  501    0 -0.36723392216E+02 -0.33725023337E+02  0.84056875619E+03  0.85775694682E+03  0.16341713863E+03 0.  0.
         24    2    5    5    0    0 -0.94584441189E+01  0.28058470532E+02  0.26857718149E+03  0.28177341490E+03  0.79911294546E+02 0.  0.
          5    1    5    5  501    0 -0.27264948097E+02 -0.61783493869E+02  0.57199157470E+03  0.57598353192E+03  0.47000000000E+01 0. -1.
        -13    1    6    6    0    0 -0.26203086447E+02  0.40030277157E+00  0.22978266047E+03  0.23127220550E+03  0.00000000000E+00 0.  1.
         14    1    6    6    0    0  0.16744642328E+02  0.27658167760E+02  0.38794521014E+02  0.50501209404E+02  0.00000000000E+00 0. -1.
         -5    1    3    3    0  503  0.37770465402E+02 -0.35459326629E+02  0.21072761272E+03  0.21705342353E+03  0.47000000000E+01 0.  1.
         13    1    4    4    0    0  0.24800310381E+02  0.93784847986E+01  0.73515930099E+03  0.73563728101E+03  0.00000000000E+00 0. -1.
        -14    1    4    4    0    0 -0.25847383567E+02  0.59805865167E+02  0.66729364703E+03  0.67046673304E+03  0.00000000000E+00 0.  1.
</event>
<event>
12    1  0.8461994E-002  0.1754522E+03  0.7818608E-02  0.1172326E+00
         21   -1    0    0  501  502  0.00000000000E+00  0.00000000000E+00  0.91141469004E+03  0.91141469004E+03  0.00000000000E+00 0.  1.
         21   -1    0    0  502  503 -0.00000000000E+00 -0.00000000000E+00 -0.45662388531E+02  0.45662388531E+02  0.00000000000E+00 0.  1.
         -6    2    1    2    0  503 -0.20109205821E+02  0.25042102489E+02  0.18851656725E+03  0.25753053284E+03  0.17248765800E+03 0.  0.
        -24    2    3    3    0    0  0.17254739360E+01  0.37856265732E+02  0.25107890792E+02  0.92105499787E+02  0.80105822482E+02 0.  0.
          6    2    1    2  501    0  0.20109205821E+02 -0.25042102489E+02  0.67723573426E+03  0.69954654574E+03  0.17229521998E+03 0.  0.
         24    2    5    5    0    0  0.20264033388E+02  0.49696366049E+02  0.45912235143E+03  0.46893561707E+03  0.78910832723E+02 0.  0.
          5    1    5    5  501    0 -0.15482756683E+00 -0.74738468538E+02  0.21811338283E+03  0.23061092867E+03  0.47000000000E+01 0. -1.
        -11    1    6    6    0    0 -0.28976723165E+02  0.11206780954E+02  0.19898571483E+03  0.20139651717E+03  0.00000000000E+00 0.  1.
         12    1    6    6    0    0  0.49240756553E+02  0.38489585094E+02  0.26013663661E+03  0.26753909989E+03  0.00000000000E+00 0. -1.
         -5    1    3    3    0  503 -0.21834679757E+02 -0.12814163243E+02  0.16340867645E+03  0.16542503305E+03  0.47000000000E+01 0.  1.
         13    1    4    4    0    0  0.23541159827E+02  0.46987725612E+02  0.38295438890E+02  0.65027480375E+02  0.00000000000E+00 0. -1.
        -14    1    4    4    0    0 -0.21815685891E+02 -0.91314598796E+01 -0.13187548097E+02  0.27078019412E+02  0.00000000000E+00 0.  1.
</event>
<event>
12    1  0.8461994E-002  0.1997261E+03  0.7818608E-02  0.1150636E+00
         21   -1    0    0  503  502  0.00000000000E+00  0.00000000000E+00  0.53373823791E+02  0.53373823791E+02  0.00000000000E+00 0.  1.
         21   -1    0    0  501  503 -0.00000000000E+00 -0.00000000000E+00 -0.11007956352E+04  0.11007956352E+04  0.00000000000E+00 0.  1.
          6    2    1    2  501    0  0.86654514251E+02  0.48720927708E+02 -0.85327226589E+03  0.87562943297E+03  0.16961901579E+03 0.  0.
         24    2    3    3    0    0  0.11260864226E+03  0.67562090153E+02 -0.78737174864E+03  0.80218847481E+03  0.79414962178E+02 0.  0.
         -6    2    1    2    0  502 -0.86654514251E+02 -0.48720927708E+02 -0.19414954548E+03  0.27854002598E+03  0.17322749904E+03 0.  0.
        -24    2    5    5    0    0 -0.67933170118E+01 -0.78020654436E+02 -0.87212554830E+02  0.14181440738E+03  0.79824336808E+02 0.  0.
          5    1    3    3  501    0 -0.25954128006E+02 -0.18841162444E+02 -0.65900517244E+02  0.73440958163E+02  0.47000000000E+01 0. -1.
        -11    1    4    4    0    0  0.36997882775E+02  0.67462323455E+02 -0.44079824839E+03  0.44746296406E+03  0.00000000000E+00 0.  1.
         12    1    4    4    0    0  0.75610759481E+02  0.99766697623E-01 -0.34657350025E+03  0.35472551075E+03  0.00000000000E+00 0. -1.
         -5    1    5    5    0  502 -0.79861197239E+02  0.29299726728E+02 -0.10693699065E+03  0.13672561859E+03  0.47000000000E+01 0.  1.
         11    1    6    6    0    0  0.25573936846E+01 -0.14254980043E+02  0.15082789093E+02  0.20910170858E+02  0.00000000000E+00 0. -1.
        -12    1    6    6    0    0 -0.93507106964E+01 -0.63765674393E+02 -0.10229534392E+03  0.12090423652E+03  0.00000000000E+00 0.  1.
</event>
<event>
12    1  0.8461994E-002  0.2117169E+03  0.7818608E-02  0.1140494E+00
         21   -1    0    0  501  502  0.00000000000E+00  0.00000000000E+00  0.50592163841E+02  0.50592163841E+02  0.00000000000E+00 0. -1.
         21   -1    0    0  502  503 -0.00000000000E+00 -0.00000000000E+00 -0.98901401242E+03  0.98901401242E+03  0.00000000000E+00 0. -1.
         -6    2    1    2    0  503  0.91557636846E+02  0.83476097470E+02 -0.64035577418E+03  0.67400058217E+03  0.16991235250E+03 0.  0.
        -24    2    3    3    0    0  0.83031519029E+02 -0.95992277406E+01 -0.38681843092E+03  0.40374332459E+03  0.79961211399E+02 0.  0.
          6    2    1    2  501    0 -0.91557636846E+02 -0.83476097470E+02 -0.29806607440E+03  0.36560559409E+03  0.17167703983E+03 0.  0.
         24    2    5    5    0    0 -0.45819037708E+01 -0.67460878755E+02 -0.23389418896E+03  0.25623747142E+03  0.79869807356E+02 0.  0.
          5    1    5    5  501    0 -0.86975733075E+02 -0.16015218715E+02 -0.64171885442E+02  0.10936812267E+03  0.47000000000E+01 0. -1.
        -13    1    6    6    0    0 -0.41771083056E+02 -0.40504049076E+02 -0.14338383627E+03  0.15473954205E+03  0.00000000000E+00 0.  1.
         14    1    6    6    0    0  0.37189179285E+02 -0.26956829679E+02 -0.90510352690E+02  0.10149792937E+03  0.00000000000E+00 0. -1.
         -5    1    3    3    0  503  0.85261178171E+01  0.93075325211E+02 -0.25353734326E+03  0.27025725758E+03  0.47000000000E+01 0.  1.
         11    1    4    4    0    0  0.58796078489E+02  0.19628047932E+02 -0.12872243236E+03  0.14286953386E+03  0.00000000000E+00 0. -1.
        -12    1    4    4    0    0  0.24235440540E+02 -0.29227275672E+02 -0.25809599855E+03  0.26087379073E+03  0.00000000000E+00 0.  1.
</event>
<event>
12    1  0.8461994E-002  0.3072362E+03  0.7818608E-02  0.1081924E+00
         21   -1    0    0  503  502  0.00000000000E+00  0.00000000000E+00  0.26548173108E+03  0.26548173108E+03  0.00000000000E+00 0.  1.
         21   -1    0    0  501  503 -0.00000000000E+00 -0.00000000000E+00 -0.40443414873E+03  0.40443414873E+03  0.00000000000E+00 0.  1.
          6    2    1    2  501    0 -0.22855589386E+03  0.10675703580E+03  0.49920105332E+02  0.30926801460E+03  0.17181334822E+03 0.  0.
         24    2    3    3    0    0 -0.18152214051E+03  0.76045008755E+02 -0.26797606477E+02  0.21406770019E+03  0.79835691883E+02 0.  0.
         -6    2    1    2    0  502  0.22855589386E+03 -0.10675703580E+03 -0.18887252298E+03  0.36064786521E+03  0.17538298501E+03 0.  0.
        -24    2    5    5    0    0  0.17652568238E+03 -0.76529046257E+02 -0.21084167251E+03  0.29641697086E+03  0.79942468583E+02 0.  0.
          5    1    3    3  501    0 -0.47033753350E+02  0.30712027043E+02  0.76717711810E+02  0.95200314414E+02  0.47000000000E+01 0. -1.
        -13    1    4    4    0    0 -0.59970679924E+02  0.20708830515E+02  0.28455830601E+02  0.69534684921E+02  0.00000000000E+00 0.  1.
         14    1    4    4    0    0 -0.12155146059E+03  0.55336178240E+02 -0.55253437079E+02  0.14453301527E+03  0.00000000000E+00 0. -1.
         -5    1    5    5    0  502  0.52030211480E+02 -0.30227989541E+02  0.21969149527E+02  0.64230894352E+02  0.47000000000E+01 0.  1.
         13    1    6    6    0    0  0.14536671267E+03 -0.24921004879E+02 -0.13942470032E+03  0.20295759334E+03  0.00000000000E+00 0. -1.
        -14    1    6    6    0    0  0.31158969715E+02 -0.51608041377E+02 -0.71416972192E+02  0.93459377515E+02  0.00000000000E+00 0.  1.
</event>
<event>
12    1  0.8461994E-002  0.1907554E+03  0.7818608E-02  0.1157969E+00
         21   -1    0    0  503  502  0.00000000000E+00  0.00000000000E+00  0.22019589017E+03  0.22019589017E+03  0.00000000000E+00 0.  1.
         21   -1    0    0  501  503 -0.00000000000E+00 -0.00000000000E+00 -0.21801309659E+03  0.21801309659E+03  0.00000000000E+00 0.  1.
          6    2    1    2  501    0  0.65864170117E+02  0.46235243332E+02 -0.10742678993E+03  0.21892500128E+03  0.17295043903E+03 0.  0.
         24    2    3    3    0    0 -0.56168994795E+01  0.25637592502E+02 -0.11823657765E+03  0.14360735367E+03  0.77164422016E+02 0.  0.
         -6    2    1    2    0  502 -0.65864170117E+02 -0.46235243332E+02  0.10960958351E+03  0.21928398548E+03  0.17203319116E+03 0.  0.
        -24    2    5    5    0    0 -0.80578074567E+02  0.10941008153E+02  0.11365330664E+03  0.15992015462E+03  0.77748633316E+02 0.  0.
          5    1    3    3  501    0  0.71481069596E+02  0.20597650830E+02  0.10809787725E+02  0.75317647607E+02  0.47000000000E+01 0. -1.
        -13    1    4    4    0    0 -0.24593131541E+01 -0.23602397996E+02 -0.12265852159E+02  0.26712778619E+02  0.00000000000E+00 0.  1.
         14    1    4    4    0    0 -0.31575863254E+01  0.49239990498E+02 -0.10597072549E+03  0.11689457505E+03  0.00000000000E+00 0. -1.
         -5    1    5    5    0  502  0.14713904451E+02 -0.57176251485E+02 -0.40437231262E+01  0.59363830863E+02  0.47000000000E+01 0.  1.
         11    1    6    6    0    0  0.41033018624E+01 -0.96900904223E+01  0.52262740359E+02  0.53311621326E+02  0.00000000000E+00 0. -1.
        -12    1    6    6    0    0 -0.84681376430E+02  0.20631098575E+02  0.61390566282E+02  0.10660853329E+03  0.00000000000E+00 0.  1.
</event>
<event>
12    1  0.8461994E-002  0.2503994E+03  0.7818608E-02  0.1113329E+00
         21   -1    0    0  501  502  0.00000000000E+00  0.00000000000E+00  0.48939988029E+03  0.48939988029E+03  0.00000000000E+00 0.  1.
         21   -1    0    0  502  503 -0.00000000000E+00 -0.00000000000E+00 -0.13133659583E+03  0.13133659583E+03  0.00000000000E+00 0.  1.
         -6    2    1    2    0  503 -0.91435124684E+02 -0.15505746941E+03  0.23454883788E+03  0.34309328225E+03  0.17405930636E+03 0.  0.
        -24    2    3    3    0    0  0.10203251660E+02 -0.48244274533E+02  0.50410262665E+02  0.10715150336E+03  0.80676103776E+02 0.  0.
          6    2    1    2  501    0  0.91435124684E+02  0.15505746941E+03  0.12351444659E+03  0.27764319386E+03  0.17154219229E+03 0.  0.
         24    2    5    5    0    0  0.97386639994E+02  0.14229822663E+03  0.41830305782E+02  0.19462146376E+03  0.79967472896E+02 0.  0.
          5    1    5    5  501    0 -0.59515153101E+01  0.12759242782E+02  0.81684140804E+02  0.83021730106E+02  0.47000000000E+01 0. -1.
        -13    1    6    6    0    0  0.48859430910E+02  0.13384275812E+02  0.22852077980E+02  0.55575176975E+02  0.00000000000E+00 0.  1.
         14    1    6    6    0    0  0.48527209084E+02  0.12891395082E+03  0.18978227803E+02  0.13904628678E+03  0.00000000000E+00 0. -1.
         -5    1    3    3    0  503 -0.10163837634E+03 -0.10681319488E+03  0.18413857521E+03  0.23594177890E+03  0.47000000000E+01 0.  1.
         11    1    4    4    0    0 -0.15600466464E+02 -0.24288760757E+02 -0.15249145935E+02  0.32647433356E+02  0.00000000000E+00 0. -1.
        -12    1    4    4    0    0  0.25803718124E+02 -0.23955513777E+02  0.65659408600E+02  0.74504070003E+02  0.00000000000E+00 0.  1.
</event>
<event>
12    1  0.8461994E-002  0.2184007E+03  0.7818608E-02  0.1135225E+00
         21   -1    0    0  503  502  0.00000000000E+00  0.00000000000E+00  0.41727600719E+03  0.41727600719E+03  0.00000000000E+00 0. -1.
         21   -1    0    0  501  503 -0.00000000000E+00 -0.00000000000E+00 -0.12095595303E+03  0.12095595303E+03  0.00000000000E+00 0. -1.
          6    2    1    2  501    0  0.96476001086E+02 -0.93417935903E+02  0.83459493254E+02  0.23380407604E+03  0.17223335747E+03 0.  0.
         24    2    3    3    0    0  0.44063218871E+02 -0.10543682245E+02  0.98923467718E+02  0.13442366467E+03  0.78937523804E+02 0.  0.
         -6    2    1    2    0  502 -0.96476001086E+02  0.93417935903E+02  0.21286056090E+03  0.30442788418E+03  0.17126642620E+03 0.  0.
        -24    2    5    5    0    0 -0.10193988352E+03  0.12521371909E+02  0.16737959942E+03  0.21134342825E+03  0.78112673474E+02 0.  0.
          5    1    3    3  501    0  0.52412782215E+02 -0.82874253659E+02 -0.15463974464E+02  0.99380411376E+02  0.47000000000E+01 0. -1.
        -13    1    4    4    0    0  0.12810647685E+02 -0.30858276583E+02  0.90132902346E+02  0.96126406429E+02  0.00000000000E+00 0.  1.
         14    1    4    4    0    0  0.31252571187E+02  0.20314594338E+02  0.87905653724E+01  0.38297258237E+02  0.00000000000E+00 0. -1.
         -5    1    5    5    0  502  0.54638824316E+01  0.80896563994E+02  0.45480961486E+02  0.93084455925E+02  0.47000000000E+01 0.  1.
         13    1    6    6    0    0  0.95522789543E+01  0.13626879754E+02  0.31023991621E+02  0.35205481692E+02  0.00000000000E+00 0. -1.
        -14    1    6    6    0    0 -0.11149216247E+03 -0.11055078443E+01  0.13635560780E+03  0.17613794656E+03  0.00000000000E+00 0.  1.
</event>
<event>
12    1  0.8461994E-002  0.2097968E+03  0.7818608E-02  0.1145327E+00
         21   -1    0    0  503  502  0.00000000000E+00  0.00000000000E+00  0.16489863302E+04  0.16489863302E+04  0.00000000000E+00 0. -1.
         21   -1    0    0  501  503 -0.00000000000E+00 -0.00000000000E+00 -0.25353671984E+02  0.25353671984E+02  0.00000000000E+00 0. -1.
          6    2    1    2  501    0 -0.31882842980E+02  0.80943953513E+02  0.69501544388E+03  0.72598979434E+03  0.19090907515E+03 0.  0.
         24    2    3    3    0    0  0.56942452362E+02  0.69347521208E+02  0.38990611551E+03  0.40796746400E+03  0.79744286306E+02 0.  0.
         -6    2    1    2    0  502  0.31882842980E+02 -0.80943953513E+02  0.92861721434E+03  0.94835020784E+03  0.17166754691E+03 0.  0.
        -24    2    5    5    0    0 -0.45149574039E+02 -0.40104419811E+02  0.39391360058E+03  0.40656435961E+03  0.80497237552E+02 0.  0.
          5    1    3    3  501    0 -0.88825295342E+02  0.11596432305E+02  0.30510932837E+03  0.31802233034E+03  0.47000000000E+01 0. -1.
        -13    1    4    4    0    0  0.18139316070E+02 -0.17256061488E+02  0.88669457321E+02  0.92136198680E+02  0.00000000000E+00 0.  1.
         14    1    4    4    0    0  0.38803136292E+02  0.86603582696E+02  0.30123665819E+03  0.31583126532E+03  0.00000000000E+00 0. -1.
         -5    1    5    5    0  502  0.77032417019E+02 -0.40839533702E+02  0.53470361375E+03  0.54178584823E+03  0.47000000000E+01 0.  1.
         13    1    6    6    0    0 -0.27611990937E+02 -0.23634699373E+02  0.37276236478E+03  0.37453010780E+03  0.00000000000E+00 0. -1.
        -14    1    6    6    0    0 -0.17537583102E+02 -0.16469720439E+02  0.21151235807E+02  0.32034251803E+02  0.00000000000E+00 0.  1.
</event>
<event>
12    1  0.8461994E-002  0.2031781E+03  0.7818608E-02  0.1147153E+00
         21   -1    0    0  503  502  0.00000000000E+00  0.00000000000E+00  0.98226649929E+02  0.98226649929E+02  0.00000000000E+00 0.  1.
         21   -1    0    0  501  503 -0.00000000000E+00 -0.00000000000E+00 -0.52405963199E+03  0.52405963199E+03  0.00000000000E+00 0.  1.
          6    2    1    2  501    0 -0.10774555645E+03  0.90524777865E+01 -0.35197638959E+03  0.40640956930E+03  0.17201833304E+03 0.  0.
         24    2    3    3    0    0 -0.26698462580E+02 -0.15954892407E+02 -0.28595794099E+03  0.29882460035E+03  0.80974262954E+02 0.  0.
         -6    2    1    2    0  502  0.10774555645E+03 -0.90524777865E+01 -0.73856592477E+02  0.21587671262E+03  0.17163014453E+03 0.  0.
        -24    2    5    5    0    0  0.45624290086E+02  0.44276314122E+01  0.28741642546E+02  0.95090732853E+02  0.78198373976E+02 0.  0.
          5    1    3    3  501    0 -0.81047093874E+02  0.25007370194E+02 -0.66018448597E+02  0.10758496895E+03  0.47000000000E+01 0. -1.
        -13    1    4    4    0    0 -0.49561292238E+01  0.30992505899E+02 -0.15234322851E+03  0.15554278482E+03  0.00000000000E+00 0.  1.
         14    1    4    4    0    0 -0.21742333357E+02 -0.46947398306E+02 -0.13361471248E+03  0.14328181552E+03  0.00000000000E+00 0. -1.
         -5    1    5    5    0  502  0.62121266368E+02 -0.13480109199E+02 -0.10259823502E+03  0.12078597977E+03  0.47000000000E+01 0.  1.
         13    1    6    6    0    0  0.19455737215E+02 -0.36903300602E+02  0.12661073955E+02  0.43596812952E+02  0.00000000000E+00 0. -1.
        -14    1    6    6    0    0  0.26168552872E+02  0.41330932014E+02  0.16080568591E+02  0.51493919901E+02  0.00000000000E+00 0.  1.
</event>
<event>
12    1  0.8461994E-002  0.2211831E+03  0.7818608E-02  0.1133604E+00
         21   -1    0    0  503  502  0.00000000000E+00  0.00000000000E+00  0.84214744762E+03  0.84214744762E+03  0.00000000000E+00 0. -1.
         21   -1    0    0  501  503 -0.00000000000E+00 -0.00000000000E+00 -0.57503194034E+02  0.57503194034E+02  0.00000000000E+00 0.  1.
          6    2    1    2  501    0  0.31449411450E+02 -0.12832615686E+03  0.36537184340E+03  0.42710486279E+03  0.17738464379E+03 0.  0.
         24    2    3    3    0    0  0.64600792781E+02 -0.59502350651E+02  0.31219255335E+03  0.33390691605E+03  0.79472297447E+02 0.  0.
         -6    2    1    2    0  502 -0.31449411450E+02  0.12832615686E+03  0.41927241019E+03  0.47254577887E+03  0.17335942769E+03 0.  0.
        -24    2    5    5    0    0  0.12610037993E+02  0.80763219845E+01  0.16974467384E+03  0.19203296441E+03  0.88539059661E+02 0.  0.
          5    1    3    3  501    0 -0.33151381331E+02 -0.68823806207E+02  0.53179290051E+02  0.93197946734E+02  0.47000000000E+01 0. -1.
        -11    1    4    4    0    0  0.20084665513E+02 -0.31096457162E+02  0.32462671529E+02  0.49236251681E+02  0.00000000000E+00 0.  1.
         12    1    4    4    0    0  0.44516127269E+02 -0.28405893489E+02  0.27972988182E+03  0.28467066437E+03  0.00000000000E+00 0. -1.
         -5    1    5    5    0  502 -0.44059449444E+02  0.12024983487E+03  0.24952773635E+03  0.28051281446E+03  0.47000000000E+01 0.  1.
         11    1    6    6    0    0 -0.21062215080E+02 -0.30007679107E+01  0.29087078114E+01  0.21472822201E+02  0.00000000000E+00 0. -1.
        -12    1    6    6    0    0  0.33672253073E+02  0.11077089895E+02  0.16683596603E+03  0.17056014221E+03  0.00000000000E+00 0.  1.
</event>
<event>
12    1  0.8461994E-002  0.2174755E+03  0.7818608E-02  0.1136332E+00
         21   -1    0    0  503  502  0.00000000000E+00  0.00000000000E+00  0.10550084023E+03  0.10550084023E+03  0.00000000000E+00 0.  1.
         21   -1    0    0  501  503 -0.00000000000E+00 -0.00000000000E+00 -0.45575335366E+03  0.45575335366E+03  0.00000000000E+00 0.  1.
          6    2    1    2  501    0 -0.63634473910E+01 -0.12899789301E+03 -0.12812030733E+03  0.25240921879E+03  0.17497042812E+03 0.  0.
         24    2    3    3    0    0 -0.40241160510E+02 -0.59507475067E+01 -0.61031475157E+02  0.10814799439E+03  0.79475690220E+02 0.  0.
         -6    2    1    2    0  502  0.63634473910E+01  0.12899789301E+03 -0.22213220610E+03  0.30884497509E+03  0.17135212805E+03 0.  0.
        -24    2    5    5    0    0 -0.29839446833E+02  0.13281173652E+03 -0.22194725118E+03  0.27213912868E+03  0.79181898871E+02 0.  0.
          5    1    3    3  501    0  0.33877713119E+02 -0.12304714551E+03 -0.67088832172E+02  0.14426122440E+03  0.47000000000E+01 0. -1.
        -13    1    4    4    0    0 -0.45807217734E+02 -0.31378107491E+02 -0.18953042638E+02  0.58669452456E+02  0.00000000000E+00 0.  1.
         14    1    4    4    0    0  0.55660572245E+01  0.25427359984E+02 -0.42078432519E+02  0.49478541936E+02  0.00000000000E+00 0. -1.
         -5    1    5    5    0  502  0.36202894224E+02 -0.38138435041E+01 -0.18495492173E+00  0.36705846412E+02  0.47000000000E+01 0.  1.
         11    1    6    6    0    0 -0.19272457650E+02  0.70687537129E+01 -0.49446167669E+01  0.21115021617E+02  0.00000000000E+00 0. -1.
        -12    1    6    6    0    0 -0.10566989183E+02  0.12574298280E+03 -0.21700263442E+03  0.25102410706E+03  0.00000000000E+00 0.  1.
</event>
<event>
12    1  0.8461994E-002  0.1916783E+03  0.7818608E-02  0.1157264E+00
         21   -1    0    0  501  502  0.00000000000E+00  0.00000000000E+00  0.30274118223E+04  0.30274118223E+04  0.00000000000E+00 0.  1.
         21   -1    0    0  502  503 -0.00000000000E+00 -0.00000000000E+00 -0.34901730247E+02  0.34901730247E+02  0.00000000000E+00 0.  1.
         -6    2    1    2    0  503  0.76108406941E+02 -0.24250229408E+02  0.25542223873E+03  0.31852228916E+03  0.17272916784E+03 0.  0.
        -24    2    3    3    0    0  0.58969867009E+02  0.49454515277E+02  0.17914474368E+03  0.21097478714E+03  0.80587389366E+02 0.  0.
          6    2    1    2  501    0 -0.76108406941E+02  0.24250229408E+02  0.27370878533E+04  0.27437912634E+04  0.17424126082E+03 0.  0.
         24    2    5    5    0    0 -0.60590018746E+02  0.70056219732E+02  0.24322944012E+04  0.24351488366E+04  0.72902525603E+02 0.  0.
          5    1    5    5  501    0 -0.15518388196E+02 -0.45805990324E+02  0.30479345212E+03  0.30864242673E+03  0.47000000000E+01 0. -1.
        -11    1    6    6    0    0 -0.16720581523E+02  0.70060123993E+02  0.17173191240E+04  0.17188289538E+04  0.00000000000E+00 0.  1.
         12    1    6    6    0    0 -0.43869437222E+02 -0.39042608457E-02  0.71497527719E+03  0.71631988282E+03  0.00000000000E+00 0. -1.
         -5    1    3    3    0  503  0.17138539933E+02 -0.73704744686E+02  0.76277495047E+02  0.10754750202E+03  0.47000000000E+01 0.  1.
         13    1    4    4    0    0 -0.21067032387E+01  0.23726262598E+02  0.11937920762E+03  0.12173236607E+03  0.00000000000E+00 0. -1.
        -14    1    4    4    0    0  0.61076570248E+02  0.25728252679E+02  0.59765536056E+02  0.89242421074E+02  0.00000000000E+00 0.  1.
</event>
<event>
12    1  0.8461994E-002  0.2163387E+03  0.7818608E-02  0.1137405E+00
         21   -1    0    0  503  502  0.00000000000E+00  0.00000000000E+00  0.38989022262E+03  0.38989022262E+03  0.00000000000E+00 0. -1.
         21   -1    0    0  501  503 -0.00000000000E+00 -0.00000000000E+00 -0.23600009913E+03  0.23600009913E+03  0.00000000000E+00 0. -1.
          6    2    1    2  501    0  0.62588180429E+02  0.10781168845E+03 -0.14412013917E+03  0.25994814311E+03  0.17681001696E+03 0.  0.
         24    2    3    3    0    0 -0.27420807707E+02  0.53186206884E+01 -0.83349908556E+02  0.11054413442E+03  0.67026934706E+02 0.  0.
         -6    2    1    2    0  502 -0.62588180429E+02 -0.10781168845E+03  0.29801026266E+03  0.36594217864E+03  0.17193871281E+03 0.  0.
        -24    2    5    5    0    0 -0.75888293061E+02 -0.41943022815E+02  0.12570328200E+03  0.18093580121E+03  0.97047405251E+02 0.  0.
          5    1    3    3  501    0  0.90008988136E+02  0.10249306776E+03 -0.60770230610E+02  0.14940400869E+03  0.47000000000E+01 0. -1.
        -13    1    4    4    0    0 -0.39516105450E+02 -0.11333836196E+02 -0.23718899606E+02  0.47461190792E+02  0.00000000000E+00 0.  1.
         14    1    4    4    0    0  0.12095297743E+02  0.16652456885E+02 -0.59631008951E+02  0.63082943624E+02  0.00000000000E+00 0. -1.
         -5    1    5    5    0  502  0.13300112632E+02 -0.65868665635E+02  0.17230698065E+03  0.18500637743E+03  0.47000000000E+01 0.  1.
         11    1    6    6    0    0 -0.63288056411E+02  0.49325541376E+01  0.11480707331E+03  0.13118830839E+03  0.00000000000E+00 0. -1.
        -12    1    6    6    0    0 -0.12600236650E+02 -0.46875576953E+02  0.10896208691E+02  0.49747492823E+02  0.00000000000E+00 0.  1.
</event>
<event>
12    1  0.8461994E-002  0.2479805E+03  0.7818608E-02  0.1114698E+00
         21   -1    0    0  501  502  0.00000000000E+00  0.00000000000E+00  0.52084955116E+02  0.52084955116E+02  0.00000000000E+00 0. -1.
         21   -1    0    0  502  503 -0.00000000000E+00 -0.00000000000E+00 -0.18092381099E+04  0.18092381099E+04  0.00000000000E+00 0.  1.
         -6    2    1    2    0  503 -0.18840312168E+01 -0.17855661054E+03 -0.14277739022E+04  0.14490306475E+04  0.17107159025E+03 0.  0.
        -24    2    3    3    0    0  0.20021937195E+02 -0.19803809781E+03 -0.13204601090E+04  0.13376855084E+04  0.78534411591E+02 0.  0.
          6    2    1    2  501    0  0.18840312168E+01  0.17855661054E+03 -0.32937925260E+03  0.41229241748E+03  0.17207072014E+03 0.  0.
         24    2    5    5    0    0  0.36121372711E+02  0.17808400326E+03 -0.32091308475E+03  0.37670892541E+03  0.76848817387E+02 0.  0.
          5    1    5    5  501    0 -0.34237341494E+02  0.47260727819E+00 -0.84661678495E+01  0.35583492075E+02  0.47000000000E+01 0. -1.
        -13    1    6    6    0    0 -0.11151534839E+02  0.11261622360E+02 -0.54951048005E+01  0.16774297130E+02  0.00000000000E+00 0.  1.
         14    1    6    6    0    0  0.47272907549E+02  0.16682238090E+03 -0.31541797995E+03  0.35993462828E+03  0.00000000000E+00 0. -1.
         -5    1    3    3    0  503 -0.21905968412E+02  0.19481487265E+02 -0.10731379315E+03  0.11134513909E+03  0.47000000000E+01 0.  1.
         13    1    4    4    0    0  0.32345225966E+02 -0.46484331817E+02 -0.24072517335E+03  0.24729661508E+03  0.00000000000E+00 0. -1.
        -14    1    4    4    0    0 -0.12323288771E+02 -0.15155376599E+03 -0.10797349357E+04  0.10903888934E+04  0.00000000000E+00 0.  1.
</event>
<event>
12    1  0.8461994E-002  0.1816742E+03  0.7818608E-02  0.1167162E+00
         21   -1    0    0  501  502  0.00000000000E+00  0.00000000000E+00  0.53619859312E+03  0.53619859312E+03  0.00000000000E+00 0. -1.
         21   -1    0    0  502  503 -0.00000000000E+00 -0.00000000000E+00 -0.66206775409E+02  0.66206775409E+02  0.00000000000E+00 0. -1.
         -6    2    1    2    0  503  0.43192784014E+02  0.37882283430E+02  0.14669341271E+03  0.23350479680E+03  0.17235094663E+03 0.  0.
        -24    2    3    3    0    0  0.58323767753E+02 -0.35619899720E+02  0.66920219420E+02  0.12388103128E+03  0.78725821710E+02 0.  0.
          6    2    1    2  501    0 -0.43192784014E+02 -0.37882283430E+02  0.32329840500E+03  0.36890057173E+03  0.16812224470E+03 0.  0.
         24    2    5    5    0    0 -0.60458751315E+02 -0.67169162133E+02  0.30906660701E+03  0.33174590897E+03  0.79788618226E+02 0.  0.
          5    1    5    5  501    0  0.17265967301E+02  0.29286878703E+02  0.14231797989E+02  0.37154662763E+02  0.47000000000E+01 0. -1.
        -11    1    6    6    0    0 -0.65399214095E+01 -0.33628261522E+02  0.29972067349E+02  0.45518736430E+02  0.00000000000E+00 0.  1.
         12    1    6    6    0    0 -0.53918829905E+02 -0.33540900611E+02  0.27909453966E+03  0.28622717254E+03  0.00000000000E+00 0. -1.
         -5    1    3    3    0  503 -0.15130983739E+02  0.73502183149E+02  0.79773193293E+02  0.10962376551E+03  0.47000000000E+01 0.  1.
         13    1    4    4    0    0  0.69106860947E+02 -0.40873972015E+02  0.74633351343E+02  0.10962014847E+03  0.00000000000E+00 0. -1.
        -14    1    4    4    0    0 -0.10783093195E+02  0.52540722953E+01 -0.77131319232E+01  0.14260882812E+02  0.00000000000E+00 0.  1.
</event>
<event>
12    1  0.8461994E-002  0.1868127E+03  0.7818608E-02  0.1161525E+00
         21   -1    0    0  503  502  0.00000000000E+00  0.00000000000E+00  0.10972517145E+03  0.10972517145E+03  0.00000000000E+00 0.  1.
         21   -1    0    0  501  503 -0.00000000000E+00 -0.00000000000E+00 -0.54060217270E+03  0.54060217270E+03  0.00000000000E+00 0.  1.
          6    2    1    2  501    0 -0.77376114880E+01  0.69343290390E+02 -0.42484011716E+03  0.46409925110E+03  0.17329347122E+03 0.  0.
         24    2    3    3    0    0  0.69318684907E+01  0.95966313536E+02 -0.19227315069E+03  0.22950713082E+03  0.80293053777E+02 0.  0.
         -6    2    1    2    0  502  0.77376114880E+01 -0.69343290390E+02 -0.60368840871E+01  0.18622809306E+03  0.17255751540E+03 0.  0.
        -24    2    5    5    0    0 -0.16988722937E+02 -0.10606717200E+03 -0.27667999741E+02  0.13673031271E+03  0.79942470071E+02 0.  0.
          5    1    3    3  501    0 -0.14669479979E+02 -0.26623023147E+02 -0.23256696647E+03  0.23459212028E+03  0.47000000000E+01 0. -1.
        -11    1    4    4    0    0  0.28169319710E+02  0.18842123469E+02 -0.10852265751E+03  0.11369126344E+03  0.00000000000E+00 0.  1.
         12    1    4    4    0    0 -0.21237451219E+02  0.77124190068E+02 -0.83750493177E+02  0.11581586737E+03  0.00000000000E+00 0. -1.
         -5    1    5    5    0  502  0.24726334425E+02  0.36723881610E+02  0.21631115654E+02  0.49497780345E+02  0.47000000000E+01 0.  1.
         11    1    6    6    0    0 -0.48460304119E+02 -0.53490725698E+02 -0.93889457570E+01  0.72786064006E+02  0.00000000000E+00 0. -1.
        -12    1    6    6    0    0  0.31471581182E+02 -0.52576446302E+02 -0.18279053984E+02  0.63944248705E+02  0.00000000000E+00 0.  1.
</event>
<event>
12    1  0.8461994E-002  0.1815669E+03  0.7818608E-02  0.1166729E+00
         21   -1    0    0  503  502  0.00000000000E+00  0.00000000000E+00  0.84434203177E+02  0.84434203177E+02  0.00000000000E+00 0. -1.
         21   -1    0    0  501  503 -0.00000000000E+00 -0.00000000000E+00 -0.40074646149E+03  0.40074646149E+03  0.00000000000E+00 0. -1.
          6    2    1    2  501    0 -0.36958781639E+02 -0.43012385965E+02 -0.20453465138E+03  0.27349767216E+03  0.17248343739E+03 0.  0.
         24    2    3    3    0    0  0.72834274047E+01 -0.78252172551E+02 -0.18142369285E+03  0.21221617394E+03  0.77101863349E+02 0.  0.
         -6    2    1    2    0  502  0.36958781639E+02  0.43012385965E+02 -0.11177760693E+03  0.21168299251E+03  0.17058557682E+03 0.  0.
        -24    2    5    5    0    0  0.65014064950E+02 -0.22483350596E+02 -0.58132853146E+02  0.12237095503E+03  0.82842575557E+02 0.  0.
          5    1    3    3  501    0 -0.44242209044E+02  0.35239786586E+02 -0.23110958533E+02  0.61281498220E+02  0.47000000000E+01 0. -1.
        -11    1    4    4    0    0 -0.24308265693E+02 -0.50120300020E+02 -0.14852525873E+03  0.15862751570E+03  0.00000000000E+00 0.  1.
         12    1    4    4    0    0  0.31591693098E+02 -0.28131872531E+02 -0.32898434112E+02  0.53588658240E+02  0.00000000000E+00 0. -1.
         -5    1    5    5    0  502 -0.28055283310E+02  0.65495736562E+02 -0.53644753788E+02  0.89312037477E+02  0.47000000000E+01 0.  1.
         11    1    6    6    0    0  0.41685589878E+02 -0.15225764883E+02 -0.78755866372E+02  0.90399108446E+02  0.00000000000E+00 0. -1.
        -12    1    6    6    0    0  0.23328475072E+02 -0.72575857130E+01  0.20623013226E+02  0.31971846585E+02  0.00000000000E+00 0.  1.
</event>
<event>
12    1  0.8461994E-002  0.2394778E+03  0.7818608E-02  0.1120198E+00
         21   -1    0    0  501  502  0.00000000000E+00  0.00000000000E+00  0.28867484582E+02  0.28867484582E+02  0.00000000000E+00 0. -1.
         21   -1    0    0  502  503 -0.00000000000E+00 -0.00000000000E+00 -0.27189461095E+04  0.27189461095E+04  0.00000000000E+00 0.  1.
         -6    2    1    2    0  503 -0.42062857611E+02 -0.16098570979E+03 -0.20587306078E+04  0.20725729553E+04  0.17175929896E+03 0.  0.
        -24    2    3    3    0    0 -0.58977241153E+02 -0.62052407988E+02 -0.66771437568E+03  0.67793244871E+03  0.80131774081E+02 0.  0.
          6    2    1    2  501    0  0.42062857611E+02  0.16098570979E+03 -0.63134801713E+03  0.67524063880E+03  0.17223216543E+03 0.  0.
         24    2    5    5    0    0  0.71472657010E+02  0.78992144135E+02 -0.28512840768E+03  0.31820004016E+03  0.92762908305E+02 0.  0.
          5    1    5    5  501    0 -0.29409799399E+02  0.81993565651E+02 -0.34621960945E+03  0.35704059864E+03  0.47000000000E+01 0. -1.
        -11    1    6    6    0    0  0.42431846963E+02  0.30718511792E+02 -0.24103118926E+03  0.24665790642E+03  0.00000000000E+00 0.  1.
         12    1    6    6    0    0  0.29040810047E+02  0.48273632343E+02 -0.44097218419E+02  0.71542133740E+02  0.00000000000E+00 0. -1.
         -5    1    3    3    0  503  0.16914383542E+02 -0.98933301798E+02 -0.13910162321E+04  0.13946405065E+04  0.47000000000E+01 0.  1.
         11    1    4    4    0    0  0.13278899478E+02 -0.36088767066E+02 -0.16732567279E+03  0.17168753320E+03  0.00000000000E+00 0. -1.
        -12    1    4    4    0    0 -0.72256140631E+02 -0.25963640922E+02 -0.50038870289E+03  0.50624491551E+03  0.00000000000E+00 0.  1.
</event>
<event>
12    1  0.8461994E-002  0.1881171E+03  0.7818608E-02  0.1161848E+00
         21   -1    0    0  503  502  0.00000000000E+00  0.00000000000E+00  0.80421109908E+02  0.80421109908E+02  0.00000000000E+00 0. -1.
         21   -1    0    0  501  503 -0.00000000000E+00 -0.00000000000E+00 -0.68053405658E+03  0.68053405658E+03  0.00000000000E+00 0.  1.
          6    2    1    2  501    0  0.92659356509E+01  0.62864381283E+02 -0.53027760164E+03  0.56029367313E+03  0.16940152697E+03 0.  0.
         24    2    3    3    0    0  0.17249820690E+02  0.10450839477E+03 -0.33531403574E+03  0.36071700036E+03  0.80384643419E+02 0.  0.
         -6    2    1    2    0  502 -0.92659356509E+01 -0.62864381283E+02 -0.69835345024E+02  0.20066149336E+03  0.17706007880E+03 0.  0.
        -24    2    5    5    0    0  0.31898346141E+02  0.34863897844E+01  0.12562297337E+02  0.87046422249E+02  0.79935029316E+02 0.  0.
          5    1    3    3  501    0 -0.79838850390E+01 -0.41644013486E+02 -0.19496356591E+03  0.19957667276E+03  0.47000000000E+01 0. -1.
        -13    1    4    4    0    0  0.22761428982E+02  0.10988629685E+03 -0.33467734927E+03  0.35299009759E+03  0.00000000000E+00 0.  1.
         14    1    4    4    0    0 -0.55116082919E+01 -0.53779020848E+01 -0.63668647190E+00  0.77269027728E+01  0.00000000000E+00 0. -1.
         -5    1    5    5    0  502 -0.41164281792E+02 -0.66350771068E+02 -0.82397642360E+02  0.11361507111E+03  0.47000000000E+01 0.  1.
         11    1    6    6    0    0 -0.24577280666E+01 -0.93377898307E+01  0.40062120772E+02  0.41209322573E+02  0.00000000000E+00 0. -1.
        -12    1    6    6    0    0  0.34356074208E+02  0.12824179615E+02 -0.27499823435E+02  0.45837099676E+02  0.00000000000E+00 0.  1.
</event>
<event>
12    1  0.8461994E-002  0.2920677E+03  0.7818608E-02  0.1089432E+00
         21   -1    0    0  503  502  0.00000000000E+00  0.00000000000E+00  0.29884751375E+03  0.29884751375E+03  0.00000000000E+00 0.  1.
         21   -1    0    0  501  503 -0.00000000000E+00 -0.00000000000E+00 -0.58190242089E+03  0.58190242089E+03  0.00000000000E+00 0. -1.
          6    2    1    2  501    0 -0.23328108076E+03  0.30263690690E+02 -0.45662830482E+03  0.54204513126E+03  0.17311141484E+03 0.  0.
         24    2    3    3    0    0 -0.23067455121E+03  0.37898218522E+02 -0.32190696909E+03  0.40700066336E+03  0.85897728026E+02 0.  0.
         -6    2    1    2    0  502  0.23328108076E+03 -0.30263690690E+02  0.17357339769E+03  0.33870480338E+03  0.17104755431E+03 0.  0.
        -24    2    5    5    0    0  0.54356700650E+02 -0.37197851989E+02  0.10491304927E+03  0.14687584354E+03  0.78914095122E+02 0.  0.
          5    1    3    3  501    0 -0.26065295468E+01 -0.76345278319E+01 -0.13472133573E+03  0.13504446791E+03  0.47000000000E+01 0. -1.
        -13    1    4    4    0    0 -0.21688720372E+03  0.30886528917E+02 -0.32428612300E+03  0.39135089930E+03  0.00000000000E+00 0.  1.
         14    1    4    4    0    0 -0.13787347488E+02  0.70116896048E+01  0.23791539105E+01  0.15649764062E+02  0.00000000000E+00 0. -1.
         -5    1    5    5    0  502  0.17892438011E+03  0.69341612990E+01  0.68660348416E+02  0.19182895984E+03  0.47000000000E+01 0.  1.
         13    1    6    6    0    0  0.37263053737E+02  0.20510439490E+02  0.46092268480E+02  0.62719299387E+02  0.00000000000E+00 0. -1.
        -14    1    6    6    0    0  0.17093646912E+02 -0.57708291479E+02  0.58820780791E+02  0.84156544149E+02  0.00000000000E+00 0.  1.
</event>
<event>
12    1  0.8461994E-002  0.1906132E+03  0.7818608E-02  0.1158088E+00
         21   -1    0    0  501  502  0.00000000000E+00  0.00000000000E+00  0.13564635244E+03  0.13564635244E+03  0.00000000000E+00 0. -1.
         21   -1    0    0  502  503 -0.00000000000E+00 -0.00000000000E+00 -0.71684464933E+03  0.71684464933E+03  0.00000000000E+00 0. -1.
         -6    2    1    2    0  503 -0.63156348348E+02 -0.53035401594E+02 -0.62858279804E+03  0.65684831956E+03  0.17184848780E+03 0.  0.
        -24    2    3    3    0    0 -0.35775372763E+02 -0.61780010646E+02 -0.61559787831E+03  0.62495969852E+03  0.80729362544E+02 0.  0.
          6    2    1    2  501    0  0.63156348348E+02  0.53035401594E+02  0.47384501141E+02  0.19564268221E+03  0.17096575679E+03 0.  0.
         24    2    5    5    0    0  0.32571103362E+02  0.40227366186E+02 -0.40084617769E+02  0.10198137886E+03  0.78194036147E+02 0.  0.
          5    1    5    5  501    0  0.30585244986E+02  0.12808035407E+02  0.87469118910E+02  0.93661303347E+02  0.47000000000E+01 0. -1.
        -13    1    6    6    0    0 -0.56081772759E+01 -0.19703717800E+02 -0.18794472583E+02  0.27801445056E+02  0.00000000000E+00 0.  1.
         14    1    6    6    0    0  0.38179280638E+02  0.59931083987E+02 -0.21290145186E+02  0.74179933809E+02  0.00000000000E+00 0. -1.
         -5    1    3    3    0  503 -0.27380975585E+02  0.87446090523E+01 -0.12984919723E+02  0.31888621038E+02  0.47000000000E+01 0.  1.
         11    1    4    4    0    0 -0.38626789439E+02 -0.49115382456E+01 -0.40272994729E+03  0.40460791208E+03  0.00000000000E+00 0. -1.
        -12    1    4    4    0    0  0.28514166761E+01 -0.56868472400E+02 -0.21286793102E+03  0.22035178644E+03  0.00000000000E+00 0.  1.
</event>
<event>
12    1  0.8461994E-002  0.2835160E+03  0.7818608E-02  0.1093857E+00
         21   -1    0    0  501  502  0.00000000000E+00  0.00000000000E+00  0.57529236913E+03  0.57529236913E+03  0.00000000000E+00 0.  1.
         21   -1    0    0  502  503 -0.00000000000E+00 -0.00000000000E+00 -0.14695115953E+03  0.14695115953E+03  0.00000000000E+00 0.  1.
         -6    2    1    2    0  503  0.22327498659E+03 -0.24408936712E+02  0.29591753974E+03  0.40981523152E+03  0.17301392379E+03 0.  0.
        -24    2    3    3    0    0  0.13302735918E+03 -0.11611679845E+02  0.78022364711E+02  0.17357636651E+03  0.78804544387E+02 0.  0.
          6    2    1    2  501    0 -0.22327498659E+03  0.24408936712E+02  0.13242366986E+03  0.31242829714E+03  0.17212755935E+03 0.  0.
         24    2    5    5    0    0 -0.24300106698E+03  0.16632238203E+02  0.14162522248E+03  0.28884114263E+03  0.63603082737E+02 0.  0.
          5    1    5    5  501    0  0.19726080389E+02  0.77766985084E+01 -0.92015526226E+01  0.23587154510E+02  0.47000000000E+01 0. -1.
        -11    1    6    6    0    0 -0.77928562863E+02  0.27298697075E+02  0.24408600268E+02  0.86103771920E+02  0.00000000000E+00 0.  1.
         12    1    6    6    0    0 -0.16507250412E+03 -0.10666458872E+02  0.11721662221E+03  0.20273737071E+03  0.00000000000E+00 0. -1.
         -5    1    3    3    0  503  0.90247627412E+02 -0.12797256867E+02  0.21789517503E+03  0.23623886501E+03  0.47000000000E+01 0.  1.
         11    1    4    4    0    0  0.67981570486E+02 -0.68250310081E+01 -0.44062743237E+01  0.68465248320E+02  0.00000000000E+00 0. -1.
        -12    1    4    4    0    0  0.65045788695E+02 -0.47866488372E+01  0.82428639034E+02  0.10511111819E+03  0.00000000000E+00 0.  1.
</event>
<event>
12    1  0.8461994E-002  0.2367965E+03  0.7818608E-02  0.1122007E+00
         21   -1    0    0  503  502  0.00000000000E+00  0.00000000000E+00  0.77749437280E+03  0.77749437280E+03  0.00000000000E+00 0.  1.
         21   -1    0    0  501  503 -0.00000000000E+00 -0.00000000000E+00 -0.19070179758E+03  0.19070179758E+03  0.00000000000E+00 0. -1.
          6    2    1    2  501    0 -0.11304712866E+03 -0.11514594080E+03 -0.88603247932E+02  0.25249224244E+03  0.17281075188E+03 0.  0.
         24    2    3    3    0    0  0.33793214056E+02 -0.35753891731E+02 -0.30116805410E+02  0.75551750567E+02  0.48792652680E+02 0.  0.
         -6    2    1    2    0  502  0.11304712866E+03  0.11514594080E+03  0.67539582315E+03  0.71570392794E+03  0.17330422257E+03 0.  0.
        -24    2    5    5    0    0  0.91536745305E+02  0.67900615934E+02  0.63540637692E+03  0.65000717670E+03  0.76017080621E+02 0.  0.
          5    1    3    3  501    0 -0.14684034271E+03 -0.79392049073E+02 -0.58486442522E+02  0.17694049187E+03  0.47000000000E+01 0. -1.
        -11    1    4    4    0    0  0.23458649523E+02 -0.21491021658E+02 -0.43171465698E+02  0.53627863092E+02  0.00000000000E+00 0.  1.
         12    1    4    4    0    0  0.10334564534E+02 -0.14262870073E+02  0.13054660287E+02  0.21923887475E+02  0.00000000000E+00 0. -1.
         -5    1    5    5    0  502  0.21510383350E+02  0.47245324870E+02  0.39989446234E+02  0.65696751244E+02  0.47000000000E+01 0.  1.
         13    1    6    6    0    0  0.58727527668E+00 -0.10466449252E+02  0.16385959284E+02  0.19452277857E+02  0.00000000000E+00 0. -1.
        -14    1    6    6    0    0  0.90949470029E+02  0.78367065186E+02  0.61902041764E+03  0.63055489884E+03  0.00000000000E+00 0.  1.
</event>
<event>
12    1  0.8461994E-002  0.1934976E+03  0.7818608E-02  0.1155349E+00
         21   -1    0    0  501  502  0.00000000000E+00  0.00000000000E+00  0.28972766184E+03  0.28972766184E+03  0.00000000000E+00 0.  1.
         21   -1    0    0  502  503 -0.00000000000E+00 -0.00000000000E+00 -0.24185185986E+03  0.24185185986E+03  0.00000000000E+00 0.  1.
         -6    2    1    2    0  503 -0.84077427973E+02  0.34675917343E+02 -0.15744682381E+03  0.24946103388E+03  0.17079189664E+03 0.  0.
        -24    2    3    3    0    0 -0.34020001959E+02  0.83292321897E+02 -0.78028593555E+02  0.14363737874E+03  0.80301081804E+02 0.  0.
          6    2    1    2  501    0  0.84077427973E+02 -0.34675917343E+02  0.20532262579E+03  0.28211848782E+03  0.17076892976E+03 0.  0.
         24    2    5    5    0    0  0.46623304707E+02 -0.32117556377E+01  0.21316849177E+03  0.23235452059E+03  0.79773237611E+02 0.  0.
          5    1    5    5  501    0  0.37454123266E+02 -0.31464161706E+02 -0.78458659796E+01  0.49763967229E+02  0.47000000000E+01 0. -1.
        -11    1    6    6    0    0  0.51675159913E+02 -0.27853057883E+02  0.96077475466E+02  0.11259216792E+03  0.00000000000E+00 0.  1.
         12    1    6    6    0    0 -0.50518552062E+01  0.24641302245E+02  0.11709101631E+03  0.11976235267E+03  0.00000000000E+00 0. -1.
         -5    1    3    3    0  503 -0.50057426014E+02 -0.48616404553E+02 -0.79418230252E+02  0.10582365514E+03  0.47000000000E+01 0.  1.
         13    1    4    4    0    0  0.15068053047E+02  0.55508085236E+01  0.78071275173E+01  0.17855221588E+02  0.00000000000E+00 0. -1.
        -14    1    4    4    0    0 -0.49088055006E+02  0.77741513373E+02 -0.85835721072E+02  0.12578215715E+03  0.00000000000E+00 0.  1.
</event>
<event>
12    1  0.8461994E-002  0.1944265E+03  0.7818608E-02  0.1154803E+00
         21   -1    0    0  501  502  0.00000000000E+00  0.00000000000E+00  0.32109831670E+03  0.32109831670E+03  0.00000000000E+00 0. -1.
         21   -1    0    0  502  503 -0.00000000000E+00 -0.00000000000E+00 -0.41809810436E+03  0.41809810436E+03  0.00000000000E+00 0.  1.
         -6    2    1    2    0  503  0.28571137280E+02  0.81153257698E+02 -0.36212107549E+03  0.41042454017E+03  0.17295799703E+03 0.  0.
        -24    2    3    3    0    0  0.66162114009E+02  0.16224333636E+02 -0.12484333421E+03  0.16152362973E+03  0.76572648716E+02 0.  0.
          6    2    1    2  501    0 -0.28571137280E+02 -0.81153257698E+02  0.26512128783E+03  0.32877188090E+03  0.17435449891E+03 0.  0.
         24    2    5    5    0    0 -0.62272036692E+02 -0.15666325443E+00  0.10173083133E+03  0.14325980527E+03  0.79349723779E+02 0.  0.
          5    1    5    5  501    0  0.33700899412E+02 -0.80996594444E+02  0.16339045650E+03  0.18551207563E+03  0.47000000000E+01 0. -1.
        -13    1    6    6    0    0  0.57318466901E+01 -0.11169513735E+02 -0.71260192132E+01  0.14435797636E+02  0.00000000000E+00 0.  1.
         14    1    6    6    0    0 -0.68003883382E+02  0.11012850481E+02  0.10885685055E+03  0.12882400763E+03  0.00000000000E+00 0. -1.
         -5    1    3    3    0  503 -0.37590976729E+02  0.64928924063E+02 -0.23727774128E+03  0.24890091044E+03  0.47000000000E+01 0.  1.
         13    1    4    4    0    0 -0.71572601918E+01 -0.12424270401E+02 -0.48659899620E+00  0.14346624935E+02  0.00000000000E+00 0. -1.
        -14    1    4    4    0    0  0.73319374201E+02  0.28648604036E+02 -0.12435673522E+03  0.14717700479E+03  0.00000000000E+00 0.  1.
</event>
<event>
12    1  0.8461994E-002  0.2442500E+03  0.7818608E-02  0.1117313E+00
         21   -1    0    0  503  502  0.00000000000E+00  0.00000000000E+00  0.14575389623E+03  0.14575389623E+03  0.00000000000E+00 0. -1.
         21   -1    0    0  501  503 -0.00000000000E+00 -0.00000000000E+00 -0.50629275610E+03  0.50629275610E+03  0.00000000000E+00 0.  1.
          6    2    1    2  501    0  0.53100583342E+02  0.16227624626E+03 -0.35773341236E+02  0.24685578225E+03  0.17465621442E+03 0.  0.
         24    2    3    3    0    0 -0.51725157491E+01  0.10942854509E+03 -0.73375773555E+02  0.15953644583E+03  0.89813762889E+02 0.  0.
         -6    2    1    2    0  502 -0.53100583342E+02 -0.16227624626E+03 -0.32476551864E+03  0.40519087008E+03  0.17191203287E+03 0.  0.
        -24    2    5    5    0    0 -0.70248736768E+02 -0.85880836016E+02 -0.10658906565E+03  0.17334313446E+03  0.79851176166E+02 0.  0.
          5    1    3    3  501    0  0.58273099091E+02  0.52847701171E+02  0.37602432318E+02  0.87319336421E+02  0.47000000000E+01 0. -1.
        -11    1    4    4    0    0  0.33276871890E+02  0.87063599968E+02 -0.66569555055E+02  0.11453788152E+03  0.00000000000E+00 0.  1.
         12    1    4    4    0    0 -0.38449387639E+02  0.22364945123E+02 -0.68062184999E+01  0.44998564316E+02  0.00000000000E+00 0. -1.
         -5    1    5    5    0  502  0.17148153426E+02 -0.76395410246E+02 -0.21817645299E+03  0.23184773562E+03  0.47000000000E+01 0.  1.
         13    1    6    6    0    0  0.80703168242E+01  0.89487217422E+01 -0.18432484526E+02  0.22021946332E+02  0.00000000000E+00 0. -1.
        -14    1    6    6    0    0 -0.78319053593E+02 -0.94829557758E+02 -0.88156581121E+02  0.15132118812E+03  0.00000000000E+00 0.  1.
</event>
<event>
12    1  0.8461994E-002  0.1808866E+03  0.7818608E-02  0.1167066E+00
         21   -1    0    0  501  502  0.00000000000E+00  0.00000000000E+00  0.46853014741E+02  0.46853014741E+02  0.00000000000E+00 0. -1.
         21   -1    0    0  502  503 -0.00000000000E+00 -0.00000000000E+00 -0.70057044925E+03  0.70057044925E+03  0.00000000000E+00 0. -1.
         -6    2    1    2    0  503 -0.51924308255E+02  0.63969220630E+01 -0.35590945860E+03  0.39923866809E+03  0.17315575929E+03 0.  0.
        -24    2    3    3    0    0 -0.90320050376E+02  0.16864266152E+02 -0.32929612627E+03  0.35113297442E+03  0.80101884979E+02 0.  0.
          6    2    1    2  501    0  0.51924308255E+02 -0.63969220630E+01 -0.29780797591E+03  0.34818479591E+03  0.17264416348E+03 0.  0.
         24    2    5    5    0    0  0.10237013818E+02 -0.47741775382E+02 -0.82294998603E+02  0.12476778491E+03  0.80065346990E+02 0.  0.
          5    1    5    5  501    0  0.41687294437E+02  0.41344853319E+02 -0.21551297731E+03  0.22341701099E+03  0.47000000000E+01 0. -1.
        -13    1    6    6    0    0 -0.13955179236E+02 -0.33156790733E+01  0.11378054285E+02  0.18308491870E+02  0.00000000000E+00 0.  1.
         14    1    6    6    0    0  0.24192193055E+02 -0.44426096308E+02 -0.93673052887E+02  0.10645929304E+03  0.00000000000E+00 0. -1.
         -5    1    3    3    0  503  0.38395742122E+02 -0.10467344089E+02 -0.26613332335E+02  0.48105693668E+02  0.47000000000E+01 0.  1.
         13    1    4    4    0    0 -0.82393201875E+02  0.40205486343E+02 -0.20725033253E+03  0.22662264049E+03  0.00000000000E+00 0. -1.
        -14    1    4    4    0    0 -0.79268485013E+01 -0.23341220191E+02 -0.12204579374E+03  0.12451033393E+03  0.00000000000E+00 0.  1.
</event>
<event>
12    1  0.8461994E-002  0.1911976E+03  0.7818608E-02  0.1157662E+00
         21   -1    0    0  501  502  0.00000000000E+00  0.00000000000E+00  0.17604931304E+04  0.17604931304E+04  0.00000000000E+00 0.  1.
         21   -1    0    0  502  503 -0.00000000000E+00 -0.00000000000E+00 -0.61954158891E+02  0.61954158891E+02  0.00000000000E+00 0. -1.
         -6    2    1    2    0  503 -0.57173074941E+01 -0.81870850678E+02  0.10416540215E+03  0.21665041384E+03  0.17132264011E+03 0.  0.
        -24    2    3    3    0    0 -0.44369533510E+02 -0.11746884700E+02  0.76027257544E+01  0.91120315243E+02  0.78348360589E+02 0.  0.
          6    2    1    2  501    0  0.57173074941E+01  0.81870850678E+02  0.15943735693E+04  0.16057968754E+04  0.17268758714E+03 0.  0.
         24    2    5    5    0    0  0.55731826001E+02  0.97199924723E+02  0.10499399963E+04  0.10588357817E+04  0.78774075994E+02 0.  0.
          5    1    5    5  501    0 -0.50014518506E+02 -0.15329074045E+02  0.54443357305E+03  0.54696109371E+03  0.47000000000E+01 0. -1.
        -13    1    6    6    0    0  0.22493100336E+02  0.64224346396E+02  0.87805425801E+03  0.88068722385E+03  0.00000000000E+00 0.  1.
         14    1    6    6    0    0  0.33238725665E+02  0.32975578327E+02  0.17188573829E+03  0.17814855789E+03  0.00000000000E+00 0. -1.
         -5    1    3    3    0  503  0.38652226016E+02 -0.70123965978E+02  0.96562676395E+02  0.12553009859E+03  0.47000000000E+01 0.  1.
         13    1    4    4    0    0  0.12805440633E+02 -0.11736023919E+01 -0.22296470124E+02  0.25738866183E+02  0.00000000000E+00 0. -1.
        -14    1    4    4    0    0 -0.57174974143E+02 -0.10573282308E+02  0.29899195878E+02  0.65381449060E+02  0.00000000000E+00 0.  1.
</event>
<event>
12    1  0.8461994E-002  0.2269475E+03  0.7818608E-02  0.1129567E+00
         21   -1    0    0  501  502  0.00000000000E+00  0.00000000000E+00  0.24877789121E+04  0.24877789121E+04  0.00000000000E+00 0.  1.
         21   -1    0    0  502  503 -0.00000000000E+00 -0.00000000000E+00 -0.27214506176E+02  0.27214506176E+02  0.00000000000E+00 0. -1.
         -6    2    1    2    0  503 -0.13775313676E+03  0.34051155028E+02  0.58884139698E+03  0.62956185459E+03  0.17169312774E+03 0.  0.
        -24    2    3    3    0    0 -0.10079287188E+03 -0.39218102058E+02  0.43623870721E+03  0.45622946830E+03  0.78382750161E+02 0.  0.
          6    2    1    2  501    0  0.13775313676E+03 -0.34051155028E+02  0.18717230089E+04  0.18854315637E+04  0.17711507919E+03 0.  0.
         24    2    5    5    0    0  0.11878336626E+03  0.40766255367E+02  0.11620835139E+04  0.11715913855E+04  0.80105590174E+02 0.  0.
          5    1    5    5  501    0  0.18969770501E+02 -0.74817410395E+02  0.70963949501E+03  0.71384017817E+03  0.47000000000E+01 0. -1.
        -13    1    6    6    0    0  0.34097167168E+02 -0.13140844391E+02  0.56045479622E+03  0.56164479629E+03  0.00000000000E+00 0.  1.
         14    1    6    6    0    0  0.84686199091E+02  0.53907099758E+02  0.60162871771E+03  0.60994658922E+03  0.00000000000E+00 0. -1.
         -5    1    3    3    0  503 -0.36960264885E+02  0.73269257086E+02  0.15260268977E+03  0.17333238630E+03  0.47000000000E+01 0.  1.
         13    1    4    4    0    0 -0.19525468855E+02  0.18052157868E+02  0.42505663405E+02  0.50138366140E+02  0.00000000000E+00 0. -1.
        -14    1    4    4    0    0 -0.81267403021E+02 -0.57270259926E+02  0.39373304381E+03  0.40609110216E+03  0.00000000000E+00 0.  1.
</event>
<event>
12    1  0.8461994E-002  0.1900157E+03  0.7818608E-02  0.1158548E+00
         21   -1    0    0  501  502  0.00000000000E+00  0.00000000000E+00  0.10514494382E+04  0.10514494382E+04  0.00000000000E+00 0.  1.
         21   -1    0    0  502  503 -0.00000000000E+00 -0.00000000000E+00 -0.83808091251E+02  0.83808091251E+02  0.00000000000E+00 0.  1.
         -6    2    1    2    0  503 -0.39810798073E+02  0.69245629159E+02  0.47132875397E+02  0.19534167101E+03  0.17192150444E+03 0.  0.
        -24    2    3    3    0    0 -0.51932606139E+02 -0.16158523273E+02  0.82991029470E+01  0.10062652246E+03  0.84253952176E+02 0.  0.
          6    2    1    2  501    0  0.39810798073E+02 -0.69245629159E+02  0.92050847157E+03  0.93991585845E+03  0.17241263859E+03 0.  0.
         24    2    5    5    0    0 -0.21231792054E+02  0.93207972955E+00  0.60878820979E+03  0.61458107667E+03  0.81456477078E+02 0.  0.
          5    1    5    5  501    0  0.61042590127E+02 -0.70177708889E+02  0.31172026178E+03  0.32533478179E+03  0.47000000000E+01 0. -1.
        -13    1    6    6    0    0  0.16298321556E+02 -0.30790133520E+02  0.27391237395E+03  0.27611891679E+03  0.00000000000E+00 0.  1.
         14    1    6    6    0    0 -0.37530113609E+02  0.31722213250E+02  0.33487583584E+03  0.33846215988E+03  0.00000000000E+00 0. -1.
         -5    1    3    3    0  503  0.12121808066E+02  0.85404152432E+02  0.38833772450E+02  0.94715148556E+02  0.47000000000E+01 0.  1.
         13    1    4    4    0    0 -0.21957007706E+02 -0.28750642596E+02  0.40886738713E+02  0.54593360765E+02  0.00000000000E+00 0. -1.
        -14    1    4    4    0    0 -0.29975598434E+02  0.12592119324E+02 -0.32587635766E+02  0.46033161691E+02  0.00000000000E+00 0.  1.
</event>
<event>
12    1  0.8461994E-002  0.1717279E+03  0.7818608E-02  0.1176201E+00
         21   -1    0    0  501  502  0.00000000000E+00  0.00000000000E+00  0.71535740131E+03  0.71535740131E+03  0.00000000000E+00 0.  1.
         21   -1    0    0  502  503 -0.00000000000E+00 -0.00000000000E+00 -0.41545116276E+02  0.41545116276E+02  0.00000000000E+00 0.  1.
         -6    2    1    2    0  503 -0.10938332136E+02  0.16744592899E+01  0.29683351791E+03  0.34265203755E+03  0.17081519416E+03 0.  0.
        -24    2    3    3    0    0  0.12007788374E+02 -0.21627760985E+02  0.61813911808E+02  0.10532141759E+03  0.81606949970E+02 0.  0.
          6    2    1    2  501    0  0.10938332136E+02 -0.16744592899E+01  0.37697876712E+03  0.41425048004E+03  0.17137099646E+03 0.  0.
         24    2    5    5    0    0 -0.41996876468E+02 -0.46473957290E+02  0.23397791202E+03  0.25525215964E+03  0.80525991742E+02 0.  0.
          5    1    5    5  501    0  0.52935208604E+02  0.44799498000E+02  0.14300085510E+03  0.15899832040E+03  0.47000000000E+01 0. -1.
        -11    1    6    6    0    0 -0.35515241839E+01  0.65569604030E+00  0.15748283238E+03  0.15752423863E+03  0.00000000000E+00 0.  1.
         12    1    6    6    0    0 -0.38445352284E+02 -0.47129653330E+02  0.76495079646E+02  0.97727921011E+02  0.00000000000E+00 0. -1.
         -5    1    3    3    0  503 -0.22946120510E+02  0.23302220274E+02  0.23501960610E+03  0.23733061996E+03  0.47000000000E+01 0.  1.
         13    1    4    4    0    0 -0.30390683896E+02 -0.13701174879E+02  0.50872768103E+02  0.60822318232E+02  0.00000000000E+00 0. -1.
        -14    1    4    4    0    0  0.42398472270E+02 -0.79265861059E+01  0.10941143705E+02  0.44499099358E+02  0.00000000000E+00 0.  1.
</event>
<event>
12    1  0.8461994E-002  0.1719010E+03  0.7818608E-02  0.1176384E+00
         21   -1    0    0  501  502  0.00000000000E+00  0.00000000000E+00  0.26629183334E+03  0.26629183334E+03  0.00000000000E+00 0.  1.
         21   -1    0    0  502  503 -0.00000000000E+00 -0.00000000000E+00 -0.11119211894E+03  0.11119211894E+03  0.00000000000E+00 0.  1.
         -6    2    1    2    0  503  0.87818720303E+01  0.10311138699E+02  0.98885555011E+02  0.19662488918E+03  0.16940942476E+03 0.  0.
        -24    2    3    3    0    0  0.21880138127E+02  0.36506434420E+02 -0.40746354306E+01  0.89477099146E+02  0.78600816911E+02 0.  0.
          6    2    1    2  501    0 -0.87818720303E+01 -0.10311138699E+02  0.56214159392E+02  0.18085906310E+03  0.17136664825E+03 0.  0.
         24    2    5    5    0    0  0.31252341756E+02  0.42032831050E+02  0.66511359944E+02  0.11399538251E+03  0.76339494900E+02 0.  0.
          5    1    5    5  501    0 -0.40034213786E+02 -0.52343969749E+02 -0.10297200552E+02  0.66863680588E+02  0.47000000000E+01 0. -1.
        -11    1    6    6    0    0  0.13159750008E+02  0.50673904086E+01 -0.16280418806E+02  0.21538558501E+02  0.00000000000E+00 0.  1.
         12    1    6    6    0    0  0.18092591748E+02  0.36965440641E+02  0.82791778750E+02  0.92456824013E+02  0.00000000000E+00 0. -1.
         -5    1    3    3    0  503 -0.13098266097E+02 -0.26195295721E+02  0.10296019044E+03  0.10714779003E+03  0.47000000000E+01 0.  1.
         13    1    4    4    0    0  0.22987326421E+02 -0.21436030081E+02 -0.14675416778E+01  0.31465445177E+02  0.00000000000E+00 0. -1.
        -14    1    4    4    0    0 -0.11071882935E+01  0.57942464501E+02 -0.26070937528E+01  0.58011653969E+02  0.00000000000E+00 0.  1.
</event>
<event>
12    1  0.8461994E-002  0.1940131E+03  0.7818608E-02  0.1155006E+00
         21   -1    0    0  503  502  0.00000000000E+00  0.00000000000E+00  0.57166385485E+02  0.57166385485E+02  0.00000000000E+00 0. -1.
         21   -1    0    0  501  503 -0.00000000000E+00 -0.00000000000E+00 -0.17304048240E+04  0.17304048240E+04  0.00000000000E+00 0.  1.
          6    2    1    2  501    0 -0.88696711154E+02  0.12903563815E+02 -0.15402470455E+04  0.15523525927E+04  0.17147595268E+03 0.  0.
         24    2    3    3    0    0  0.66371648684E+01  0.98898748191E+01 -0.10379790616E+04  0.10410866659E+04  0.79492465289E+02 0.  0.
         -6    2    1    2    0  502  0.88696711154E+02 -0.12903563815E+02 -0.13299139302E+03  0.23521861679E+03  0.17206823803E+03 0.  0.
        -24    2    5    5    0    0  0.12549524431E+03  0.14919689532E+02 -0.12033313680E+03  0.18715005202E+03  0.67627100160E+02 0.  0.
          5    1    3    3  501    0 -0.95333876022E+02  0.30136889964E+01 -0.50226798385E+03  0.51126592673E+03  0.47000000000E+01 0. -1.
        -11    1    4    4    0    0 -0.16158939448E+02 -0.22600012791E+02 -0.73424459120E+03  0.73477002634E+03  0.00000000000E+00 0.  1.
         12    1    4    4    0    0  0.22796104316E+02  0.32489887610E+02 -0.30373447041E+03  0.30631663958E+03  0.00000000000E+00 0. -1.
         -5    1    5    5    0  502 -0.36798533157E+02 -0.27823253347E+02 -0.12658256213E+02  0.48068564776E+02  0.47000000000E+01 0.  1.
         11    1    6    6    0    0  0.44864434491E+02 -0.15169803386E+02 -0.12118799624E+02  0.48885639213E+02  0.00000000000E+00 0. -1.
        -12    1    6    6    0    0  0.80630809820E+02  0.30089492917E+02 -0.10821433718E+03  0.13826441280E+03  0.00000000000E+00 0.  1.
</event>
<event>
12    1  0.8461994E-002  0.2135349E+03  0.7818608E-02  0.1139193E+00
         21   -1    0    0  501  502  0.00000000000E+00  0.00000000000E+00  0.41072633703E+02  0.41072633703E+02  0.00000000000E+00 0.  1.
         21   -1    0    0  502  503 -0.00000000000E+00 -0.00000000000E+00 -0.12119298366E+04  0.12119298366E+04  0.00000000000E+00 0.  1.
         -6    2    1    2    0  503  0.11933379273E+03 -0.30367197561E+02 -0.77361627534E+03  0.80200636222E+03  0.17195738657E+03 0.  0.
        -24    2    3    3    0    0  0.12181391676E+03  0.32470319440E+02 -0.53452856033E+03  0.55474186815E+03  0.78261143062E+02 0.  0.
          6    2    1    2  501    0 -0.11933379273E+03  0.30367197561E+02 -0.39724092757E+03  0.45099610810E+03  0.17445461933E+03 0.  0.
         24    2    5    5    0    0  0.10669821182E+02  0.13156636099E+02 -0.13499018802E+03  0.15774760691E+03  0.79843687698E+02 0.  0.
          5    1    5    5  501    0 -0.13000361391E+03  0.17210561462E+02 -0.26225073955E+03  0.29324850119E+03  0.47000000000E+01 0. -1.
        -13    1    6    6    0    0 -0.32770533630E+02  0.10853303347E+02 -0.83416944733E+02  0.90277841891E+02  0.00000000000E+00 0.  1.
         14    1    6    6    0    0  0.43440354812E+02  0.23033327519E+01 -0.51573243290E+02  0.67469765017E+02  0.00000000000E+00 0. -1.
         -5    1    3    3    0  503 -0.24801240245E+01 -0.62837517000E+02 -0.23908771501E+03  0.24726449407E+03  0.47000000000E+01 0.  1.
         13    1    4    4    0    0  0.10065440522E+02  0.31807165341E+02 -0.80005069543E+02  0.86682293536E+02  0.00000000000E+00 0. -1.
        -14    1    4    4    0    0  0.11174847623E+03  0.66315409808E+00 -0.45452349078E+03  0.46805957461E+03  0.00000000000E+00 0.  1.
</event>
<event>
12    1  0.8461994E-002  0.2249054E+03  0.7818608E-02  0.1130817E+00
         21   -1    0    0  501  502  0.00000000000E+00  0.00000000000E+00  0.21168308209E+03  0.21168308209E+03  0.00000000000E+00 0. -1.
         21   -1    0    0  502  503 -0.00000000000E+00 -0.00000000000E+00 -0.24057498575E+03  0.24057498575E+03  0.00000000000E+00 0.  1.
         -6    2    1    2    0  503  0.13993830772E+03 -0.38310490605E+02  0.17236992622E+02  0.22556498716E+03  0.17184884597E+03 0.  0.
        -24    2    3    3    0    0  0.87888375204E+02  0.21345841996E+02 -0.31633220092E+02  0.13240672835E+03  0.91383092703E+02 0.  0.
          6    2    1    2  501    0 -0.13993830772E+03  0.38310490605E+02 -0.46128896274E+02  0.22669308068E+03  0.16796265686E+03 0.  0.
         24    2    5    5    0    0 -0.15336443844E+03  0.10585409096E+02 -0.31938857367E+01  0.17364172574E+03  0.80675561040E+02 0.  0.
          5    1    5    5  501    0  0.13426130724E+02  0.27725081509E+02 -0.42935010537E+02  0.53051354938E+02  0.47000000000E+01 0. -1.
        -13    1    6    6    0    0 -0.44065503825E+02 -0.33371704092E+02  0.52964221074E+01  0.55529193660E+02  0.00000000000E+00 0.  1.
         14    1    6    6    0    0 -0.10929893461E+03  0.43957113188E+02 -0.84903078441E+01  0.11811253208E+03  0.00000000000E+00 0. -1.
         -5    1    3    3    0  503  0.52049932512E+02 -0.59656332600E+02  0.48870212714E+02  0.93158258810E+02  0.47000000000E+01 0.  1.
         13    1    4    4    0    0 -0.72519241245E+01  0.30548863832E+02  0.97601953796E+00  0.31412992521E+02  0.00000000000E+00 0. -1.
        -14    1    4    4    0    0  0.95140299328E+02 -0.92030218366E+01 -0.32609239630E+02  0.10099373583E+03  0.00000000000E+00 0.  1.
</event>
<event>
12    1  0.8461994E-002  0.1975457E+03  0.7818608E-02  0.1152134E+00
         21   -1    0    0  503  502  0.00000000000E+00  0.00000000000E+00  0.68540233038E+02  0.68540233038E+02  0.00000000000E+00 0. -1.
         21   -1    0    0  501  503 -0.00000000000E+00 -0.00000000000E+00 -0.13559799345E+04  0.13559799345E+04  0.00000000000E+00 0. -1.
          6    2    1    2  501    0 -0.61349168998E+02  0.73999054211E+02 -0.11886003946E+04  0.12049046406E+04  0.17258248517E+03 0.  0.
         24    2    3    3    0    0 -0.82848232712E+02  0.63322972322E+02 -0.11575409433E+04  0.11653702507E+04  0.85517000308E+02 0.  0.
         -6    2    1    2    0  502  0.61349168998E+02 -0.73999054211E+02 -0.98839306784E+02  0.21961552692E+03  0.17094499273E+03 0.  0.
        -24    2    5    5    0    0 -0.27845056766E+02 -0.10396933633E+02 -0.60195084329E+02  0.10335587966E+03  0.78584643971E+02 0.  0.
          5    1    3    3  501    0  0.21499063713E+02  0.10676081890E+02 -0.31059451369E+02  0.39534389895E+02  0.47000000000E+01 0. -1.
        -11    1    4    4    0    0 -0.14840115128E+02 -0.20723562316E+02 -0.29011475373E+03  0.29123232201E+03  0.00000000000E+00 0.  1.
         12    1    4    4    0    0 -0.68008117584E+02  0.84046534637E+02 -0.86742618954E+03  0.87413792867E+03  0.00000000000E+00 0. -1.
         -5    1    5    5    0  502  0.89194225764E+02 -0.63602120578E+02 -0.38644222456E+02  0.11625964726E+03  0.47000000000E+01 0.  1.
         13    1    6    6    0    0  0.22562323035E+02 -0.91381338714E+01  0.62701985787E+00  0.24350709749E+02  0.00000000000E+00 0. -1.
        -14    1    6    6    0    0 -0.50407379801E+02 -0.12587997616E+01 -0.60822104187E+02  0.79005169913E+02  0.00000000000E+00 0.  1.
</event>
<event>
12    1  0.8461994E-002  0.2261454E+03  0.7818608E-02  0.1129422E+00
         21   -1    0    0  503  502  0.00000000000E+00  0.00000000000E+00  0.17004288205E+03  0.17004288205E+03  0.00000000000E+00 0. -1.
         21   -1    0    0  501  503 -0.00000000000E+00 -0.00000000000E+00 -0.44376701257E+03  0.44376701257E+03  0.00000000000E+00 0. -1.
          6    2    1    2  501    0  0.39956788892E+02 -0.14135131089E+03 -0.31130734788E+03  0.38477788342E+03  0.17194480702E+03 0.  0.
         24    2    3    3    0    0  0.14279760970E+02 -0.58626572995E+01 -0.16583453874E+03  0.18427622953E+03  0.78856529267E+02 0.  0.
         -6    2    1    2    0  502 -0.39956788892E+02  0.14135131089E+03  0.37583217351E+02  0.22903201119E+03  0.17165787444E+03 0.  0.
        -24    2    5    5    0    0 -0.62383413064E+02  0.10988866685E+03  0.81213699066E+02  0.17056355494E+03  0.80802549660E+02 0.  0.
          5    1    3    3  501    0  0.25677027922E+02 -0.13548865359E+03 -0.14547280914E+03  0.20050165389E+03  0.47000000000E+01 0. -1.
        -13    1    4    4    0    0  0.29331258880E+02 -0.34787973127E+02 -0.74515125342E+02  0.87309963501E+02  0.00000000000E+00 0.  1.
         14    1    4    4    0    0 -0.15051497910E+02  0.28925315827E+02 -0.91319413394E+02  0.96966266029E+02  0.00000000000E+00 0. -1.
         -5    1    5    5    0  502  0.22426624172E+02  0.31462644043E+02 -0.43630481715E+02  0.58468456253E+02  0.47000000000E+01 0.  1.
         11    1    6    6    0    0 -0.93665087479E+01  0.93370076263E+02  0.58413610740E+02  0.11053439531E+03  0.00000000000E+00 0. -1.
        -12    1    6    6    0    0 -0.53016904316E+02  0.16518590585E+02  0.22800088326E+02  0.60029159629E+02  0.00000000000E+00 0.  1.
</event>
<event>
12    1  0.8461994E-002  0.2009069E+03  0.7818608E-02  0.1149930E+00
         21   -1    0    0  501  502  0.00000000000E+00  0.00000000000E+00  0.31431396903E+03  0.31431396903E+03  0.00000000000E+00 0. -1.
         21   -1    0    0  502  503 -0.00000000000E+00 -0.00000000000E+00 -0.14334229510E+03  0.14334229510E+03  0.00000000000E+00 0. -1.
         -6    2    1    2    0  503 -0.16834475880E+02  0.10321871137E+03  0.16692386155E+03  0.26120332672E+03  0.17154037536E+03 0.  0.
        -24    2    3    3    0    0  0.36930348526E+02  0.27695698275E+01  0.78917821417E+02  0.11716222328E+03  0.78277984561E+02 0.  0.
          6    2    1    2  501    0  0.16834475880E+02 -0.10321871137E+03  0.40478123778E+01  0.19645293741E+03  0.16625242818E+03 0.  0.
         24    2    5    5    0    0  0.71547379789E+01  0.15867572142E+01 -0.21575296639E+02  0.88025462632E+02  0.85025176109E+02 0.  0.
          5    1    5    5  501    0  0.96797379014E+01 -0.10480546858E+03  0.25623109017E+02  0.10842747478E+03  0.47000000000E+01 0. -1.
        -11    1    6    6    0    0  0.29764454171E+02 -0.11496343164E+02  0.20912383311E+02  0.38149920236E+02  0.00000000000E+00 0.  1.
         12    1    6    6    0    0 -0.22609716192E+02  0.13083100378E+02 -0.42487679950E+02  0.49875542396E+02  0.00000000000E+00 0. -1.
         -5    1    3    3    0  503 -0.53764824407E+02  0.10044914154E+03  0.88006040132E+02  0.14404110344E+03  0.47000000000E+01 0.  1.
         11    1    4    4    0    0 -0.48754449114E+01 -0.19614793015E+02  0.64507443515E+02  0.67599706634E+02  0.00000000000E+00 0. -1.
        -12    1    4    4    0    0  0.41805793438E+02  0.22384362842E+02  0.14410377902E+02  0.49562516644E+02  0.00000000000E+00 0.  1.
</event>
<event>
12    1  0.8461994E-002  0.1846569E+03  0.7818608E-02  0.1163890E+00
         21   -1    0    0  501  502  0.00000000000E+00  0.00000000000E+00  0.41072027788E+02  0.41072027788E+02  0.00000000000E+00 0.  1.
         21   -1    0    0  502  503 -0.00000000000E+00 -0.00000000000E+00 -0.82608614071E+03  0.82608614071E+03  0.00000000000E+00 0.  1.
         -6    2    1    2    0  503  0.48936892285E+02 -0.45915706425E+02 -0.43107450569E+03  0.46895989629E+03  0.17203221602E+03 0.  0.
        -24    2    3    3    0    0  0.24048486739E+02 -0.56814772254E+02 -0.12556778583E+03  0.16221135392E+03  0.82091451695E+02 0.  0.
          6    2    1    2  501    0 -0.48936892285E+02  0.45915706425E+02 -0.35393960723E+03  0.39819827220E+03  0.16966303928E+03 0.  0.
         24    2    5    5    0    0 -0.62068609644E+02  0.79027189416E+02 -0.19167979702E+03  0.23200817528E+03  0.83599281342E+02 0.  0.
          5    1    5    5  501    0  0.13131717359E+02 -0.33111482991E+02 -0.16225981021E+03  0.16619009692E+03  0.47000000000E+01 0. -1.
        -11    1    6    6    0    0  0.40447495952E+01  0.16174575466E+01 -0.82935816332E+02  0.83050140270E+02  0.00000000000E+00 0.  1.
         12    1    6    6    0    0 -0.66113359240E+02  0.77409731870E+02 -0.10874398069E+03  0.14895803501E+03  0.00000000000E+00 0. -1.
         -5    1    3    3    0  503  0.24888405546E+02  0.10899065829E+02 -0.30550671986E+03  0.30674854237E+03  0.47000000000E+01 0.  1.
         13    1    4    4    0    0  0.74651832979E+01 -0.76544625214E+02 -0.93123446934E+02  0.12077576321E+03  0.00000000000E+00 0. -1.
        -14    1    4    4    0    0  0.16583303441E+02  0.19729852959E+02 -0.32444338895E+02  0.41435590706E+02  0.00000000000E+00 0.  1.
</event>
<event>
12    1  0.8461994E-002  0.2089018E+03  0.7818608E-02  0.1142443E+00
         21   -1    0    0  503  502  0.00000000000E+00  0.00000000000E+00  0.14320805343E+03  0.14320805343E+03  0.00000000000E+00 0. -1.
         21   -1    0    0  501  503 -0.00000000000E+00 -0.00000000000E+00 -0.61425724748E+03  0.61425724748E+03  0.00000000000E+00 0. -1.
          6    2    1    2  501    0  0.98106306441E+02  0.68668843354E+02 -0.50439412274E+03  0.54594265019E+03  0.17117151875E+03 0.  0.
         24    2    3    3    0    0 -0.13515780764E+02  0.56645292588E+02 -0.24766627115E+03  0.26570108313E+03  0.76597116205E+02 0.  0.
         -6    2    1    2    0  502 -0.98106306441E+02 -0.68668843354E+02  0.33344928686E+02  0.21152265071E+03  0.17114230945E+03 0.  0.
        -24    2    5    5    0    0 -0.42681911320E+02 -0.10833931401E+03  0.26733688901E+02  0.14288295150E+03  0.78368968304E+02 0.  0.
          5    1    3    3  501    0  0.11162208721E+03  0.12023550766E+02 -0.25672785160E+03  0.28024156706E+03  0.47000000000E+01 0. -1.
        -13    1    4    4    0    0 -0.10878235481E+01  0.13143593392E+02 -0.19830464518E+03  0.19874272240E+03  0.00000000000E+00 0.  1.
         14    1    4    4    0    0 -0.12427957216E+02  0.43501699196E+02 -0.49361625966E+02  0.66958360729E+02  0.00000000000E+00 0. -1.
         -5    1    5    5    0  502 -0.55424395121E+02  0.39670470656E+02  0.66112397850E+01  0.68639699213E+02  0.47000000000E+01 0.  1.
         11    1    6    6    0    0 -0.62170328446E+02 -0.10258118868E+03  0.21064798976E+02  0.12178577817E+03  0.00000000000E+00 0. -1.
        -12    1    6    6    0    0  0.19488417126E+02 -0.57581253340E+01  0.56688899254E+01  0.21097173328E+02  0.00000000000E+00 0.  1.
</event>
<event>
12    1  0.8461994E-002  0.4174480E+03  0.7818608E-02  0.1037923E+00
         21   -1    0    0  503  502  0.00000000000E+00  0.00000000000E+00  0.77732479893E+03  0.77732479893E+03  0.00000000000E+00 0. -1.
         21   -1    0    0  501  503 -0.00000000000E+00 -0.00000000000E+00 -0.30216690071E+03  0.30216690071E+03  0.00000000000E+00 0.  1.
          6    2    1    2  501    0  0.37829587614E+03 -0.38379240491E+02 -0.36937412461E+02  0.41880686614E+03  0.17162191785E+03 0.  0.
         24    2    3    3    0    0  0.28742714879E+03  0.31693032764E+02 -0.92123302962E+01  0.30066280463E+03  0.81819562903E+02 0.  0.
         -6    2    1    2    0  502 -0.37829587614E+03  0.38379240491E+02  0.51209531069E+03  0.66068483350E+03  0.17228495577E+03 0.  0.
        -24    2    5    5    0    0 -0.31136581587E+03  0.69203263986E+02  0.47163984622E+03  0.57649167465E+03  0.90336832793E+02 0.  0.
          5    1    3    3  501    0  0.90868727352E+02 -0.70072273255E+02 -0.27725082165E+02  0.11814406151E+03  0.47000000000E+01 0. -1.
        -13    1    4    4    0    0  0.17600197241E+03  0.47577992082E+02 -0.33877396539E+02  0.18544011869E+03  0.00000000000E+00 0.  1.
         14    1    4    4    0    0  0.11142517638E+03 -0.15884959319E+02  0.24665066243E+02  0.11522268594E+03  0.00000000000E+00 0. -1.
         -5    1    5    5    0  502 -0.66930060268E+02 -0.30824023495E+02  0.40455464464E+02  0.84193158848E+02  0.47000000000E+01 0.  1.
         11    1    6    6    0    0 -0.19927497637E+03  0.11622771462E+02  0.33994728448E+03  0.39422044752E+03  0.00000000000E+00 0. -1.
        -12    1    6    6    0    0 -0.11209083950E+03  0.57580492523E+02  0.13169256175E+03  0.18227122713E+03  0.00000000000E+00 0.  1.
</event>
<event>
12    1  0.8461994E-002  0.1772106E+03  0.7818608E-02  0.1170759E+00
         21   -1    0    0  503  502  0.00000000000E+00  0.00000000000E+00  0.23836582595E+03  0.23836582595E+03  0.00000000000E+00 0.  1.
         21   -1    0    0  501  503 -0.00000000000E+00 -0.00000000000E+00 -0.17205282141E+03  0.17205282141E+03  0.00000000000E+00 0. -1.
          6    2    1    2  501    0  0.32287162656E+02 -0.24022980386E+02 -0.66942267424E+02  0.18943299797E+03  0.17258050033E+03 0.  0.
         24    2    3    3    0    0 -0.27875250614E+02  0.31965269935E+02 -0.18101342837E+02  0.93716092152E+02  0.81585778399E+02 0.  0.
         -6    2    1    2    0  502 -0.32287162656E+02  0.24022980386E+02  0.13325527196E+03  0.22098564939E+03  0.17163369504E+03 0.  0.
        -24    2    5    5    0    0 -0.49284552974E+02 -0.15671178496E+02  0.14726154825E+03  0.17534790950E+03  0.79914784469E+02 0.  0.
          5    1    3    3  501    0  0.60162413271E+02 -0.55988250321E+02 -0.48840924588E+02  0.95716905817E+02  0.47000000000E+01 0. -1.
        -13    1    4    4    0    0  0.39498120677E+01  0.17284605002E+02  0.29611725440E+02  0.34513951802E+02  0.00000000000E+00 0.  1.
         14    1    4    4    0    0 -0.31825062682E+02  0.14680664933E+02 -0.47713068277E+02  0.59202140350E+02  0.00000000000E+00 0. -1.
         -5    1    5    5    0  502  0.16997390318E+02  0.39694158881E+02 -0.14006276287E+02  0.45637739891E+02  0.47000000000E+01 0.  1.
         13    1    6    6    0    0 -0.43468741802E+02 -0.20863293862E+02  0.27848769788E+02  0.55680899089E+02  0.00000000000E+00 0. -1.
        -14    1    6    6    0    0 -0.58158111717E+01  0.51921153666E+01  0.11941277846E+03  0.11966701041E+03  0.00000000000E+00 0.  1.
</event>
<event>
12    1  0.8461994E-002  0.2254034E+03  0.7818608E-02  0.1130024E+00
         21   -1    0    0  503  502  0.00000000000E+00  0.00000000000E+00  0.11578102088E+04  0.11578102088E+04  0.00000000000E+00 0. -1.
         21   -1    0    0  501  503 -0.00000000000E+00 -0.00000000000E+00 -0.58194354624E+02  0.58194354624E+02  0.00000000000E+00 0.  1.
          6    2    1    2  501    0 -0.11669224406E+03  0.87826534511E+02  0.24653447961E+03  0.33364719819E+03  0.17091115597E+03 0.  0.
         24    2    3    3    0    0  0.74008019042E+01  0.38959545117E+02  0.84878181101E+02  0.12402392764E+03  0.81271218611E+02 0.  0.
         -6    2    1    2    0  502  0.11669224406E+03 -0.87826534511E+02  0.85308137455E+03  0.88235736522E+03  0.17168607506E+03 0.  0.
        -24    2    5    5    0    0  0.10088776101E+03  0.56644102870E+01  0.45131840572E+03  0.46953063211E+03  0.80995588075E+02 0.  0.
          5    1    3    3  501    0 -0.12409304596E+03  0.48866989395E+02  0.16165629851E+03  0.20962327055E+03  0.47000000000E+01 0. -1.
        -13    1    4    4    0    0  0.34777025900E+02  0.47506109751E+02  0.70783466871E+02  0.92068296261E+02  0.00000000000E+00 0.  1.
         14    1    4    4    0    0 -0.27376223996E+02 -0.85465646341E+01  0.14094714230E+02  0.31955631374E+02  0.00000000000E+00 0. -1.
         -5    1    5    5    0  502  0.15804483050E+02 -0.93490944798E+02  0.40176296883E+03  0.41282673311E+03  0.47000000000E+01 0.  1.
         13    1    6    6    0    0  0.68561765047E+02  0.28075849616E+00  0.41494693152E+03  0.42057312138E+03  0.00000000000E+00 0. -1.
        -14    1    6    6    0    0  0.32325995963E+02  0.53836517908E+01  0.36371474198E+02  0.48957510731E+02  0.00000000000E+00 0.  1.
</event>
<event>
12    1  0.8461994E-002  0.2101219E+03  0.7818608E-02  0.1142532E+00
         21   -1    0    0  503  502  0.00000000000E+00  0.00000000000E+00  0.54816752947E+03  0.54816752947E+03  0.00000000000E+00 0.  1.
         21   -1    0    0  501  503 -0.00000000000E+00 -0.00000000000E+00 -0.86286313687E+02  0.86286313687E+02  0.00000000000E+00 0.  1.
          6    2    1    2  501    0 -0.25192282923E+02 -0.11304363385E+03  0.13848943249E+03  0.25165556316E+03  0.17532166234E+03 0.  0.
         24    2    3    3    0    0 -0.30047373616E+02 -0.47464628958E+02  0.14026596741E+03  0.18570540119E+03  0.10796396969E+03 0.  0.
         -6    2    1    2    0  502  0.25192282923E+02  0.11304363385E+03  0.32339178329E+03  0.38279828000E+03  0.16893419842E+03 0.  0.
        -24    2    5    5    0    0  0.68101053750E+02  0.11109453984E+03  0.29203041866E+03  0.32940739339E+03  0.79042489158E+02 0.  0.
          5    1    3    3  501    0  0.48550906929E+01 -0.65579004891E+02 -0.17765349203E+01  0.65950161974E+02  0.47000000000E+01 0. -1.
        -13    1    4    4    0    0 -0.62076062459E+01 -0.74503729680E+02  0.54040744782E+02  0.92248263984E+02  0.00000000000E+00 0.  1.
         14    1    4    4    0    0 -0.23839767370E+02  0.27039100722E+02  0.86225222632E+02  0.93457137202E+02  0.00000000000E+00 0. -1.
         -5    1    5    5    0  502 -0.42908770827E+02  0.19490940050E+01  0.31361364633E+02  0.53390886609E+02  0.47000000000E+01 0.  1.
         13    1    6    6    0    0 -0.11841905305E+02 -0.37844712009E+01  0.22531057003E+02  0.25733275602E+02  0.00000000000E+00 0. -1.
        -14    1    6    6    0    0  0.79942959054E+02  0.11487901105E+03  0.26949936165E+03  0.30367411778E+03  0.00000000000E+00 0.  1.
</event>
<event>
12    1  0.8461994E-002  0.1916572E+03  0.7818608E-02  0.1157189E+00
         21   -1    0    0  501  502  0.00000000000E+00  0.00000000000E+00  0.58004046020E+03  0.58004046020E+03  0.00000000000E+00 0.  1.
         21   -1    0    0  502  503 -0.00000000000E+00 -0.00000000000E+00 -0.11930047991E+03  0.11930047991E+03  0.00000000000E+00 0.  1.
         -6    2    1    2    0  503  0.84663984711E+02 -0.12456584843E+01 -0.10120431354E+02  0.19096901202E+03  0.17087187729E+03 0.  0.
        -24    2    3    3    0    0  0.10626857828E+03  0.37486460991E+02  0.23039774689E+02  0.13539361452E+03  0.71430764707E+02 0.  0.
          6    2    1    2  501    0 -0.84663984711E+02  0.12456584843E+01  0.47086041165E+03  0.50837192809E+03  0.17193879157E+03 0.  0.
         24    2    5    5    0    0 -0.29004255115E+02  0.17661910123E+01  0.43200165839E+03  0.44032511217E+03  0.80102467569E+02 0.  0.
          5    1    5    5  501    0 -0.55659729596E+02 -0.52053252796E+00  0.38858753260E+02  0.68046815927E+02  0.47000000000E+01 0. -1.
        -13    1    6    6    0    0 -0.23576163061E+02 -0.37572683549E+02  0.26348279757E+03  0.26719043140E+03  0.00000000000E+00 0.  1.
         14    1    6    6    0    0 -0.54280920538E+01  0.39338874561E+02  0.16851886082E+03  0.17313468077E+03  0.00000000000E+00 0. -1.
         -5    1    3    3    0  503 -0.21604593572E+02 -0.38732119475E+02 -0.33160206042E+02  0.55575397499E+02  0.47000000000E+01 0.  1.
         11    1    4    4    0    0  0.15700083231E+02 -0.10343184788E+02  0.26992793313E+02  0.32895060052E+02  0.00000000000E+00 0. -1.
        -12    1    4    4    0    0  0.90568495052E+02  0.47829645779E+02 -0.39530186236E+01  0.10249855447E+03  0.00000000000E+00 0.  1.
</event>
<event>
12    1  0.8461994E-002  0.1749313E+03  0.7818608E-02  0.1173254E+00
         21   -1    0    0  501  502  0.00000000000E+00  0.00000000000E+00  0.25349208754E+03  0.25349208754E+03  0.00000000000E+00 0.  1.
         21   -1    0    0  502  503 -0.00000000000E+00 -0.00000000000E+00 -0.28815917939E+03  0.28815917939E+03  0.00000000000E+00 0.  1.
         -6    2    1    2    0  503 -0.37273062503E+01  0.23813963954E+02 -0.22450141163E+03  0.28350784650E+03  0.17144916888E+03 0.  0.
        -24    2    3    3    0    0 -0.68549242028E+02  0.11789543726E+02 -0.15598057823E+03  0.18830456583E+03  0.79313786972E+02 0.  0.
          6    2    1    2  501    0  0.37273062503E+01 -0.23813963954E+02  0.18983431978E+03  0.25814342043E+03  0.17326268742E+03 0.  0.
         24    2    5    5    0    0 -0.43924622620E+02  0.15643604927E+02  0.53157358563E+02  0.10804249507E+03  0.81690765228E+02 0.  0.
          5    1    5    5  501    0  0.47651928870E+02 -0.39457568881E+02  0.13667696122E+03  0.15010092536E+03  0.47000000000E+01 0. -1.
        -13    1    6    6    0    0 -0.50429529699E+02  0.24598047940E+02  0.68863903216E+02  0.88828140779E+02  0.00000000000E+00 0.  1.
         14    1    6    6    0    0  0.65049070790E+01 -0.89544430125E+01 -0.15706544653E+02  0.19214354288E+02  0.00000000000E+00 0. -1.
         -5    1    3    3    0  503  0.64821935778E+02  0.12024420228E+02 -0.68520833408E+02  0.95203280673E+02  0.47000000000E+01 0.  1.
         11    1    4    4    0    0 -0.59133976151E+02 -0.22283369428E+02 -0.64802730271E+02  0.90513919035E+02  0.00000000000E+00 0. -1.
        -12    1    4    4    0    0 -0.94152658772E+01  0.34072913154E+02 -0.91177847954E+02  0.97790646792E+02  0.00000000000E+00 0.  1.
</event>
<event>
12    1  0.8461994E-002  0.2283129E+03  0.7818608E-02  0.1127865E+00
         21   -1    0    0  503  502  0.00000000000E+00  0.00000000000E+00  0.13803811085E+04  0.13803811085E+04  0.00000000000E+00 0. -1.
         21   -1    0    0  501  503 -0.00000000000E+00 -0.00000000000E+00 -0.51348534110E+02  0.51348534110E+02  0.00000000000E+00 0. -1.
          6    2    1    2  501    0 -0.16293028071E+02 -0.14852058445E+03  0.29607973032E+03  0.37388501377E+03  0.17263536731E+03 0.  0.
         24    2    3    3    0    0  0.42916404011E+02 -0.14141281840E+03  0.20766581081E+03  0.26713582947E+03  0.79981619548E+02 0.  0.
         -6    2    1    2    0  502  0.16293028071E+02  0.14852058445E+03  0.10329528440E+04  0.10578446288E+04  0.17239447187E+03 0.  0.
        -24    2    5    5    0    0 -0.38926352355E+02  0.78034008966E+02  0.38122038594E+03  0.39997319439E+03  0.83934534644E+02 0.  0.
          5    1    3    3  501    0 -0.59209432082E+02 -0.71077660517E+01  0.88413919512E+02  0.10674918430E+03  0.47000000000E+01 0. -1.
        -11    1    4    4    0    0  0.12681473211E+02 -0.21709351073E+02  0.10066820120E+03  0.10376031236E+03  0.00000000000E+00 0.  1.
         12    1    4    4    0    0  0.30234930800E+02 -0.11970346732E+03  0.10699760961E+03  0.16337551711E+03  0.00000000000E+00 0. -1.
         -5    1    5    5    0  502  0.55219380426E+02  0.70486575481E+02  0.65173245808E+03  0.65787143441E+03  0.47000000000E+01 0.  1.
         11    1    6    6    0    0 -0.45289823529E+01  0.77314606007E+02  0.18183408018E+03  0.19764031142E+03  0.00000000000E+00 0. -1.
        -12    1    6    6    0    0 -0.34397370002E+02  0.71940295935E+00  0.19938630576E+03  0.20233288297E+03  0.00000000000E+00 0.  1.
</event>
<event>
12    1  0.8461994E-002  0.1970599E+03  0.7818608E-02  0.1152975E+00
         21   -1    0    0  501  502  0.00000000000E+00  0.00000000000E+00  0.78640602956E+03  0.78640602956E+03  0.00000000000E+00 0.  1.
         21   -1    0    0  502  503 -0.00000000000E+00 -0.00000000000E+00 -0.48545453826E+02  0.48545453826E+02  0.00000000000E+00 0.  1.
         -6    2    1    2    0  503 -0.42712418145E+02  0.80770467296E+02  0.36732669304E+03  0.41684711216E+03  0.17459781340E+03 0.  0.
        -24    2    3    3    0    0 -0.21768856884E+02 -0.20964801731E+02  0.10355346970E+03  0.13332092100E+03  0.78343735214E+02 0.  0.
          6    2    1    2  501    0  0.42712418145E+02 -0.80770467296E+02  0.37053388269E+03  0.41810437123E+03  0.17078550280E+03 0.  0.
         24    2    5    5    0    0  0.79587161253E+02 -0.62654842402E+02  0.17332673312E+03  0.21660828594E+03  0.81346466489E+02 0.  0.
          5    1    5    5  501    0 -0.36874743108E+02 -0.18115624894E+02  0.19720714957E+03  0.20149608529E+03  0.47000000000E+01 0. -1.
        -13    1    6    6    0    0  0.37618893721E+02 -0.64747478638E+02  0.60688502569E+02  0.96387299469E+02  0.00000000000E+00 0.  1.
         14    1    6    6    0    0  0.41968267532E+02  0.20926362365E+01  0.11263823055E+03  0.12022098647E+03  0.00000000000E+00 0. -1.
         -5    1    3    3    0  503 -0.20943561261E+02  0.10173526903E+03  0.26377322333E+03  0.28352619115E+03  0.47000000000E+01 0.  1.
         13    1    4    4    0    0  0.21175316820E+02 -0.21748569180E+02  0.77141140937E+02  0.82898431402E+02  0.00000000000E+00 0. -1.
        -14    1    4    4    0    0 -0.42944173704E+02  0.78376744897E+00  0.26412328767E+02  0.50422489600E+02  0.00000000000E+00 0.  1.
</event>
<event>
12    1  0.8461994E-002  0.1801840E+03  0.7818608E-02  0.1172040E+00
         21   -1    0    0  503  502  0.00000000000E+00  0.00000000000E+00  0.13557929815E+03  0.13557929815E+03  0.00000000000E+00 0. -1.
         21   -1    0    0  501  503 -0.00000000000E+00 -0.00000000000E+00 -0.24113214547E+03  0.24113214547E+03  0.00000000000E+00 0. -1.
          6    2    1    2  501    0  0.24594263245E+02  0.18802166188E+02  0.43322955284E+01  0.18023605064E+03  0.17750455185E+03 0.  0.
         24    2    3    3    0    0 -0.43290989195E+01  0.56384755832E+02 -0.46963100434E+02  0.11021948424E+03  0.82126853810E+02 0.  0.
         -6    2    1    2    0  502 -0.24594263245E+02 -0.18802166188E+02 -0.10988514285E+03  0.19647539298E+03  0.15990445957E+03 0.  0.
        -24    2    5    5    0    0  0.16924236377E+02 -0.64686089883E+02 -0.88170242455E+02  0.13072779102E+03  0.69606348050E+02 0.  0.
          5    1    3    3  501    0  0.28923362164E+02 -0.37582589644E+02  0.51295395963E+02  0.70016566398E+02  0.47000000000E+01 0. -1.
        -11    1    4    4    0    0 -0.36440391435E+02  0.24370219474E+02 -0.47812190274E+02  0.64867675031E+02  0.00000000000E+00 0.  1.
         12    1    4    4    0    0  0.32111292515E+02  0.32014536358E+02  0.84908983980E+00  0.45351809212E+02  0.00000000000E+00 0. -1.
         -5    1    5    5    0  502 -0.41518499622E+02  0.45883923694E+02 -0.21714900393E+02  0.65747601960E+02  0.47000000000E+01 0.  1.
         13    1    6    6    0    0  0.43428862795E+02 -0.45515307025E+02 -0.66193940438E+02  0.91320025448E+02  0.00000000000E+00 0. -1.
        -14    1    6    6    0    0 -0.26504626418E+02 -0.19170782858E+02 -0.21976302018E+02  0.39407765571E+02  0.00000000000E+00 0.  1.
</event>
<event>
12    1  0.8461994E-002  0.2523835E+03  0.7818608E-02  0.1111985E+00
         21   -1    0    0  501  502  0.00000000000E+00  0.00000000000E+00  0.63278573221E+02  0.63278573221E+02  0.00000000000E+00 0.  1.
         21   -1    0    0  502  503 -0.00000000000E+00 -0.00000000000E+00 -0.16346643993E+04  0.16346643993E+04  0.00000000000E+00 0.  1.
         -6    2    1    2    0  503 -0.77944533920E+02 -0.16578734776E+03 -0.13148922530E+04  0.13388947219E+04  0.17359909006E+03 0.  0.
        -24    2    3    3    0    0 -0.44567396737E+02 -0.13591917795E+03 -0.58681965488E+03  0.60943057671E+03  0.81166770903E+02 0.  0.
          6    2    1    2  501    0  0.77944533920E+02  0.16578734776E+03 -0.25649357305E+03  0.35904825067E+03  0.17194737059E+03 0.  0.
         24    2    5    5    0    0  0.13875120754E+02  0.15722677310E+03 -0.22703990701E+03  0.28785989780E+03  0.80021398563E+02 0.  0.
          5    1    5    5  501    0  0.64069413167E+02  0.85605746557E+01 -0.29453666033E+02  0.71188352873E+02  0.47000000000E+01 0. -1.
        -13    1    6    6    0    0  0.37876195385E+02  0.14033137789E+03 -0.16966991779E+03  0.22341750782E+03  0.00000000000E+00 0.  1.
         14    1    6    6    0    0 -0.24001074632E+02  0.16895395214E+02 -0.57369989224E+02  0.64442389981E+02  0.00000000000E+00 0. -1.
         -5    1    3    3    0  503 -0.33377137183E+02 -0.29868169811E+02 -0.72807259817E+03  0.72946414515E+03  0.47000000000E+01 0.  1.
         13    1    4    4    0    0  0.71598003746E+01 -0.67330044389E+01 -0.46728918996E+01  0.10882647145E+02  0.00000000000E+00 0. -1.
        -14    1    4    4    0    0 -0.51727197112E+02 -0.12918617351E+03 -0.58214676298E+03  0.59854792957E+03  0.00000000000E+00 0.  1.
</event>
<event>
12    1  0.8461994E-002  0.3091870E+03  0.7818608E-02  0.1081095E+00
         21   -1    0    0  503  502  0.00000000000E+00  0.00000000000E+00  0.62387721845E+03  0.62387721845E+03  0.00000000000E+00 0.  1.
         21   -1    0    0  501  503 -0.00000000000E+00 -0.00000000000E+00 -0.15998997982E+03  0.15998997982E+03  0.00000000000E+00 0.  1.
          6    2    1    2  501    0  0.25018564083E+03  0.55407853817E+02  0.31975826618E+03  0.44273706267E+03  0.16765402687E+03 0.  0.
         24    2    3    3    0    0  0.69274529335E+02 -0.23205660646E+02  0.90064850042E+02  0.13993337984E+03  0.78308431723E+02 0.  0.
         -6    2    1    2    0  502 -0.25018564083E+03 -0.55407853817E+02  0.14412897246E+03  0.34113013560E+03  0.17301365140E+03 0.  0.
        -24    2    5    5    0    0 -0.12733537988E+03 -0.93889959336E+02  0.11065486233E+03  0.20802992858E+03  0.77474700343E+02 0.  0.
          5    1    3    3  501    0  0.18091111150E+03  0.78613514464E+02  0.22969341613E+03  0.30280368283E+03  0.47000000000E+01 0. -1.
        -13    1    4    4    0    0 -0.11549242414E+02 -0.19633504395E+02  0.36094034763E+02  0.42680661202E+02  0.00000000000E+00 0.  1.
         14    1    4    4    0    0  0.80823771749E+02 -0.35721562513E+01  0.53970815279E+02  0.97252718635E+02  0.00000000000E+00 0. -1.
         -5    1    5    5    0  502 -0.12285026095E+03  0.38482105519E+02  0.33474110136E+02  0.13310020703E+03  0.47000000000E+01 0.  1.
         11    1    6    6    0    0 -0.28127876949E+01 -0.39229336381E+02  0.16643708913E+02  0.42706740146E+02  0.00000000000E+00 0. -1.
        -12    1    6    6    0    0 -0.12452259219E+03 -0.54660622955E+02  0.94011153412E+02  0.16532318843E+03  0.00000000000E+00 0.  1.
</event>
<event>
12    1  0.8461994E-002  0.1818101E+03  0.7818608E-02  0.1166279E+00
         21   -1    0    0  501  502  0.00000000000E+00  0.00000000000E+00  0.16613309652E+03  0.16613309652E+03  0.00000000000E+00 0.  1.
         21   -1    0    0  502  503 -0.00000000000E+00 -0.00000000000E+00 -0.19820675190E+03  0.19820675190E+03  0.00000000000E+00 0.  1.
         -6    2    1    2    0  503  0.56725443972E+02 -0.20580828626E+02 -0.22203989358E+02  0.18226208217E+03  0.17054355149E+03 0.  0.
        -24    2    3    3    0    0  0.10359031355E+03 -0.23763492407E+02 -0.21760980155E+02  0.13505263813E+03  0.80436423199E+02 0.  0.
          6    2    1    2  501    0 -0.56725443972E+02  0.20580828626E+02 -0.98696660240E+01  0.18207776625E+03  0.17150380799E+03 0.  0.
         24    2    5    5    0    0 -0.73497029912E+02 -0.28852341569E+01  0.47255368839E+02  0.11791156171E+03  0.79119710045E+02 0.  0.
          5    1    5    5  501    0  0.16771585940E+02  0.23466062783E+02 -0.57125034863E+02  0.64166204544E+02  0.47000000000E+01 0. -1.
        -11    1    6    6    0    0 -0.48197269655E+02 -0.34209403933E+02  0.46446686577E+01  0.59286027583E+02  0.00000000000E+00 0.  1.
         12    1    6    6    0    0 -0.25299760257E+02  0.31324169776E+02  0.42610700181E+02  0.58625534122E+02  0.00000000000E+00 0. -1.
         -5    1    3    3    0  503 -0.46864869577E+02  0.31826637805E+01 -0.44300920258E+00  0.47209444038E+02  0.47000000000E+01 0.  1.
         13    1    4    4    0    0  0.11457335290E+01 -0.23319716103E+02 -0.22754922406E+02  0.32602275352E+02  0.00000000000E+00 0. -1.
        -14    1    4    4    0    0  0.10244458002E+03 -0.44377630366E+00  0.99394225061E+00  0.10245036278E+03  0.00000000000E+00 0.  1.
</event>
<event>
12    1  0.8461994E-002  0.2357326E+03  0.7818608E-02  0.1123284E+00
         21   -1    0    0  501  502  0.00000000000E+00  0.00000000000E+00  0.35705346681E+03  0.35705346681E+03  0.00000000000E+00 0.  1.
         21   -1    0    0  502  503 -0.00000000000E+00 -0.00000000000E+00 -0.56008481161E+03  0.56008481161E+03  0.00000000000E+00 0.  1.
         -6    2    1    2    0  503 -0.15099047119E+03 -0.55543190262E+02 -0.49254089937E+03  0.54604616630E+03  0.17229831632E+03 0.  0.
        -24    2    3    3    0    0 -0.11862372203E+03 -0.58909865936E+02 -0.21173673953E+03  0.26332367491E+03  0.83456282972E+02 0.  0.
          6    2    1    2  501    0  0.15099047119E+03  0.55543190262E+02  0.28950955457E+03  0.37109211212E+03  0.16736309364E+03 0.  0.
         24    2    5    5    0    0  0.16368862430E+03  0.71416220647E+02  0.20347755446E+03  0.28256645917E+03  0.80910112988E+02 0.  0.
          5    1    5    5  501    0 -0.12698153113E+02 -0.15873030385E+02  0.86032000113E+02  0.88525652946E+02  0.47000000000E+01 0. -1.
        -11    1    6    6    0    0  0.41916141977E+02  0.73431559831E+01  0.10517894747E+03  0.11346142908E+03  0.00000000000E+00 0.  1.
         12    1    6    6    0    0  0.12177248232E+03  0.64073064664E+02  0.98298606988E+02  0.16910503009E+03  0.00000000000E+00 0. -1.
         -5    1    3    3    0  503 -0.32366749155E+02  0.33666756739E+01 -0.28080415984E+03  0.28272249139E+03  0.47000000000E+01 0.  1.
         11    1    4    4    0    0 -0.46316955848E+02 -0.20962733632E+01 -0.19642437453E+02  0.50353551118E+02  0.00000000000E+00 0. -1.
        -12    1    4    4    0    0 -0.72306766183E+02 -0.56813592573E+02 -0.19209430208E+03  0.21297012379E+03  0.00000000000E+00 0.  1.
</event>
<event>
12    1  0.8461994E-002  0.2027503E+03  0.7818608E-02  0.1147637E+00
         21   -1    0    0  503  502  0.00000000000E+00  0.00000000000E+00  0.14534215508E+03  0.14534215508E+03  0.00000000000E+00 0.  1.
         21   -1    0    0  501  503 -0.00000000000E+00 -0.00000000000E+00 -0.10264133481E+04  0.10264133481E+04  0.00000000000E+00 0. -1.
          6    2    1    2  501    0  0.10693847392E+03  0.10716960740E+01 -0.93936109722E+03  0.96079244124E+03  0.17113111474E+03 0.  0.
         24    2    3    3    0    0 -0.88254304506E+01  0.12140515824E+02 -0.47738916244E+03  0.48438509573E+03  0.80642595479E+02 0.  0.
         -6    2    1    2    0  502 -0.10693847392E+03 -0.10716960740E+01  0.58289904250E+02  0.21096306189E+03  0.17225189348E+03 0.  0.
        -24    2    5    5    0    0 -0.57328685539E+01 -0.39117169119E+02 -0.33803371585E+01  0.86402469196E+02  0.76752467726E+02 0.  0.
          5    1    3    3  501    0  0.11576390438E+03 -0.11068819750E+02 -0.46197193479E+03  0.47640734551E+03  0.47000000000E+01 0. -1.
        -13    1    4    4    0    0  0.88030395473E+01 -0.31286885047E+02 -0.13804579924E+03  0.14182032777E+03  0.00000000000E+00 0.  1.
         14    1    4    4    0    0 -0.17628469998E+02  0.43427400871E+02 -0.33934336319E+03  0.34256476795E+03  0.00000000000E+00 0. -1.
         -5    1    5    5    0  502 -0.10120560537E+03  0.38045473045E+02  0.61670241408E+02  0.12456059270E+03  0.47000000000E+01 0.  1.
         13    1    6    6    0    0  0.35184817182E+02 -0.19569253632E+02 -0.71811468284E+01  0.40896160182E+02  0.00000000000E+00 0. -1.
        -14    1    6    6    0    0 -0.40917685736E+02 -0.19547915487E+02  0.38008096699E+01  0.45506309014E+02  0.00000000000E+00 0.  1.
</event>
<event>
12    1  0.8461994E-002  0.2220981E+03  0.7818608E-02  0.1132569E+00
         21   -1    0    0  501  502  0.00000000000E+00  0.00000000000E+00  0.23988597338E+03  0.23988597338E+03  0.00000000000E+00 0. -1.
         21   -1    0    0  502  503 -0.00000000000E+00 -0.00000000000E+00 -0.25196269396E+03  0.25196269396E+03  0.00000000000E+00 0. -1.
         -6    2    1    2    0  503  0.12822203895E+03  0.50405411044E+02 -0.11287000781E+03  0.24913288062E+03  0.17420090932E+03 0.  0.
        -24    2    3    3    0    0  0.72299957725E+02 -0.33815826264E+02 -0.93971394544E+02  0.14617782457E+03  0.78527316336E+02 0.  0.
          6    2    1    2  501    0 -0.12822203895E+03 -0.50405411044E+02  0.10079328723E+03  0.24271578672E+03  0.17254005227E+03 0.  0.
         24    2    5    5    0    0 -0.61585641016E+02 -0.95980143651E+02  0.79799400657E+02  0.15916760268E+03  0.77210117499E+02 0.  0.
          5    1    5    5  501    0 -0.66636397939E+02  0.45574732607E+02  0.20993886575E+02  0.83548184038E+02  0.47000000000E+01 0. -1.
        -11    1    6    6    0    0 -0.66448578676E+02 -0.98755073197E+02  0.50434036047E+02  0.12927323807E+03  0.00000000000E+00 0.  1.
         12    1    6    6    0    0  0.48629376604E+01  0.27749295462E+01  0.29365364611E+02  0.29894364609E+02  0.00000000000E+00 0. -1.
         -5    1    3    3    0  503  0.55922081230E+02  0.84221237307E+02 -0.18898613270E+02  0.10295505605E+03  0.47000000000E+01 0.  1.
         13    1    4    4    0    0 -0.11419107527E+02 -0.22147814591E+02 -0.35597389188E+02  0.43452224625E+02  0.00000000000E+00 0. -1.
        -14    1    4    4    0    0  0.83719065251E+02 -0.11668011673E+02 -0.58374005355E+02  0.10272559995E+03  0.00000000000E+00 0.  1.
</event>
<event>
12    1  0.8461994E-002  0.2434698E+03  0.7818608E-02  0.1118425E+00
         21   -1    0    0  503  502  0.00000000000E+00  0.00000000000E+00  0.64615978396E+03  0.64615978396E+03  0.00000000000E+00 0.  1.
         21   -1    0    0  501  503 -0.00000000000E+00 -0.00000000000E+00 -0.90140954242E+02  0.90140954242E+02  0.00000000000E+00 0.  1.
          6    2    1    2  501    0  0.14556778204E+03  0.10101966010E+03  0.25406063286E+03  0.35188684913E+03  0.16698083281E+03 0.  0.
         24    2    3    3    0    0  0.12085847947E+03  0.10461678349E+02  0.18096155239E+03  0.23282021544E+03  0.82109381312E+02 0.  0.
         -6    2    1    2    0  502 -0.14556778204E+03 -0.10101966010E+03  0.30195819686E+03  0.38441388907E+03  0.15874613245E+03 0.  0.
        -24    2    5    5    0    0 -0.13496840095E+03 -0.11664054576E+03  0.30732774137E+03  0.36423268602E+03  0.79960132424E+02 0.  0.
          5    1    3    3  501    0  0.24709302570E+02  0.90557981754E+02  0.73099080475E+02  0.11906663369E+03  0.47000000000E+01 0. -1.
        -11    1    4    4    0    0  0.44278320338E+02  0.22197755859E+02  0.13245684335E+03  0.14141472825E+03  0.00000000000E+00 0.  1.
         12    1    4    4    0    0  0.76580159134E+02 -0.11736077511E+02  0.48504709039E+02  0.91405487184E+02  0.00000000000E+00 0. -1.
         -5    1    5    5    0  502 -0.10599381097E+02  0.15620885659E+02 -0.53695445161E+01  0.20181203054E+02  0.47000000000E+01 0.  1.
         11    1    6    6    0    0 -0.37135482112E+02 -0.95639228381E+01  0.22135291600E+02  0.44277350711E+02  0.00000000000E+00 0. -1.
        -12    1    6    6    0    0 -0.97832918833E+02 -0.10707662292E+03  0.28519244977E+03  0.31995533531E+03  0.00000000000E+00 0.  1.
</event>
<event>
12    1  0.8461994E-002  0.1896960E+03  0.7818608E-02  0.1159139E+00
         21   -1    0    0  501  502  0.00000000000E+00  0.00000000000E+00  0.10202283335E+04  0.10202283335E+04  0.00000000000E+00 0. -1.
         21   -1    0    0  502  503 -0.00000000000E+00 -0.00000000000E+00 -0.35037246089E+02  0.35037246089E+02  0.00000000000E+00 0. -1.
         -6    2    1    2    0  503  0.76002424451E+02  0.24273126014E+02  0.51779871290E+03  0.55084492601E+03  0.17014426894E+03 0.  0.
        -24    2    3    3    0    0  0.10645530362E+03 -0.10426388195E+02  0.44415679018E+03  0.46380093185E+03  0.79966298415E+02 0.  0.
          6    2    1    2  501    0 -0.76002424451E+02 -0.24273126014E+02  0.46739237452E+03  0.50442065359E+03  0.17210174562E+03 0.  0.
         24    2    5    5    0    0 -0.10772494735E+03 -0.25117357387E+02  0.25024253589E+03  0.28491399401E+03  0.79492837984E+02 0.  0.
          5    1    5    5  501    0  0.31722522895E+02  0.84423137369E+00  0.21714983863E+03  0.21950665959E+03  0.47000000000E+01 0. -1.
        -11    1    6    6    0    0  0.12510192672E+02  0.22472099371E+01  0.19224554802E+02  0.23046439650E+02  0.00000000000E+00 0.  1.
         12    1    6    6    0    0 -0.12023514002E+03 -0.27364567325E+02  0.23101798108E+03  0.26186755435E+03  0.00000000000E+00 0. -1.
         -5    1    3    3    0  503 -0.30452879174E+02  0.34699514209E+02  0.73641922727E+02  0.87043994160E+02  0.47000000000E+01 0.  1.
         13    1    4    4    0    0  0.23681063962E+02 -0.39300324624E+02  0.15130496465E+03  0.15810914152E+03  0.00000000000E+00 0. -1.
        -14    1    4    4    0    0  0.82774239663E+02  0.28873936429E+02  0.29285182553E+03  0.30569179033E+03  0.00000000000E+00 0.  1.
</event>
<event>
12    1  0.8461994E-002  0.2931053E+03  0.7818608E-02  0.1088865E+00
         21   -1    0    0  501  502  0.00000000000E+00  0.00000000000E+00  0.76916523880E+03  0.76916523880E+03  0.00000000000E+00 0.  1.
         21   -1    0    0  502  503 -0.00000000000E+00 -0.00000000000E+00 -0.12190203880E+03  0.12190203880E+03  0.00000000000E+00 0. -1.
         -6    2    1    2    0  503  0.11033535508E+03  0.20884993311E+03  0.19186799212E+03  0.34949963034E+03  0.17188507808E+03 0.  0.
        -24    2    3    3    0    0  0.36542132527E+02  0.19932021157E+03  0.14370177402E+03  0.26073967398E+03  0.79190299536E+02 0.  0.
          6    2    1    2  501    0 -0.11033535508E+03 -0.20884993311E+03  0.45539520788E+03  0.54156764726E+03  0.17354692753E+03 0.  0.
         24    2    5    5    0    0 -0.74227152854E+02 -0.90379833200E+02  0.35420172102E+03  0.38156396410E+03  0.80336884775E+02 0.  0.
          5    1    5    5  501    0 -0.36108202221E+02 -0.11847009991E+03  0.10119348686E+03  0.16000368316E+03  0.47000000000E+01 0. -1.
        -13    1    6    6    0    0  0.14314977608E+02 -0.16973227917E+02  0.10178935016E+03  0.10418292018E+03  0.00000000000E+00 0.  1.
         14    1    6    6    0    0 -0.88542130463E+02 -0.73406605283E+02  0.25241237086E+03  0.27738104393E+03  0.00000000000E+00 0. -1.
         -5    1    3    3    0  503  0.73793222549E+02  0.95297215382E+01  0.48166218100E+02  0.88759956359E+02  0.47000000000E+01 0.  1.
         11    1    4    4    0    0 -0.73215438006E+00  0.13422362552E+03  0.56282025476E+02  0.14554787560E+03  0.00000000000E+00 0. -1.
        -12    1    4    4    0    0  0.37274286907E+02  0.65096586049E+02  0.87419748548E+02  0.11519179839E+03  0.00000000000E+00 0.  1.
</event>
<event>
12    1  0.8461994E-002  0.2011445E+03  0.7818608E-02  0.1149052E+00
         21   -1    0    0  501  502  0.00000000000E+00  0.00000000000E+00  0.97160024670E+02  0.97160024670E+02  0.00000000000E+00 0.  1.
         21   -1    0    0  502  503 -0.00000000000E+00 -0.00000000000E+00 -0.76578651169E+03  0.76578651169E+03  0.00000000000E+00 0. -1.
         -6    2    1    2    0  503 -0.10270096741E+03 -0.63701296040E+01 -0.62746226094E+03  0.65891426225E+03  0.17283242990E+03 0.  0.
        -24    2    3    3    0    0 -0.31035317484E+02 -0.73815958489E+02 -0.27664085840E+03  0.29452072266E+03  0.61646612872E+02 0.  0.
          6    2    1    2  501    0  0.10270096741E+03  0.63701296040E+01 -0.41164226078E+02  0.20403227411E+03  0.17130851734E+03 0.  0.
         24    2    5    5    0    0  0.66888751444E+02 -0.60360068370E+02 -0.45367536788E+02  0.12803759038E+03  0.78854094592E+02 0.  0.
          5    1    5    5  501    0  0.35812215968E+02  0.66730197974E+02  0.42033107098E+01  0.75994683730E+02  0.47000000000E+01 0. -1.
        -11    1    6    6    0    0  0.49786893027E+02  0.18325001539E+01 -0.11471576834E+01  0.49833811262E+02  0.00000000000E+00 0.  1.
         12    1    6    6    0    0  0.17101858417E+02 -0.62192568524E+02 -0.44220379105E+02  0.78203779123E+02  0.00000000000E+00 0. -1.
         -5    1    3    3    0  503 -0.71665649928E+02  0.67445828885E+02 -0.35082140254E+03  0.36439353959E+03  0.47000000000E+01 0.  1.
         11    1    4    4    0    0 -0.55298319289E+01 -0.49607614025E+02 -0.23393135112E+03  0.23919734833E+03  0.00000000000E+00 0. -1.
        -12    1    4    4    0    0 -0.25505485555E+02 -0.24208344463E+02 -0.42709507288E+02  0.55323374336E+02  0.00000000000E+00 0.  1.
</event>
<event>
12    1  0.8461994E-002  0.1806428E+03  0.7818608E-02  0.1167282E+00
         21   -1    0    0  501  502  0.00000000000E+00  0.00000000000E+00  0.34184282274E+03  0.34184282274E+03  0.00000000000E+00 0.  1.
         21   -1    0    0  502  503 -0.00000000000E+00 -0.00000000000E+00 -0.14075310851E+03  0.14075310851E+03  0.00000000000E+00 0.  1.
         -6    2    1    2    0  503  0.46964894443E+02  0.28751392881E+02 -0.36743385528E+02  0.18393826916E+03  0.17161254785E+03 0.  0.
        -24    2    3    3    0    0  0.10065481936E+02  0.65552142080E+02  0.20848989366E+02  0.10612545896E+03  0.80184383921E+02 0.  0.
          6    2    1    2  501    0 -0.46964894443E+02 -0.28751392881E+02  0.23783309976E+03  0.29865766209E+03  0.17204497051E+03 0.  0.
         24    2    5    5    0    0 -0.45289939970E+02  0.44562881175E+02  0.17299808648E+03  0.20066043152E+03  0.79367763030E+02 0.  0.
          5    1    5    5  501    0 -0.16749544724E+01 -0.73314274056E+02  0.64835013280E+02  0.97997230573E+02  0.47000000000E+01 0. -1.
        -13    1    6    6    0    0 -0.33885252811E+02 -0.17474134614E+02  0.56072827352E+02  0.67806472448E+02  0.00000000000E+00 0.  1.
         14    1    6    6    0    0 -0.11404687160E+02  0.62037015789E+02  0.11692525913E+03  0.13285395907E+03  0.00000000000E+00 0. -1.
         -5    1    3    3    0  503  0.36899412507E+02 -0.36800749199E+02 -0.57592374894E+02  0.77812810197E+02  0.47000000000E+01 0.  1.
         11    1    4    4    0    0  0.22498139735E+02  0.44171874493E+02  0.48275628261E+02  0.69194342773E+02  0.00000000000E+00 0. -1.
        -12    1    4    4    0    0 -0.12432657799E+02  0.21380267587E+02 -0.27426638895E+02  0.36931116191E+02  0.00000000000E+00 0.  1.
</event>
<event>
12    1  0.8461994E-002  0.2035088E+03  0.7818608E-02  0.1147332E+00
         21   -1    0    0  501  502  0.00000000000E+00  0.00000000000E+00  0.11616406761E+03  0.11616406761E+03  0.00000000000E+00 0.  1.
         21   -1    0    0  502  503 -0.00000000000E+00 -0.00000000000E+00 -0.41908447063E+03  0.41908447063E+03  0.00000000000E+00 0. -1.
         -6    2    1    2    0  503  0.55591528331E+02 -0.83284495307E+02 -0.25762292978E+03  0.32675949053E+03  0.17428558610E+03 0.  0.
        -24    2    3    3    0    0  0.41510876173E+02 -0.12318327051E+02 -0.41911824190E+02  0.99190088199E+02  0.78785649505E+02 0.  0.
          6    2    1    2  501    0 -0.55591528331E+02  0.83284495307E+02 -0.45297473249E+02  0.20848904772E+03  0.17716968351E+03 0.  0.
         24    2    5    5    0    0 -0.40790653558E+02  0.82464889420E+02 -0.98097154044E+02  0.15344693711E+03  0.73882172899E+02 0.  0.
          5    1    5    5  501    0 -0.14800874773E+02  0.81960588702E+00  0.52799680795E+02  0.55042110605E+02  0.47000000000E+01 0. -1.
        -13    1    6    6    0    0  0.66558878187E+01 -0.11092142706E+02 -0.83764308649E+01  0.15411069609E+02  0.00000000000E+00 0.  1.
         14    1    6    6    0    0 -0.47446541377E+02  0.93557032127E+02 -0.89720723179E+02  0.13803586750E+03  0.00000000000E+00 0. -1.
         -5    1    3    3    0  503  0.14080652158E+02 -0.70966168256E+02 -0.21571110559E+03  0.22756940233E+03  0.47000000000E+01 0.  1.
         11    1    4    4    0    0  0.40185815859E+02 -0.31790458443E+02 -0.55401862431E+02  0.75464557277E+02  0.00000000000E+00 0. -1.
        -12    1    4    4    0    0  0.13250603140E+01  0.19472131392E+02  0.13490038240E+02  0.23725530921E+02  0.00000000000E+00 0.  1.
</event>
<event>
12    1  0.8461994E-002  0.2576545E+03  0.7818608E-02  0.1109165E+00
         21   -1    0    0  501  502  0.00000000000E+00  0.00000000000E+00  0.10273968057E+03  0.10273968057E+03  0.00000000000E+00 0. -1.
         21   -1    0    0  502  503 -0.00000000000E+00 -0.00000000000E+00 -0.20314867450E+04  0.20314867450E+04  0.00000000000E+00 0.  1.
         -6    2    1    2    0  503 -0.16893189246E+03 -0.92215123349E+02 -0.18510373594E+04  0.18688833909E+04  0.17130151651E+03 0.  0.
        -24    2    3    3    0    0 -0.84122940921E+02 -0.36257153452E+02 -0.52844382408E+03  0.54238438888E+03  0.80849859133E+02 0.  0.
          6    2    1    2  501    0  0.16893189246E+03  0.92215123349E+02 -0.77709704982E+02  0.26534303464E+03  0.16530733353E+03 0.  0.
         24    2    5    5    0    0  0.37349580019E+02  0.81004709848E+02 -0.59175101960E+02  0.13190690825E+03  0.77077789318E+02 0.  0.
          5    1    5    5  501    0  0.13158231244E+03  0.11210413501E+02 -0.18534603022E+02  0.13343612639E+03  0.47000000000E+01 0. -1.
        -11    1    6    6    0    0 -0.11775143734E+02 -0.76968001382E+00  0.88427198878E+01  0.14745850681E+02  0.00000000000E+00 0.  1.
         12    1    6    6    0    0  0.49124723753E+02  0.81774389862E+02 -0.68017821848E+02  0.11716105757E+03  0.00000000000E+00 0. -1.
         -5    1    3    3    0  503 -0.84808951536E+02 -0.55957969897E+02 -0.13225935354E+04  0.13264990021E+04  0.47000000000E+01 0.  1.
         11    1    4    4    0    0 -0.72570975995E+02  0.91746952063E+01 -0.36954401964E+03  0.37671408792E+03  0.00000000000E+00 0. -1.
        -12    1    4    4    0    0 -0.11551964926E+02 -0.45431848658E+02 -0.15889980444E+03  0.16567030096E+03  0.00000000000E+00 0.  1.
</event>
<event>
12    1  0.8461994E-002  0.3036753E+03  0.7818608E-02  0.1083895E+00
         21   -1    0    0  501  502  0.00000000000E+00  0.00000000000E+00  0.97384980484E+02  0.97384980484E+02  0.00000000000E+00 0. -1.
         21   -1    0    0  502  503 -0.00000000000E+00 -0.00000000000E+00 -0.11832856485E+04  0.11832856485E+04  0.00000000000E+00 0. -1.
         -6    2    1    2    0  503  0.55157125054E+02  0.24036876998E+03 -0.83353849337E+03  0.88582207798E+03  0.17051357683E+03 0.  0.
        -24    2    3    3    0    0  0.23590954620E+01  0.19853558610E+03 -0.74106244864E+03  0.77131637485E+03  0.79582994638E+02 0.  0.
          6    2    1    2  501    0 -0.55157125054E+02 -0.24036876998E+03 -0.25236217464E+03  0.39484855099E+03  0.17719835497E+03 0.  0.
         24    2    5    5    0    0 -0.99659672567E+02 -0.12060432252E+03 -0.13911458860E+03  0.22405304357E+03  0.79808800427E+02 0.  0.
          5    1    5    5  501    0  0.44502547514E+02 -0.11976444747E+03 -0.11324758604E+03  0.17079550743E+03  0.47000000000E+01 0. -1.
        -11    1    6    6    0    0 -0.41292887760E+02 -0.40557373892E+01 -0.55105888875E+02  0.68979783806E+02  0.00000000000E+00 0.  1.
         12    1    6    6    0    0 -0.58366784807E+02 -0.11654858513E+03 -0.84008699722E+02  0.15507325976E+03  0.00000000000E+00 0. -1.
         -5    1    3    3    0  503  0.52798029592E+02  0.41833183887E+02 -0.92476044726E+02  0.11450570314E+03  0.47000000000E+01 0.  1.
         13    1    4    4    0    0  0.39948531064E+02  0.10499020956E+03 -0.42276911745E+03  0.43743863102E+03  0.00000000000E+00 0. -1.
        -14    1    4    4    0    0 -0.37589435602E+02  0.93545376535E+02 -0.31829333119E+03  0.33387774383E+03  0.00000000000E+00 0.  1.
</event>
<event>
12    1  0.8461994E-002  0.1916791E+03  0.7818608E-02  0.1157142E+00
         21   -1    0    0  501  502  0.00000000000E+00  0.00000000000E+00  0.15147758116E+04  0.15147758116E+04  0.00000000000E+00 0.  1.
         21   -1    0    0  502  503 -0.00000000000E+00 -0.00000000000E+00 -0.24371878568E+02  0.24371878568E+02  0.00000000000E+00 0. -1.
         -6    2    1    2    0  503  0.84111156663E+02 -0.11982969088E+01  0.82035867264E+03  0.84245428259E+03  0.17223456064E+03 0.  0.
        -24    2    3    3    0    0  0.59238862093E+02 -0.33484095284E+02  0.24355732659E+03  0.26419578795E+03  0.76477549742E+02 0.  0.
          6    2    1    2  501    0 -0.84111156663E+02  0.11982969088E+01  0.67004526043E+03  0.69669340762E+03  0.17130362112E+03 0.  0.
         24    2    5    5    0    0 -0.10463269933E+03  0.45880816933E+02  0.46231123403E+03  0.48316781891E+03  0.81648104647E+02 0.  0.
          5    1    5    5  501    0  0.20521542662E+02 -0.44682520024E+02  0.20773402641E+03  0.21352558871E+03  0.47000000000E+01 0. -1.
        -11    1    6    6    0    0 -0.85043060854E+02 -0.56210428610E+01  0.28942377978E+03  0.30171185363E+03  0.00000000000E+00 0.  1.
         12    1    6    6    0    0 -0.19589638472E+02  0.51501859794E+02  0.17288745425E+03  0.18145596528E+03  0.00000000000E+00 0. -1.
         -5    1    3    3    0  503  0.24872294570E+02  0.32285798375E+02  0.57680134606E+03  0.57825849464E+03  0.47000000000E+01 0.  1.
         13    1    4    4    0    0  0.55350352783E+02 -0.17211966829E+01  0.78511633188E+02  0.96076535205E+02  0.00000000000E+00 0. -1.
        -14    1    4    4    0    0  0.38885093105E+01 -0.31762898601E+02  0.16504569340E+03  0.16811925274E+03  0.00000000000E+00 0.  1.
</event>
<event>
12    1  0.8461994E-002  0.1922330E+03  0.7818608E-02  0.1157202E+00
         21   -1    0    0  503  502  0.00000000000E+00  0.00000000000E+00  0.67179957329E+02  0.67179957329E+02  0.00000000000E+00 0.  1.
         21   -1    0    0  501  503 -0.00000000000E+00 -0.00000000000E+00 -0.59443068250E+03  0.59443068250E+03  0.00000000000E+00 0.  1.
          6    2    1    2  501    0 -0.29800138426E+02 -0.72197348518E+02 -0.16206491202E+03  0.24891920568E+03  0.17203264186E+03 0.  0.
         24    2    3    3    0    0  0.39365537127E+01 -0.24825359612E+02 -0.17047630020E+03  0.18996913206E+03  0.79964412522E+02 0.  0.
         -6    2    1    2    0  502  0.29800138426E+02  0.72197348518E+02 -0.36518581315E+03  0.41269143415E+03  0.17565032397E+03 0.  0.
        -24    2    5    5    0    0 -0.50969471022E+02  0.53367793710E+02 -0.18443519818E+03  0.21376643130E+03  0.78954014739E+02 0.  0.
          5    1    3    3  501    0 -0.33736692139E+02 -0.47371988906E+02  0.84113881754E+01  0.58950073625E+02  0.47000000000E+01 0. -1.
        -13    1    4    4    0    0 -0.21268304303E+02 -0.46007677127E+02 -0.96651977298E+02  0.10913593285E+03  0.00000000000E+00 0.  1.
         14    1    4    4    0    0  0.25204858016E+02  0.21182317515E+02 -0.73824322902E+02  0.80833199212E+02  0.00000000000E+00 0. -1.
         -5    1    5    5    0  502  0.80769609448E+02  0.18829554807E+02 -0.18075061497E+03  0.19892500285E+03  0.47000000000E+01 0.  1.
         13    1    6    6    0    0 -0.58589856047E+02  0.94072125988E+01 -0.13324858415E+03  0.14586449896E+03  0.00000000000E+00 0. -1.
        -14    1    6    6    0    0  0.76203850255E+01  0.43960581112E+02 -0.51186614031E+02  0.67901932340E+02  0.00000000000E+00 0.  1.
</event>
<event>
12    1  0.8461994E-002  0.4884788E+03  0.7818608E-02  0.1016836E+00
         21   -1    0    0  503  502  0.00000000000E+00  0.00000000000E+00  0.17916181482E+03  0.17916181482E+03  0.00000000000E+00 0.  1.
         21   -1    0    0  501  503 -0.00000000000E+00 -0.00000000000E+00 -0.13523556301E+04  0.13523556301E+04  0.00000000000E+00 0. -1.
          6    2    1    2  501    0 -0.29812301388E+03 -0.34689253758E+03 -0.49172678815E+03  0.69306120096E+03  0.17125078117E+03 0.  0.
         24    2    3    3    0    0 -0.26639189934E+03 -0.34175772161E+03 -0.39822948034E+03  0.59408106895E+03  0.81133304810E+02 0.  0.
         -6    2    1    2    0  502  0.29812301388E+03  0.34689253758E+03 -0.68146702714E+03  0.83845624397E+03  0.17146369861E+03 0.  0.
        -24    2    5    5    0    0  0.15088289429E+03  0.27303498154E+03 -0.42108157215E+03  0.53030487439E+03  0.81239279115E+02 0.  0.
          5    1    3    3  501    0 -0.31731114539E+02 -0.51348159664E+01 -0.93497307810E+02  0.98980132009E+02  0.47000000000E+01 0. -1.
        -13    1    4    4    0    0 -0.41022654615E+02 -0.10445183145E+03 -0.12262133263E+03  0.16621983787E+03  0.00000000000E+00 0.  1.
         14    1    4    4    0    0 -0.22536924472E+03 -0.23730589017E+03 -0.27560814772E+03  0.42786123108E+03  0.00000000000E+00 0. -1.
         -5    1    5    5    0  502  0.14724011959E+03  0.73857556044E+02 -0.26038545499E+03  0.30815136958E+03  0.47000000000E+01 0.  1.
         11    1    6    6    0    0  0.14152686366E+03  0.19260649383E+03 -0.28501581532E+03  0.37196925893E+03  0.00000000000E+00 0. -1.
        -12    1    6    6    0    0  0.93560306240E+01  0.80428487703E+02 -0.13606575683E+03  0.15833561547E+03  0.00000000000E+00 0.  1.
</event>
<event>
12    1  0.8461994E-002  0.1753365E+03  0.7818608E-02  0.1172474E+00
         21   -1    0    0  501  502  0.00000000000E+00  0.00000000000E+00  0.15747352980E+03  0.15747352980E+03  0.00000000000E+00 0.  1.
         21   -1    0    0  502  503 -0.00000000000E+00 -0.00000000000E+00 -0.22586916847E+03  0.22586916847E+03  0.00000000000E+00 0.  1.
         -6    2    1    2    0  503  0.24755575965E+02 -0.25198954324E+02 -0.10523187545E+03  0.20449114784E+03  0.17174124751E+03 0.  0.
        -24    2    3    3    0    0 -0.33073348523E+02  0.37090632080E+02 -0.29201263843E+02  0.90355610070E+02  0.69583482886E+02 0.  0.
          6    2    1    2  501    0 -0.24755575965E+02  0.25198954324E+02  0.36836236780E+02  0.17885155043E+03  0.17141511867E+03 0.  0.
         24    2    5    5    0    0 -0.72446983638E+02  0.21966309337E+02  0.59546268078E+02  0.12572193645E+03  0.80803236813E+02 0.  0.
          5    1    5    5  501    0  0.47691407674E+02  0.32326449873E+01 -0.22710031298E+02  0.53129613974E+02  0.47000000000E+01 0. -1.
        -11    1    6    6    0    0 -0.72841615113E+01  0.12873160776E+02 -0.18472198494E+02  0.23664306339E+02  0.00000000000E+00 0.  1.
         12    1    6    6    0    0 -0.65162822127E+02  0.90931485611E+01  0.78018466572E+02  0.10205763011E+03  0.00000000000E+00 0. -1.
         -5    1    3    3    0  503  0.57828924488E+02 -0.62289586404E+02 -0.76030611602E+02  0.11413553777E+03  0.47000000000E+01 0.  1.
         13    1    4    4    0    0  0.12543155695E+01  0.11615497666E+02 -0.43685428791E+02  0.45220678701E+02  0.00000000000E+00 0. -1.
        -14    1    4    4    0    0 -0.34327664093E+02  0.25475134414E+02  0.14484164948E+02  0.45134931369E+02  0.00000000000E+00 0.  1.
</event>
<event>
12    1  0.8461994E-002  0.2226217E+03  0.7818608E-02  0.1132018E+00
         21   -1    0    0  501  502  0.00000000000E+00  0.00000000000E+00  0.27271754401E+03  0.27271754401E+03  0.00000000000E+00 0.  1.
         21   -1    0    0  502  503 -0.00000000000E+00 -0.00000000000E+00 -0.18185304145E+03  0.18185304145E+03  0.00000000000E+00 0.  1.
         -6    2    1    2    0  503  0.93855885869E+02  0.10696792846E+03  0.56789191059E+02  0.22935613107E+03  0.17066973255E+03 0.  0.
        -24    2    3    3    0    0  0.35507083504E+02  0.11705383500E+03  0.75315432391E+02  0.16713378889E+03  0.85433809273E+02 0.  0.
          6    2    1    2  501    0 -0.93855885869E+02 -0.10696792846E+03  0.34075311500E+02  0.22521445439E+03  0.17119976221E+03 0.  0.
         24    2    5    5    0    0 -0.73411172875E+02 -0.10147366133E+03  0.83918313876E+02  0.17085833103E+03  0.80400134525E+02 0.  0.
          5    1    5    5  501    0 -0.20444712994E+02 -0.54942671247E+01 -0.49843002376E+02  0.54356123358E+02  0.47000000000E+01 0. -1.
        -13    1    6    6    0    0 -0.14159739270E+02  0.72217251276E+01  0.33707745517E+02  0.37267460846E+02  0.00000000000E+00 0.  1.
         14    1    6    6    0    0 -0.59251433605E+02 -0.10869538646E+03  0.50210568358E+02  0.13359087018E+03  0.00000000000E+00 0. -1.
         -5    1    3    3    0  503  0.58348802364E+02 -0.10085906543E+02 -0.18526241332E+02  0.62222342177E+02  0.47000000000E+01 0.  1.
         11    1    4    4    0    0 -0.20457628036E+02  0.64910195530E+02  0.56268318304E+02  0.88306124779E+02  0.00000000000E+00 0. -1.
        -12    1    4    4    0    0  0.55964711540E+02  0.52143639469E+02  0.19047114087E+02  0.78827664115E+02  0.00000000000E+00 0.  1.
</event>
<event>
12    1  0.8461994E-002  0.1824841E+03  0.7818608E-02  0.1166543E+00
         21   -1    0    0  501  502  0.00000000000E+00  0.00000000000E+00  0.24153028993E+03  0.24153028993E+03  0.00000000000E+00 0.  1.
         21   -1    0    0  502  503 -0.00000000000E+00 -0.00000000000E+00 -0.22210271551E+03  0.22210271551E+03  0.00000000000E+00 0.  1.
         -6    2    1    2    0  503 -0.14721144899E+01 -0.56083143452E+02 -0.13589557860E+03  0.22752597093E+03  0.17364611445E+03 0.  0.
        -24    2    3    3    0    0  0.99771487719E+00 -0.96887648208E+02 -0.56182552863E+02  0.13781886900E+03  0.80307842672E+02 0.  0.
          6    2    1    2  501    0  0.14721144899E+01  0.56083143452E+02  0.15532315303E+03  0.23610703451E+03  0.16874170729E+03 0.  0.
         24    2    5    5    0    0  0.13714921727E+02  0.37131220195E+02  0.17675138565E+03  0.20463767040E+03  0.95229707700E+02 0.  0.
          5    1    5    5  501    0 -0.12242807237E+02  0.18951923257E+02 -0.21428232621E+02  0.31469364109E+02  0.47000000000E+01 0. -1.
        -11    1    6    6    0    0  0.75753871217E+01  0.51856063322E+02  0.37417370001E+02  0.64393302222E+02  0.00000000000E+00 0.  1.
         12    1    6    6    0    0  0.61395346056E+01 -0.14724843127E+02  0.13933401565E+03  0.14024436818E+03  0.00000000000E+00 0. -1.
         -5    1    3    3    0  503 -0.24698293671E+01  0.40804504756E+02 -0.79713025736E+02  0.89707101934E+02  0.47000000000E+01 0.  1.
         13    1    4    4    0    0  0.29475457407E+02 -0.71488867003E+01 -0.52661241571E+01  0.30783781997E+02  0.00000000000E+00 0. -1.
        -14    1    4    4    0    0 -0.28477742530E+02 -0.89738761508E+02 -0.50916428705E+02  0.10703508700E+03  0.00000000000E+00 0.  1.
</event>
<event>
12    1  0.8461994E-002  0.1816055E+03  0.7818608E-02  0.1171605E+00
         21   -1    0    0  501  502  0.00000000000E+00  0.00000000000E+00  0.66595051436E+03  0.66595051436E+03  0.00000000000E+00 0. -1.
         21   -1    0    0  502  503 -0.00000000000E+00 -0.00000000000E+00 -0.45561939815E+02  0.45561939815E+02  0.00000000000E+00 0.  1.
         -6    2    1    2    0  503 -0.53666004568E+02  0.24743609405E+02  0.22565075407E+03  0.27700293713E+03  0.14939905661E+03 0.  0.
        -24    2    3    3    0    0  0.13199728891E+02  0.20946359292E+02  0.73276087176E+02  0.11049295386E+03  0.78907066159E+02 0.  0.
          6    2    1    2  501    0  0.53666004568E+02 -0.24743609405E+02  0.39473782047E+03  0.43450951704E+03  0.17172153981E+03 0.  0.
         24    2    5    5    0    0 -0.27574422990E+02 -0.39223753773E+02  0.16102753552E+03  0.18661383546E+03  0.81215791128E+02 0.  0.
          5    1    5    5  501    0  0.81240427557E+02  0.14480144368E+02  0.23371028495E+03  0.24789568157E+03  0.47000000000E+01 0. -1.
        -11    1    6    6    0    0 -0.38594118303E+02  0.98414548275E+01  0.44630899120E+02  0.59818704074E+02  0.00000000000E+00 0.  1.
         12    1    6    6    0    0  0.11019695314E+02 -0.49065208600E+02  0.11639663640E+03  0.12679513139E+03  0.00000000000E+00 0. -1.
         -5    1    3    3    0  503 -0.66865733459E+02  0.37972501135E+01  0.15237466689E+03  0.16650998328E+03  0.47000000000E+01 0.  1.
         11    1    4    4    0    0 -0.32069822603E+02  0.18232550411E+00  0.36464598947E+02  0.48561031093E+02  0.00000000000E+00 0. -1.
        -12    1    4    4    0    0  0.45269551494E+02  0.20764033788E+02  0.36811488228E+02  0.61931922764E+02  0.00000000000E+00 0.  1.
</event>
<event>
12    1  0.8461994E-002  0.2042622E+03  0.7818608E-02  0.1146195E+00
         21   -1    0    0  503  502  0.00000000000E+00  0.00000000000E+00  0.19191106821E+03  0.19191106821E+03  0.00000000000E+00 0.  1.
         21   -1    0    0  501  503 -0.00000000000E+00 -0.00000000000E+00 -0.40553601740E+03  0.40553601740E+03  0.00000000000E+00 0.  1.
          6    2    1    2  501    0 -0.93348910447E+01  0.11090027122E+03 -0.31028312362E+03  0.37148171403E+03  0.17128057889E+03 0.  0.
         24    2    3    3    0    0  0.56147722053E+02  0.37495532279E+02 -0.16694650102E+03  0.19757453851E+03  0.81277810210E+02 0.  0.
         -6    2    1    2    0  502  0.93348910447E+01 -0.11090027122E+03  0.96658174427E+02  0.22596537158E+03  0.17126452091E+03 0.  0.
        -24    2    5    5    0    0 -0.28857291109E+02 -0.13060566832E+03  0.80276461962E+02  0.17973339178E+03  0.89270364230E+02 0.  0.
          5    1    3    3  501    0 -0.65482613098E+02  0.73404738942E+02 -0.14333662260E+03  0.17390717552E+03  0.47000000000E+01 0. -1.
        -13    1    4    4    0    0 -0.61696429014E+01  0.40109754299E+02 -0.44952506040E+02  0.60560586875E+02  0.00000000000E+00 0.  1.
         14    1    4    4    0    0  0.62317364954E+02 -0.26142220200E+01 -0.12199399498E+03  0.13701395164E+03  0.00000000000E+00 0. -1.
         -5    1    5    5    0  502  0.38192182154E+02  0.19705397099E+02  0.16381712465E+02  0.46231979795E+02  0.47000000000E+01 0.  1.
         13    1    6    6    0    0 -0.36073026631E+02 -0.12740931734E+02  0.25061303241E+01  0.38338952528E+02  0.00000000000E+00 0. -1.
        -14    1    6    6    0    0  0.72157355214E+01 -0.11786473659E+03  0.77770331638E+02  0.14139443926E+03  0.00000000000E+00 0.  1.
</event>
<event>
12    1  0.8461994E-002  0.1929158E+03  0.7818608E-02  0.1156460E+00
         21   -1    0    0  503  502  0.00000000000E+00  0.00000000000E+00  0.79449667355E+03  0.79449667355E+03  0.00000000000E+00 0. -1.
         21   -1    0    0  501  503 -0.00000000000E+00 -0.00000000000E+00 -0.46788021610E+02  0.46788021610E+02  0.00000000000E+00 0.  1.
          6    2    1    2  501    0  0.29160200462E+02 -0.80215129534E+02  0.32885682287E+03  0.38126539895E+03  0.17300783275E+03 0.  0.
         24    2    3    3    0    0 -0.41439659829E+02 -0.21616360402E+00  0.12540371124E+03  0.15148412588E+03  0.74189335271E+02 0.  0.
         -6    2    1    2    0  502 -0.29160200462E+02  0.80215129534E+02  0.41885182907E+03  0.46001929621E+03  0.16998856982E+03 0.  0.
        -24    2    5    5    0    0 -0.21993056847E+02  0.11545828709E+03  0.37628523143E+03  0.40409565776E+03  0.88816747416E+02 0.  0.
          5    1    3    3  501    0  0.70599860291E+02 -0.79998965930E+02  0.20345311162E+03  0.22978127307E+03  0.47000000000E+01 0. -1.
        -11    1    4    4    0    0 -0.58405640091E+02  0.13388151225E+02  0.71064941039E+02  0.92955296958E+02  0.00000000000E+00 0.  1.
         12    1    4    4    0    0  0.16965980262E+02 -0.13604314829E+02  0.54338770202E+02  0.58528828925E+02  0.00000000000E+00 0. -1.
         -5    1    5    5    0  502 -0.71671436153E+01 -0.35243157556E+02  0.42566597638E+02  0.55923638442E+02  0.47000000000E+01 0.  1.
         11    1    6    6    0    0  0.16510842759E+02  0.19879217960E+01  0.11724525100E+02  0.20347585864E+02  0.00000000000E+00 0. -1.
        -12    1    6    6    0    0 -0.38503899605E+02  0.11347036529E+03  0.36456070633E+03  0.38374807190E+03  0.00000000000E+00 0.  1.
</event>
<event>
12    1  0.8461994E-002  0.2678676E+03  0.7818608E-02  0.1102576E+00
         21   -1    0    0  501  502  0.00000000000E+00  0.00000000000E+00  0.10149647413E+04  0.10149647413E+04  0.00000000000E+00 0. -1.
         21   -1    0    0  502  503 -0.00000000000E+00 -0.00000000000E+00 -0.71063562397E+02  0.71063562397E+02  0.00000000000E+00 0.  1.
         -6    2    1    2    0  503  0.15455683994E+03  0.13561169183E+03  0.51689349647E+03  0.58195628070E+03  0.17092652871E+03 0.  0.
        -24    2    3    3    0    0  0.15580987755E+03  0.12037547515E+03  0.31429124106E+03  0.37872371367E+03  0.76718277687E+02 0.  0.
          6    2    1    2  501    0 -0.15455683994E+03 -0.13561169183E+03  0.42700768244E+03  0.50407202301E+03  0.17168196114E+03 0.  0.
         24    2    5    5    0    0 -0.69476578127E+02 -0.75269458434E+02  0.94144072584E+02  0.15521659615E+03  0.68822954279E+02 0.  0.
          5    1    5    5  501    0 -0.85080261816E+02 -0.60342233395E+02  0.33286360986E+03  0.34885542686E+03  0.47000000000E+01 0. -1.
        -13    1    6    6    0    0 -0.56271180225E+02 -0.17408068451E+02  0.24713005477E+02  0.63876593607E+02  0.00000000000E+00 0.  1.
         14    1    6    6    0    0 -0.13205397902E+02 -0.57861389983E+02  0.69431067106E+02  0.91340002540E+02  0.00000000000E+00 0. -1.
         -5    1    3    3    0  503 -0.12530376118E+01  0.15236216681E+02  0.20260225541E+03  0.20323256702E+03  0.47000000000E+01 0.  1.
         11    1    4    4    0    0  0.12434232443E+03  0.10485613937E+03  0.29915086081E+03  0.34051000152E+03  0.00000000000E+00 0. -1.
        -12    1    4    4    0    0  0.31467553127E+02  0.15519335781E+02  0.15140380247E+02  0.38213712158E+02  0.00000000000E+00 0.  1.
</event>
<event>
12    1  0.8461994E-002  0.2107458E+03  0.7818608E-02  0.1141191E+00
         21   -1    0    0  501  502  0.00000000000E+00  0.00000000000E+00  0.10044677021E+04  0.10044677021E+04  0.00000000000E+00 0.  1.
         21   -1    0    0  502  503 -0.00000000000E+00 -0.00000000000E+00 -0.72012024917E+02  0.72012024917E+02  0.00000000000E+00 0.  1.
         -6    2    1    2    0  503 -0.23885158689E+02  0.11751521463E+03  0.13120237183E+03  0.24824956491E+03  0.17330163770E+03 0.  0.
        -24    2    3    3    0    0  0.34197230868E+02  0.69291184331E+02  0.13155210398E+03  0.17261006870E+03  0.80731412280E+02 0.  0.
          6    2    1    2  501    0  0.23885158689E+02 -0.11751521463E+03  0.80125330532E+03  0.82823016206E+03  0.17198260259E+03 0.  0.
         24    2    5    5    0    0 -0.35003690952E+02 -0.49942343102E+02  0.59481877413E+03  0.60312730725E+03  0.78953648919E+02 0.  0.
          5    1    5    5  501    0  0.58888849641E+02 -0.67572871532E+02  0.20643453118E+03  0.22510285481E+03  0.47000000000E+01 0. -1.
        -11    1    6    6    0    0  0.24651576299E+02 -0.52003061847E+01  0.14854134684E+03  0.15066278612E+03  0.00000000000E+00 0.  1.
         12    1    6    6    0    0 -0.59655267250E+02 -0.44742036917E+02  0.44627742729E+03  0.45246452114E+03  0.00000000000E+00 0. -1.
         -5    1    3    3    0  503 -0.58082389557E+02  0.48224030303E+02 -0.34973215521E+00  0.75639496217E+02  0.47000000000E+01 0.  1.
         11    1    4    4    0    0 -0.24216626806E+02  0.50199807795E+01  0.33215717012E+02  0.41411702181E+02  0.00000000000E+00 0. -1.
        -12    1    4    4    0    0  0.58413857675E+02  0.64271203551E+02  0.98336386968E+02  0.13119836652E+03  0.00000000000E+00 0.  1.
</event>
<event>
12    1  0.8461994E-002  0.2184837E+03  0.7818608E-02  0.1135266E+00
         21   -1    0    0  501  502  0.00000000000E+00  0.00000000000E+00  0.98531039569E+03  0.98531039569E+03  0.00000000000E+00 0.  1.
         21   -1    0    0  502  503 -0.00000000000E+00 -0.00000000000E+00 -0.20759220507E+03  0.20759220507E+03  0.00000000000E+00 0.  1.
         -6    2    1    2    0  503 -0.10507264045E+03  0.80601833038E+02 -0.13358086055E+03  0.25608394778E+03  0.17377636993E+03 0.  0.
        -24    2    3    3    0    0 -0.46211772919E+02  0.94842663303E+02 -0.14285910063E+03  0.19463820983E+03  0.79653319811E+02 0.  0.
          6    2    1    2  501    0  0.10507264045E+03 -0.80601833038E+02  0.91129905117E+03  0.93681865298E+03  0.17212295795E+03 0.  0.
         24    2    5    5    0    0  0.32378688412E+02  0.17472867987E+02  0.28233775648E+03  0.29610228995E+03  0.81291308259E+02 0.  0.
          5    1    5    5  501    0  0.72693952039E+02 -0.98074701024E+02  0.62896129469E+03  0.64071636304E+03  0.47000000000E+01 0. -1.
        -13    1    6    6    0    0  0.21161768781E+02 -0.31968043445E+02  0.13134009595E+03  0.13682104028E+03  0.00000000000E+00 0.  1.
         14    1    6    6    0    0  0.11216919631E+02  0.49440911432E+02  0.15099766053E+03  0.15928124967E+03  0.00000000000E+00 0. -1.
         -5    1    3    3    0  503 -0.58860867531E+02 -0.14240830266E+02  0.92782400729E+01  0.61445737948E+02  0.47000000000E+01 0.  1.
         13    1    4    4    0    0  0.15190206126E+02  0.13953521153E+02 -0.60392652827E+02  0.63817831600E+02  0.00000000000E+00 0. -1.
        -14    1    4    4    0    0 -0.61401979046E+02  0.80889142150E+02 -0.82466447800E+02  0.13082037823E+03  0.00000000000E+00 0.  1.
</event>
<event>
12    1  0.8461994E-002  0.1954884E+03  0.7818608E-02  0.1153794E+00
         21   -1    0    0  501  502  0.00000000000E+00  0.00000000000E+00  0.19117444478E+03  0.19117444478E+03  0.00000000000E+00 0.  1.
         21   -1    0    0  502  503 -0.00000000000E+00 -0.00000000000E+00 -0.25662599342E+03  0.25662599342E+03  0.00000000000E+00 0.  1.
         -6    2    1    2    0  503  0.91433830684E+02 -0.88624051740E+01 -0.13876707457E+03  0.23901611875E+03  0.17156257289E+03 0.  0.
        -24    2    3    3    0    0  0.18728952059E+02 -0.37631830339E+02 -0.13326061095E+03  0.16049166178E+03  0.78944631040E+02 0.  0.
          6    2    1    2  501    0 -0.91433830684E+02  0.88624051740E+01  0.73315525932E+02  0.20878431946E+03  0.17256024482E+03 0.  0.
         24    2    5    5    0    0 -0.87792194555E+02  0.65770410036E+02  0.67235405004E+02  0.15124441677E+03  0.79505079442E+02 0.  0.
          5    1    5    5  501    0 -0.36416361291E+01 -0.56908004862E+02  0.60801209283E+01  0.57539902690E+02  0.47000000000E+01 0. -1.
        -13    1    6    6    0    0  0.83497141586E+01  0.23290142114E+02  0.31867911007E+02  0.40344915395E+02  0.00000000000E+00 0.  1.
         14    1    6    6    0    0 -0.96141908713E+02  0.42480267922E+02  0.35367493997E+02  0.11089950138E+03  0.00000000000E+00 0. -1.
         -5    1    3    3    0  503  0.72704878625E+02  0.28769425165E+02 -0.55064636215E+01  0.78524456966E+02  0.47000000000E+01 0.  1.
         13    1    4    4    0    0  0.45447574962E+02 -0.37931754404E+02 -0.69101066654E+02  0.90990425182E+02  0.00000000000E+00 0. -1.
        -14    1    4    4    0    0 -0.26718622903E+02  0.29992406556E+00 -0.64159544296E+02  0.69501236597E+02  0.00000000000E+00 0.  1.
</event>
<event>
12    1  0.8461994E-002  0.1739410E+03  0.7818608E-02  0.1174048E+00
         21   -1    0    0  503  502  0.00000000000E+00  0.00000000000E+00  0.33159226129E+03  0.33159226129E+03  0.00000000000E+00 0.  1.
         21   -1    0    0  501  503 -0.00000000000E+00 -0.00000000000E+00 -0.12305961442E+03  0.12305961442E+03  0.00000000000E+00 0.  1.
          6    2    1    2  501    0 -0.79118513855E+01 -0.25016945733E+02 -0.12034345997E+02  0.17435678006E+03  0.17195062170E+03 0.  0.
         24    2    3    3    0    0  0.64153227943E+01 -0.66337852826E+02  0.34593392858E+02  0.11025591178E+03  0.80732869200E+02 0.  0.
         -6    2    1    2    0  502  0.79118513855E+01  0.25016945733E+02  0.22056699287E+03  0.28029509566E+03  0.17095934412E+03 0.  0.
        -24    2    5    5    0    0 -0.25627745727E+02 -0.46451994943E+01  0.21573828965E+03  0.23501647147E+03  0.89506273575E+02 0.  0.
          5    1    3    3  501    0 -0.14327174180E+02  0.41320907092E+02 -0.46627738855E+02  0.64100868275E+02  0.47000000000E+01 0. -1.
        -11    1    4    4    0    0  0.75980589999E+01 -0.20446396860E+02 -0.26190642790E+02  0.34084239978E+02  0.00000000000E+00 0.  1.
         12    1    4    4    0    0 -0.11827362056E+01 -0.45891455966E+02  0.60784035648E+02  0.76171671803E+02  0.00000000000E+00 0. -1.
         -5    1    5    5    0  502  0.33539597112E+02  0.29662145228E+02  0.48287032119E+01  0.45278624191E+02  0.47000000000E+01 0.  1.
         11    1    6    6    0    0 -0.39798687789E+01 -0.41710059897E+02  0.58057427999E+02  0.71597719223E+02  0.00000000000E+00 0. -1.
        -12    1    6    6    0    0 -0.21647876948E+02  0.37064860403E+02  0.15768086166E+03  0.16341875225E+03  0.00000000000E+00 0.  1.
</event>
<event>
12    1  0.8461994E-002  0.1886106E+03  0.7818608E-02  0.1160256E+00
         21   -1    0    0  501  502  0.00000000000E+00  0.00000000000E+00  0.11477753118E+04  0.11477753118E+04  0.00000000000E+00 0.  1.
         21   -1    0    0  502  503 -0.00000000000E+00 -0.00000000000E+00 -0.19684633283E+03  0.19684633283E+03  0.00000000000E+00 0.  1.
         -6    2    1    2    0  503  0.75438218019E+02  0.36065451082E+01 -0.14282294968E+03  0.23472649608E+03  0.17027683665E+03 0.  0.
        -24    2    3    3    0    0 -0.40012679675E+00 -0.61837327773E+02 -0.74190592212E+02  0.11320758588E+03  0.59056738153E+02 0.  0.
          6    2    1    2  501    0 -0.75438218019E+02 -0.36065451082E+01  0.10937519287E+04  0.11098951486E+04  0.17282947511E+03 0.  0.
         24    2    5    5    0    0 -0.46471929330E+01  0.13335318242E+02  0.88801476567E+03  0.89161032042E+03  0.78735711796E+02 0.  0.
          5    1    5    5  501    0 -0.70791025086E+02 -0.16941863350E+02  0.20573716300E+03  0.21828482816E+03  0.47000000000E+01 0. -1.
        -13    1    6    6    0    0 -0.41658081426E+02  0.95862745639E+01  0.48969161259E+03  0.49155383006E+03  0.00000000000E+00 0.  1.
         14    1    6    6    0    0  0.37010888493E+02  0.37490436783E+01  0.39832315309E+03  0.40005649036E+03  0.00000000000E+00 0. -1.
         -5    1    3    3    0  503  0.75838344816E+02  0.65443872882E+02 -0.68632357470E+02  0.12151891019E+03  0.47000000000E+01 0.  1.
         13    1    4    4    0    0 -0.16302741460E+02 -0.47774328645E+02 -0.18762853519E+02  0.53853602747E+02  0.00000000000E+00 0. -1.
        -14    1    4    4    0    0  0.15902614663E+02 -0.14062999128E+02 -0.55427738693E+02  0.59353983137E+02  0.00000000000E+00 0.  1.
</event>
<event>
12    1  0.8461994E-002  0.1809120E+03  0.7818608E-02  0.1167487E+00
         21   -1    0    0  501  502  0.00000000000E+00  0.00000000000E+00  0.23866104017E+04  0.23866104017E+04  0.00000000000E+00 0. -1.
         21   -1    0    0  502  503 -0.00000000000E+00 -0.00000000000E+00 -0.15691209957E+02  0.15691209957E+02  0.00000000000E+00 0.  1.
         -6    2    1    2    0  503  0.17432967764E+02  0.48649749667E+02  0.16238146910E+04  0.16336051279E+04  0.17094109139E+03 0.  0.
        -24    2    3    3    0    0  0.15008343463E+02  0.69506459380E+02  0.57502063097E+03  0.58459037516E+03  0.77722470475E+02 0.  0.
          6    2    1    2  501    0 -0.17432967764E+02 -0.48649749667E+02  0.74710450073E+03  0.76869648373E+03  0.17337370787E+03 0.  0.
         24    2    5    5    0    0 -0.73757443838E+02 -0.44586296494E+02  0.56645540528E+03  0.57936834546E+03  0.85836211392E+02 0.  0.
          5    1    5    5  501    0  0.56324476073E+02 -0.40634531729E+01  0.18064909545E+03  0.18932813828E+03  0.47000000000E+01 0. -1.
        -11    1    6    6    0    0  0.73703649317E+01 -0.25442516554E+02  0.27365447382E+03  0.27493347371E+03  0.00000000000E+00 0.  1.
         12    1    6    6    0    0 -0.81127808769E+02 -0.19143779940E+02  0.29280093147E+03  0.30443487175E+03  0.00000000000E+00 0. -1.
         -5    1    3    3    0  503  0.24246243017E+01 -0.20856709713E+02  0.10487940600E+04  0.10490147528E+04  0.47000000000E+01 0.  1.
         13    1    4    4    0    0  0.77049247767E+01  0.13039957835E+01  0.33154873828E+03  0.33164081794E+03  0.00000000000E+00 0. -1.
        -14    1    4    4    0    0  0.73034186859E+01  0.68202463596E+02  0.24347189269E+03  0.25294955722E+03  0.00000000000E+00 0.  1.
</event>
<event>
12    1  0.8461994E-002  0.1851758E+03  0.7818608E-02  0.1162939E+00
         21   -1    0    0  503  502  0.00000000000E+00  0.00000000000E+00  0.54781043733E+03  0.54781043733E+03  0.00000000000E+00 0. -1.
         21   -1    0    0  501  503 -0.00000000000E+00 -0.00000000000E+00 -0.97018104286E+02  0.97018104286E+02  0.00000000000E+00 0. -1.
          6    2    1    2  501    0 -0.45355249928E+02  0.51545817685E+02  0.33043532747E+02  0.18787761984E+03  0.17173250992E+03 0.  0.
         24    2    3    3    0    0  0.24927144201E+02  0.46692140950E+01  0.28201851441E+02  0.10312761827E+03  0.95899932987E+02 0.  0.
         -6    2    1    2    0  502  0.45355249928E+02 -0.51545817685E+02  0.41774880030E+03  0.45695092177E+03  0.17197678548E+03 0.  0.
        -24    2    5    5    0    0  0.78291768530E+02 -0.42676696037E+02  0.17246268111E+03  0.20925989278E+03  0.78073202498E+02 0.  0.
          5    1    3    3  501    0 -0.70282394129E+02  0.46876603590E+02  0.48416813065E+01  0.84750001572E+02  0.47000000000E+01 0. -1.
        -11    1    4    4    0    0  0.48942216207E+01  0.30952955124E+02 -0.25277236009E+02  0.40261364810E+02  0.00000000000E+00 0.  1.
         12    1    4    4    0    0  0.20032922581E+02 -0.26283741029E+02  0.53479087449E+02  0.62866253459E+02  0.00000000000E+00 0. -1.
         -5    1    5    5    0  502 -0.32936518603E+02 -0.88691216473E+01  0.24528611918E+03  0.24769102899E+03  0.47000000000E+01 0.  1.
         13    1    6    6    0    0  0.60735040876E+02 -0.11465207575E+02  0.43922675574E+02  0.75824782258E+02  0.00000000000E+00 0. -1.
        -14    1    6    6    0    0  0.17556727655E+02 -0.31211488462E+02  0.12854000554E+03  0.13343511053E+03  0.00000000000E+00 0.  1.
</event>
<event>
12    1  0.8461994E-002  0.2225458E+03  0.7818608E-02  0.1132129E+00
         21   -1    0    0  503  502  0.00000000000E+00  0.00000000000E+00  0.77510844856E+03  0.77510844856E+03  0.00000000000E+00 0. -1.
         21   -1    0    0  501  503 -0.00000000000E+00 -0.00000000000E+00 -0.14789253079E+03  0.14789253079E+03  0.00000000000E+00 0.  1.
          6    2    1    2  501    0 -0.13763276011E+03  0.20716082787E+02 -0.34823871287E+02  0.22455749294E+03  0.17274673045E+03 0.  0.
         24    2    3    3    0    0 -0.85170890065E+02  0.28534515796E+02  0.44870117802E+02  0.12871075277E+03  0.80528450264E+02 0.  0.
         -6    2    1    2    0  502  0.13763276011E+03 -0.20716082787E+02  0.66203978906E+03  0.69844348641E+03  0.17365105435E+03 0.  0.
        -24    2    5    5    0    0  0.13772914122E+03 -0.47923725596E+02  0.64598150336E+03  0.66650254629E+03  0.75283077158E+02 0.  0.
          5    1    3    3  501    0 -0.52461870048E+02 -0.78184330086E+01 -0.79693989089E+02  0.95846740167E+02  0.47000000000E+01 0. -1.
        -11    1    4    4    0    0 -0.95920624190E+02  0.67323798934E+01  0.33022040252E+02  0.10166880656E+03  0.00000000000E+00 0.  1.
         12    1    4    4    0    0  0.10749734125E+02  0.21802135903E+02  0.11848077550E+02  0.27041946219E+02  0.00000000000E+00 0. -1.
         -5    1    5    5    0  502 -0.96381110418E-01  0.27207642808E+02  0.16058285693E+02  0.31940940122E+02  0.47000000000E+01 0.  1.
         13    1    6    6    0    0  0.10492840502E+03  0.35311462354E+00  0.38227230979E+03  0.39641167200E+03  0.00000000000E+00 0. -1.
        -14    1    6    6    0    0  0.32800736208E+02 -0.48276840219E+02  0.26370919358E+03  0.27009087429E+03  0.00000000000E+00 0.  1.
</event>
<event>
12    1  0.8461994E-002  0.2243035E+03  0.7818608E-02  0.1130756E+00
         21   -1    0    0  501  502  0.00000000000E+00  0.00000000000E+00  0.67937414873E+02  0.67937414873E+02  0.00000000000E+00 0.  1.
         21   -1    0    0  502  503 -0.00000000000E+00 -0.00000000000E+00 -0.78224093868E+03  0.78224093868E+03  0.00000000000E+00 0.  1.
         -6    2    1    2    0  503 -0.11578485965E+03 -0.84563602819E+02 -0.45597305271E+03  0.50805747629E+03  0.17220289709E+03 0.  0.
        -24    2    3    3    0    0 -0.51563158498E+02 -0.86843657450E+02 -0.20191047885E+03  0.24595156833E+03  0.97589714321E+02 0.  0.
          6    2    1    2  501    0  0.11578485965E+03  0.84563602819E+02 -0.25833047109E+03  0.34212087726E+03  0.17249616145E+03 0.  0.
         24    2    5    5    0    0 -0.91848394967E+01  0.33749809814E+02 -0.88732365689E+02  0.12536046893E+03  0.81353570969E+02 0.  0.
          5    1    5    5  501    0  0.12496969915E+03  0.50813793005E+02 -0.16959810540E+03  0.21676040833E+03  0.47000000000E+01 0. -1.
        -11    1    6    6    0    0 -0.45978535542E+01  0.58653754975E+02 -0.78377649485E+02  0.98002342670E+02  0.00000000000E+00 0.  1.
         12    1    6    6    0    0 -0.45869859425E+01 -0.24903945160E+02 -0.10354716204E+02  0.27358126256E+02  0.00000000000E+00 0. -1.
         -5    1    3    3    0  503 -0.64221701157E+02  0.22800546310E+01 -0.25406257386E+03  0.26210590796E+03  0.47000000000E+01 0.  1.
         13    1    4    4    0    0 -0.42948650162E+02  0.26765706349E+01 -0.10635465940E+03  0.11473039770E+03  0.00000000000E+00 0. -1.
        -14    1    4    4    0    0 -0.86145083359E+01 -0.89520228085E+02 -0.95555819455E+02  0.13122117063E+03  0.00000000000E+00 0.  1.
</event>
<event>
12    1  0.8461994E-002  0.2879540E+03  0.7818608E-02  0.1091597E+00
         21   -1    0    0  501  502  0.00000000000E+00  0.00000000000E+00  0.94768971054E+03  0.94768971054E+03  0.00000000000E+00 0. -1.
         21   -1    0    0  502  503 -0.00000000000E+00 -0.00000000000E+00 -0.90894737432E+02  0.90894737432E+02  0.00000000000E+00 0. -1.
         -6    2    1    2    0  503 -0.18844146514E+03  0.13293375755E+03  0.32123242240E+03  0.43051802033E+03  0.17021729333E+03 0.  0.
        -24    2    3    3    0    0 -0.17801051284E+03  0.53201337856E+02  0.20002689536E+03  0.28498818387E+03  0.81788636419E+02 0.  0.
          6    2    1    2  501    0  0.18844146514E+03 -0.13293375755E+03  0.53556255071E+03  0.60806642765E+03  0.17244119295E+03 0.  0.
         24    2    5    5    0    0  0.30349004752E+02 -0.33459095139E+02  0.11713490521E+03  0.14981734798E+03  0.81756214451E+02 0.  0.
          5    1    5    5  501    0  0.15809246039E+03 -0.99474662406E+02  0.41842764550E+03  0.45824907966E+03  0.47000000000E+01 0. -1.
        -11    1    6    6    0    0  0.36012684576E+02  0.53302257734E+00  0.10845687086E+03  0.11428075253E+03  0.00000000000E+00 0.  1.
         12    1    6    6    0    0 -0.56636798242E+01 -0.33992117716E+02  0.86780343536E+01  0.35536595451E+02  0.00000000000E+00 0. -1.
         -5    1    3    3    0  503 -0.10430952302E+02  0.79732419689E+02  0.12120552704E+03  0.14552983646E+03  0.47000000000E+01 0.  1.
         13    1    4    4    0    0 -0.91770628380E+02  0.58133151980E+02  0.14987199861E+03  0.18510247854E+03  0.00000000000E+00 0. -1.
        -14    1    4    4    0    0 -0.86239884455E+02 -0.49318141249E+01  0.50154896743E+02  0.99885705327E+02  0.00000000000E+00 0.  1.
</event>
<event>
12    1  0.8461994E-002  0.1771704E+03  0.7818608E-02  0.1171184E+00
         21   -1    0    0  501  502  0.00000000000E+00  0.00000000000E+00  0.29719894395E+02  0.29719894395E+02  0.00000000000E+00 0.  1.
         21   -1    0    0  502  503 -0.00000000000E+00 -0.00000000000E+00 -0.10485237814E+04  0.10485237814E+04  0.00000000000E+00 0.  1.
         -6    2    1    2    0  503 -0.21236220646E+02  0.32545762183E+02 -0.55699807391E+03  0.58449654358E+03  0.17285586890E+03 0.  0.
        -24    2    3    3    0    0 -0.77375867833E+02 -0.22009436289E+01 -0.36659708383E+03  0.38291871599E+03  0.79002861391E+02 0.  0.
          6    2    1    2  501    0  0.21236220646E+02 -0.32545762183E+02 -0.46180581313E+03  0.49374713225E+03  0.17032738436E+03 0.  0.
         24    2    5    5    0    0  0.78705947538E+02 -0.89205355592E+01 -0.33240831328E+03  0.35012706468E+03  0.76285467497E+02 0.  0.
          5    1    5    5  501    0 -0.57469726892E+02 -0.23625226623E+02 -0.12939749984E+03  0.14362006757E+03  0.47000000000E+01 0. -1.
        -13    1    6    6    0    0  0.57866821473E+02 -0.23041093907E+02 -0.11090674875E+03  0.12719971680E+03  0.00000000000E+00 0.  1.
         14    1    6    6    0    0  0.20839126065E+02  0.14120558348E+02 -0.22150156454E+03  0.22292734788E+03  0.00000000000E+00 0. -1.
         -5    1    3    3    0  503  0.56139647187E+02  0.34746705812E+02 -0.19040099008E+03  0.20157782758E+03  0.47000000000E+01 0.  1.
         11    1    4    4    0    0  0.59159674781E+01 -0.23558255797E+02 -0.93588022537E+02  0.96688717283E+02  0.00000000000E+00 0. -1.
        -12    1    4    4    0    0 -0.83291835311E+02  0.21357312169E+02 -0.27300906129E+03  0.28622999871E+03  0.00000000000E+00 0.  1.
</event>
<event>
12    1  0.8461994E-002  0.1736314E+03  0.7818608E-02  0.1174239E+00
         21   -1    0    0  501  502  0.00000000000E+00  0.00000000000E+00  0.49322597882E+02  0.49322597882E+02  0.00000000000E+00 0. -1.
         21   -1    0    0  502  503 -0.00000000000E+00 -0.00000000000E+00 -0.10538513966E+04  0.10538513966E+04  0.00000000000E+00 0. -1.
         -6    2    1    2    0  503  0.11588504575E+00  0.19307684844E+02 -0.86084815367E+03  0.87818415675E+03  0.17255454022E+03 0.  0.
        -24    2    3    3    0    0  0.51233147598E+02 -0.40155371916E+01 -0.72342791145E+03  0.72964675340E+03  0.79971755909E+02 0.  0.
          6    2    1    2  501    0 -0.11588504575E+00 -0.19307684844E+02 -0.14368064507E+03  0.22498983777E+03  0.17205667440E+03 0.  0.
         24    2    5    5    0    0 -0.55391673579E+02 -0.50644493420E+02 -0.87982149175E+02  0.14036229606E+03  0.79546297000E+02 0.  0.
          5    1    5    5  501    0  0.55275788533E+02  0.31336808576E+02 -0.55698495898E+02  0.84627541704E+02  0.47000000000E+01 0. -1.
        -11    1    6    6    0    0  0.29728406158E+01 -0.46704114155E+02 -0.58317150551E+02  0.74773003877E+02  0.00000000000E+00 0.  1.
         12    1    6    6    0    0 -0.58364514194E+02 -0.39403792648E+01 -0.29664998623E+02  0.65589292184E+02  0.00000000000E+00 0. -1.
         -5    1    3    3    0  503 -0.51117262553E+02  0.23323222035E+02 -0.13742024223E+03  0.14853740334E+03  0.47000000000E+01 0.  1.
         13    1    4    4    0    0  0.48128813656E+01 -0.31533272392E+02 -0.43816200939E+03  0.43932158787E+03  0.00000000000E+00 0. -1.
        -14    1    4    4    0    0  0.46420266233E+02  0.27517735201E+02 -0.28526590206E+03  0.29032516554E+03  0.00000000000E+00 0.  1.
</event>
<event>
12    1  0.8461994E-002  0.1914434E+03  0.7818608E-02  0.1157321E+00
         21   -1    0    0  501  502  0.00000000000E+00  0.00000000000E+00  0.40852825031E+03  0.40852825031E+03  0.00000000000E+00 0.  1.
         21   -1    0    0  502  503 -0.00000000000E+00 -0.00000000000E+00 -0.13863990472E+03  0.13863990472E+03  0.00000000000E+00 0.  1.
         -6    2    1    2    0  503 -0.26859411813E+02  0.79289411360E+02 -0.28273583429E+02  0.19283623069E+03  0.17140063475E+03 0.  0.
        -24    2    3    3    0    0 -0.40691535920E+02  0.75711095186E+01 -0.64785796838E+02  0.11104335689E+03  0.80126804776E+02 0.  0.
          6    2    1    2  501    0  0.26859411813E+02 -0.79289411360E+02  0.29816192902E+03  0.35433192433E+03  0.17216950347E+03 0.  0.
         24    2    5    5    0    0 -0.43095023226E+02 -0.85016363226E+01  0.14868446362E+03  0.17469302337E+03  0.80505427425E+02 0.  0.
          5    1    5    5  501    0  0.69954435039E+02 -0.70787775037E+02  0.14947746540E+03  0.17963890096E+03  0.47000000000E+01 0. -1.
        -13    1    6    6    0    0  0.72096062752E+01 -0.29166570136E+02  0.23293708155E+02  0.38016628937E+02  0.00000000000E+00 0.  1.
         14    1    6    6    0    0 -0.50304629501E+02  0.20664933814E+02  0.12539075547E+03  0.13667639443E+03  0.00000000000E+00 0. -1.
         -5    1    3    3    0  503  0.13832124106E+02  0.71718301841E+02  0.36512213409E+02  0.81792873799E+02  0.47000000000E+01 0.  1.
         11    1    4    4    0    0  0.20309239266E+02  0.18217670899E+02 -0.27622192636E+02  0.38824402875E+02  0.00000000000E+00 0. -1.
        -12    1    4    4    0    0 -0.61000775186E+02 -0.10646561380E+02 -0.37163604201E+02  0.72218954020E+02  0.00000000000E+00 0.  1.
</event>
<event>
12    1  0.8461994E-002  0.1803872E+03  0.7818608E-02  0.1171887E+00
         21   -1    0    0  503  502  0.00000000000E+00  0.00000000000E+00  0.16031879232E+03  0.16031879232E+03  0.00000000000E+00 0. -1.
         21   -1    0    0  501  503 -0.00000000000E+00 -0.00000000000E+00 -0.21110870398E+03  0.21110870398E+03  0.00000000000E+00 0. -1.
          6    2    1    2  501    0 -0.52130440782E+02  0.20482221157E+02 -0.93292726408E+02  0.20308394077E+03  0.17147142606E+03 0.  0.
         24    2    3    3    0    0 -0.73408207098E+01 -0.33874302821E+02  0.10969712159E+00  0.86007707113E+02  0.78714405347E+02 0.  0.
         -6    2    1    2    0  502  0.52130440782E+02 -0.20482221157E+02  0.42502814757E+02  0.16834355553E+03  0.15295737703E+03 0.  0.
        -24    2    5    5    0    0  0.67325921312E+02  0.21593947188E+02  0.57514420457E+02  0.12092262264E+03  0.79468823253E+02 0.  0.
          5    1    3    3  501    0 -0.44789620072E+02  0.54356523977E+02 -0.93402423530E+02  0.11707623365E+03  0.47000000000E+01 0. -1.
        -11    1    4    4    0    0 -0.15650771436E+01  0.24996383071E+02 -0.80205822919E+01  0.26298257991E+02  0.00000000000E+00 0.  1.
         12    1    4    4    0    0 -0.57757435662E+01 -0.58870685891E+02  0.81302794135E+01  0.59709449122E+02  0.00000000000E+00 0. -1.
         -5    1    5    5    0  502 -0.15195480530E+02 -0.42076168344E+02 -0.15011605700E+02  0.47420932897E+02  0.47000000000E+01 0.  1.
         13    1    6    6    0    0  0.29963506937E+02 -0.26819265867E+02  0.41326579421E+02  0.57662560958E+02  0.00000000000E+00 0. -1.
        -14    1    6    6    0    0  0.37362414376E+02  0.48413213055E+02  0.16187841037E+02  0.63260061680E+02  0.00000000000E+00 0.  1.
</event>
<event>
12    1  0.8461994E-002  0.2097829E+03  0.7818608E-02  0.1142079E+00
         21   -1    0    0  501  502  0.00000000000E+00  0.00000000000E+00  0.96561680391E+02  0.96561680391E+02  0.00000000000E+00 0. -1.
         21   -1    0    0  502  503 -0.00000000000E+00 -0.00000000000E+00 -0.57543492279E+03  0.57543492279E+03  0.00000000000E+00 0.  1.
         -6    2    1    2    0  503  0.96163291059E+02  0.72720470634E+02 -0.39579872507E+03  0.44795703651E+03  0.17167769335E+03 0.  0.
        -24    2    3    3    0    0  0.90558094506E+02 -0.12598013694E+01 -0.31836571473E+03  0.34061431452E+03  0.80368074258E+02 0.  0.
          6    2    1    2  501    0 -0.96163291059E+02 -0.72720470634E+02 -0.83074517327E+02  0.22403956667E+03  0.16957802513E+03 0.  0.
         24    2    5    5    0    0 -0.66708023623E+01 -0.77669436205E+02 -0.73816146673E+02  0.13381093917E+03  0.79871791062E+02 0.  0.
          5    1    5    5  501    0 -0.89492488697E+02  0.49489655706E+01 -0.92583706543E+01  0.90228627500E+02  0.47000000000E+01 0. -1.
        -13    1    6    6    0    0  0.17279988770E+02  0.10037620582E+02 -0.77957720033E+01  0.21450545447E+02  0.00000000000E+00 0.  1.
         14    1    6    6    0    0 -0.23950791132E+02 -0.87707056787E+02 -0.66020374670E+02  0.11236039372E+03  0.00000000000E+00 0. -1.
         -5    1    3    3    0  503  0.56051965531E+01  0.73980272004E+02 -0.77433010348E+02  0.10734272200E+03  0.47000000000E+01 0.  1.
         11    1    4    4    0    0 -0.11619608219E+01 -0.24233102617E+02 -0.41780758399E+02  0.48313819843E+02  0.00000000000E+00 0. -1.
        -12    1    4    4    0    0  0.91720055328E+02  0.22973301248E+02 -0.27658495633E+03  0.29230049467E+03  0.00000000000E+00 0.  1.
</event>
<event>
12    1  0.8461994E-002  0.1862399E+03  0.7818608E-02  0.1162532E+00
         21   -1    0    0  501  502  0.00000000000E+00  0.00000000000E+00  0.43376710093E+02  0.43376710093E+02  0.00000000000E+00 0. -1.
         21   -1    0    0  502  503 -0.00000000000E+00 -0.00000000000E+00 -0.12488463348E+04  0.12488463348E+04  0.00000000000E+00 0. -1.
         -6    2    1    2    0  503  0.59179624674E+02 -0.34412397542E+02 -0.99242597725E+03  0.10092515146E+04  0.17027289394E+03 0.  0.
        -24    2    3    3    0    0  0.88095569515E+02  0.80427147903E+00 -0.88081177427E+03  0.88860257784E+03  0.77612392345E+02 0.  0.
          6    2    1    2  501    0 -0.59179624674E+02  0.34412397542E+02 -0.21304364741E+03  0.28297153021E+03  0.17320176132E+03 0.  0.
         24    2    5    5    0    0 -0.82773715597E+02 -0.20849623704E+02 -0.15865112402E+03  0.20178527078E+03  0.90889611883E+02 0.  0.
          5    1    5    5  501    0  0.23594090923E+02  0.55262021246E+02 -0.54392523392E+02  0.81186259426E+02  0.47000000000E+01 0. -1.
        -11    1    6    6    0    0 -0.10160822894E+03 -0.21839898760E+02 -0.11979753961E+03  0.15859591377E+03  0.00000000000E+00 0.  1.
         12    1    6    6    0    0  0.18834513346E+02  0.99027505616E+00 -0.38853584410E+02  0.43189357013E+02  0.00000000000E+00 0. -1.
         -5    1    3    3    0  503 -0.28915944842E+02 -0.35216669021E+02 -0.11161420298E+03  0.12064893680E+03  0.47000000000E+01 0.  1.
         13    1    4    4    0    0  0.38333544405E+01 -0.23195170788E+02 -0.33300351324E+03  0.33383236868E+03  0.00000000000E+00 0. -1.
        -14    1    4    4    0    0  0.84262215075E+02  0.23999442267E+02 -0.54780826103E+03  0.55477020916E+03  0.00000000000E+00 0.  1.
</event>
<event>
12    1  0.8461994E-002  0.1903051E+03  0.7818608E-02  0.1159048E+00
         21   -1    0    0  501  502  0.00000000000E+00  0.00000000000E+00  0.80441255841E+03  0.80441255841E+03  0.00000000000E+00 0. -1.
         21   -1    0    0  502  503 -0.00000000000E+00 -0.00000000000E+00 -0.62560171974E+02  0.62560171974E+02  0.00000000000E+00 0. -1.
         -6    2    1    2    0  503  0.31005067929E+02 -0.62557594216E+02  0.13302548487E+03  0.22909637881E+03  0.17295838900E+03 0.  0.
        -24    2    3    3    0    0 -0.25968814208E+02  0.80937528594E+01  0.21856357547E+02  0.85505637603E+02  0.78061677858E+02 0.  0.
          6    2    1    2  501    0 -0.31005067929E+02  0.62557594216E+02  0.60882690157E+03  0.63787635158E+03  0.17703467740E+03 0.  0.
         24    2    5    5    0    0 -0.28762839939E+02 -0.35224136416E+02  0.25517674286E+03  0.27092019727E+03  0.78832369270E+02 0.  0.
          5    1    5    5  501    0 -0.22422279907E+01  0.97781730633E+02  0.35365015871E+03  0.36695615431E+03  0.47000000000E+01 0. -1.
        -11    1    6    6    0    0 -0.20002028792E+02 -0.32164412467E+02  0.38372119428E+02  0.53917067192E+02  0.00000000000E+00 0.  1.
         12    1    6    6    0    0 -0.87608111468E+01 -0.30597239493E+01  0.21680462343E+03  0.21700313007E+03  0.00000000000E+00 0. -1.
         -5    1    3    3    0  503  0.56973882137E+02 -0.70651347076E+02  0.11116912732E+03  0.14359074120E+03  0.47000000000E+01 0.  1.
         11    1    4    4    0    0  0.12408602376E+02  0.39620995657E+01 -0.22935875681E+02  0.26376619176E+02  0.00000000000E+00 0. -1.
        -12    1    4    4    0    0 -0.38377416584E+02  0.41316532937E+01  0.44792233228E+02  0.59129018427E+02  0.00000000000E+00 0.  1.
</event>
<event>
12    1  0.8461994E-002  0.2942203E+03  0.7818608E-02  0.1088309E+00
         21   -1    0    0  501  502  0.00000000000E+00  0.00000000000E+00  0.18876474213E+03  0.18876474213E+03  0.00000000000E+00 0. -1.
         21   -1    0    0  502  503 -0.00000000000E+00 -0.00000000000E+00 -0.49639948942E+03  0.49639948942E+03  0.00000000000E+00 0. -1.
         -6    2    1    2    0  503  0.23812223694E+03  0.11361167598E+02 -0.25077495983E+03  0.38659234112E+03  0.17243631254E+03 0.  0.
        -24    2    3    3    0    0  0.15199231935E+03  0.65378333515E+02 -0.20635668885E+03  0.27554600073E+03  0.77243277063E+02 0.  0.
          6    2    1    2  501    0 -0.23812223694E+03 -0.11361167598E+02 -0.56859787456E+02  0.29857189043E+03  0.17053111879E+03 0.  0.
         24    2    5    5    0    0 -0.22058344588E+03 -0.54113404363E+02 -0.70751630367E+02  0.25009059260E+03  0.77163425137E+02 0.  0.
          5    1    5    5  501    0 -0.17538791052E+02  0.42752236764E+02  0.13891842911E+02  0.48481297831E+02  0.47000000000E+01 0. -1.
        -11    1    6    6    0    0 -0.19720759398E+02 -0.17322031102E+02 -0.33430706446E+02  0.42503802726E+02  0.00000000000E+00 0.  1.
         12    1    6    6    0    0 -0.20086268649E+03 -0.36791373260E+02 -0.37320923922E+02  0.20758678988E+03  0.00000000000E+00 0. -1.
         -5    1    3    3    0  503  0.86129917586E+02 -0.54017165916E+02 -0.44418270979E+02  0.11104634039E+03  0.47000000000E+01 0.  1.
         11    1    4    4    0    0  0.15313020359E+03  0.48882972813E+02 -0.20254356187E+03  0.25857745210E+03  0.00000000000E+00 0. -1.
        -12    1    4    4    0    0 -0.11378842351E+01  0.16495360701E+02 -0.38131269802E+01  0.16968548629E+02  0.00000000000E+00 0.  1.
</event>
<event>
12    1  0.8461994E-002  0.1790605E+03  0.7818608E-02  0.1168866E+00
         21   -1    0    0  503  502  0.00000000000E+00  0.00000000000E+00  0.73952977136E+03  0.73952977136E+03  0.00000000000E+00 0.  1.
         21   -1    0    0  501  503 -0.00000000000E+00 -0.00000000000E+00 -0.82229557196E+02  0.82229557196E+02  0.00000000000E+00 0. -1.
          6    2    1    2  501    0 -0.47643570942E+02  0.62324939809E+00  0.45304508529E+02  0.18410628876E+03  0.17196606867E+03 0.  0.
         24    2    3    3    0    0 -0.59002298979E+02 -0.13118712819E+02 -0.32137838144E+02  0.10449932118E+03  0.78955022491E+02 0.  0.
         -6    2    1    2    0  502  0.47643570942E+02 -0.62324939809E+00  0.61199570563E+03  0.63765303979E+03  0.17260462669E+03 0.  0.
        -24    2    5    5    0    0  0.58488903052E+02 -0.61783923763E+02  0.37790287354E+03  0.39541391547E+03  0.79393813992E+02 0.  0.
          5    1    3    3  501    0  0.11358728036E+02  0.13741962217E+02  0.77442346673E+02  0.79606967574E+02  0.47000000000E+01 0. -1.
        -11    1    4    4    0    0 -0.48024902939E+01  0.29677861956E+02 -0.59844066419E+01  0.30653752236E+02  0.00000000000E+00 0.  1.
         12    1    4    4    0    0 -0.54199808685E+02 -0.42796574775E+02 -0.26153431502E+02  0.73845568948E+02  0.00000000000E+00 0. -1.
         -5    1    5    5    0  502 -0.10845332110E+02  0.61160674365E+02  0.23409283209E+03  0.24223912432E+03  0.47000000000E+01 0.  1.
         13    1    6    6    0    0  0.38527495659E+02 -0.15548796425E+02  0.56729173204E+02  0.70315944738E+02  0.00000000000E+00 0. -1.
        -14    1    6    6    0    0  0.19961407393E+02 -0.46235127338E+02  0.32117370034E+03  0.32509797073E+03  0.00000000000E+00 0.  1.
</event>
<event>
12    1  0.8461994E-002  0.1811627E+03  0.7818608E-02  0.1166825E+00
         21   -1    0    0  503  502  0.00000000000E+00  0.00000000000E+00  0.92131105011E+03  0.92131105011E+03  0.00000000000E+00 0. -1.
         21   -1    0    0  501  503 -0.00000000000E+00 -0.00000000000E+00 -0.83614666434E+02  0.83614666434E+02  0.00000000000E+00 0. -1.
          6    2    1    2  501    0 -0.51359471426E+02 -0.22681002598E+02  0.38010755609E+02  0.18510733010E+03  0.17224309255E+03 0.  0.
         24    2    3    3    0    0  0.27071384999E+01  0.38354443839E+02  0.49377320608E+02  0.10264635248E+03  0.81361919385E+02 0.  0.
         -6    2    1    2    0  502  0.51359471426E+02  0.22681002598E+02  0.79968562807E+03  0.81981838644E+03  0.17161835515E+03 0.  0.
        -24    2    5    5    0    0 -0.77389616388E+01 -0.94313284807E+01  0.21572006932E+03  0.23197343205E+03  0.84425608591E+02 0.  0.
          5    1    3    3  501    0 -0.54066609926E+02 -0.61035446437E+02 -0.11366564999E+02  0.82460977623E+02  0.47000000000E+01 0. -1.
        -13    1    4    4    0    0 -0.31794637423E+02  0.35945465469E+02  0.48235923326E+02  0.68041750093E+02  0.00000000000E+00 0.  1.
         14    1    4    4    0    0  0.34501775923E+02  0.24089783692E+01  0.11413972827E+01  0.34604602387E+02  0.00000000000E+00 0. -1.
         -5    1    5    5    0  502  0.59098433065E+02  0.32112331079E+02  0.58396555875E+03  0.58784495439E+03  0.47000000000E+01 0.  1.
         13    1    6    6    0    0  0.17580276912E+02  0.17338786275E+02  0.17271634190E+02  0.30133187575E+02  0.00000000000E+00 0. -1.
        -14    1    6    6    0    0 -0.25319238551E+02 -0.26770114756E+02  0.19844843513E+03  0.20184024448E+03  0.00000000000E+00 0.  1.
</event>
<event>
12    1  0.8461994E-002  0.2592121E+03  0.7818608E-02  0.1107768E+00
         21   -1    0    0  501  502  0.00000000000E+00  0.00000000000E+00  0.16011151694E+03  0.16011151694E+03  0.00000000000E+00 0.  1.
         21   -1    0    0  502  503 -0.00000000000E+00 -0.00000000000E+00 -0.45009340731E+03  0.45009340731E+03  0.00000000000E+00 0.  1.
         -6    2    1    2    0  503 -0.95273031309E+02  0.16853320211E+03 -0.63318170006E+02  0.26586881455E+03  0.17087025835E+03 0.  0.
        -24    2    3    3    0    0 -0.66743074945E+02  0.36086842480E+02 -0.70400721160E+02  0.13011812718E+03  0.78851551847E+02 0.  0.
          6    2    1    2  501    0  0.95273031309E+02 -0.16853320211E+03 -0.22666372036E+03  0.34433610970E+03  0.17236740877E+03 0.  0.
         24    2    5    5    0    0  0.48959148852E+02 -0.16174114275E+03 -0.10723005139E+03  0.21597100906E+03  0.81166479028E+02 0.  0.
          5    1    5    5  501    0  0.46313882457E+02 -0.67920593570E+01 -0.11943366897E+03  0.12836510064E+03  0.47000000000E+01 0. -1.
        -13    1    6    6    0    0 -0.17807873664E+02 -0.63669569391E+02 -0.56389978819E+02  0.86895133017E+02  0.00000000000E+00 0.  1.
         14    1    6    6    0    0  0.66767022515E+02 -0.98071573363E+02 -0.50840072576E+02  0.12907587605E+03  0.00000000000E+00 0. -1.
         -5    1    3    3    0  503 -0.28529956363E+02  0.13244635963E+03  0.70825511545E+01  0.13575068737E+03  0.47000000000E+01 0.  1.
         11    1    4    4    0    0 -0.57667670263E+02  0.59828528364E+02 -0.46467119130E+02  0.95206124593E+02  0.00000000000E+00 0. -1.
        -12    1    4    4    0    0 -0.90754046820E+01 -0.23741685884E+02 -0.23933602030E+02  0.34912002591E+02  0.00000000000E+00 0.  1.
</event>
<event>
12    1  0.8461994E-002  0.2226751E+03  0.7818608E-02  0.1131926E+00
         21   -1    0    0  503  502  0.00000000000E+00  0.00000000000E+00  0.16578442160E+03  0.16578442160E+03  0.00000000000E+00 0. -1.
         21   -1    0    0  501  503 -0.00000000000E+00 -0.00000000000E+00 -0.31938752653E+03  0.31938752653E+03  0.00000000000E+00 0.  1.
          6    2    1    2  501    0  0.13970985079E+03  0.11386747123E+02 -0.15387934922E+02  0.22308871178E+03  0.17286782340E+03 0.  0.
         24    2    3    3    0    0  0.11851643389E+03 -0.54535398168E+02 -0.13910143976E+02  0.15366851281E+03  0.80001656031E+02 0.  0.
         -6    2    1    2    0  502 -0.13970985079E+03 -0.11386747123E+02 -0.13821517001E+03  0.26208323635E+03  0.17301933168E+03 0.  0.
        -24    2    5    5    0    0 -0.13166420450E+03 -0.45000587909E+02 -0.50784802241E+02  0.16795150989E+03  0.79171319795E+02 0.  0.
          5    1    3    3  501    0  0.21193416902E+02  0.65922145291E+02 -0.14777909459E+01  0.69420198976E+02  0.47000000000E+01 0. -1.
        -13    1    4    4    0    0  0.79852809657E-01 -0.15038419157E+02 -0.24097088996E+02  0.28404755328E+02  0.00000000000E+00 0.  1.
         14    1    4    4    0    0  0.11843658108E+03 -0.39496979011E+02  0.10186945020E+02  0.12526375748E+03  0.00000000000E+00 0. -1.
         -5    1    5    5    0  502 -0.80456462885E+01  0.33613840786E+02 -0.87430367770E+02  0.94131726453E+02  0.47000000000E+01 0.  1.
         11    1    6    6    0    0 -0.76644428098E+02  0.91155945056E+01 -0.31254222023E+01  0.77247852304E+02  0.00000000000E+00 0. -1.
        -12    1    6    6    0    0 -0.55019776404E+02 -0.54116182415E+02 -0.47659380039E+02  0.90703657591E+02  0.00000000000E+00 0.  1.
</event>
<event>
12    1  0.8461994E-002  0.2401501E+03  0.7818608E-02  0.1120176E+00
         21   -1    0    0  501  502  0.00000000000E+00  0.00000000000E+00  0.38029691518E+03  0.38029691518E+03  0.00000000000E+00 0.  1.
         21   -1    0    0  502  503 -0.00000000000E+00 -0.00000000000E+00 -0.16159422738E+03  0.16159422738E+03  0.00000000000E+00 0. -1.
         -6    2    1    2    0  503 -0.12444150099E+03 -0.11507612578E+03  0.36876830686E+02  0.24296495119E+03  0.17012896570E+03 0.  0.
        -24    2    3    3    0    0 -0.10497763095E+03 -0.13820163370E+03  0.64949765684E+02  0.20144614782E+03  0.79006859526E+02 0.  0.
          6    2    1    2  501    0  0.12444150099E+03  0.11507612578E+03  0.18182585712E+03  0.29892619137E+03  0.16603621195E+03 0.  0.
         24    2    5    5    0    0  0.99488132206E+02  0.85367494544E+02  0.50025581604E+02  0.16145373592E+03  0.79870222558E+02 0.  0.
          5    1    5    5  501    0  0.24953368787E+02  0.29708631232E+02  0.13180027551E+03  0.13747245546E+03  0.47000000000E+01 0. -1.
        -11    1    6    6    0    0  0.25935530641E+02  0.23020756642E+02  0.54870579211E+02  0.64910611220E+02  0.00000000000E+00 0.  1.
         12    1    6    6    0    0  0.73552601566E+02  0.62346737902E+02 -0.48449976068E+01  0.96543124695E+02  0.00000000000E+00 0. -1.
         -5    1    3    3    0  503 -0.19463870039E+02  0.23125507920E+02 -0.28072934998E+02  0.41518803365E+02  0.47000000000E+01 0.  1.
         13    1    4    4    0    0 -0.23650582523E+02 -0.21014606663E+02 -0.18038452704E+02  0.36419081850E+02  0.00000000000E+00 0. -1.
        -14    1    4    4    0    0 -0.81327048432E+02 -0.11718702703E+03  0.82988218388E+02  0.16502706597E+03  0.00000000000E+00 0.  1.
</event>
<event>
12    1  0.8461994E-002  0.1919839E+03  0.7818608E-02  0.1156920E+00
         21   -1    0    0  501  502  0.00000000000E+00  0.00000000000E+00  0.62955623063E+02  0.62955623063E+02  0.00000000000E+00 0. -1.
         21   -1    0    0  502  503 -0.00000000000E+00 -0.00000000000E+00 -0.67821981588E+03  0.67821981588E+03  0.00000000000E+00 0. -1.
         -6    2    1    2    0  503 -0.70546109446E+02  0.46565607726E+02 -0.44631592310E+03  0.48543858672E+03  0.17119465204E+03 0.  0.
        -24    2    3    3    0    0 -0.14078427098E+02  0.90008955517E+02 -0.26097240583E+03  0.28681775949E+03  0.76537679422E+02 0.  0.
          6    2    1    2  501    0  0.70546109446E+02 -0.46565607726E+02 -0.16894826972E+03  0.25573685222E+03  0.17237375195E+03 0.  0.
         24    2    5    5    0    0  0.94929166747E+02 -0.79953684036E+02 -0.11932647324E+03  0.19097799330E+03  0.82641686927E+02 0.  0.
          5    1    5    5  501    0 -0.24383057301E+02  0.33388076310E+02 -0.49621796481E+02  0.64758858923E+02  0.47000000000E+01 0. -1.
        -13    1    6    6    0    0  0.56249210331E+02 -0.15795798520E+01 -0.22669694127E+02  0.60666166577E+02  0.00000000000E+00 0.  1.
         14    1    6    6    0    0  0.38679956417E+02 -0.78374104184E+02 -0.96656779111E+02  0.13031182672E+03  0.00000000000E+00 0. -1.
         -5    1    3    3    0  503 -0.56467682348E+02 -0.43443347791E+02 -0.18534351727E+03  0.19862082723E+03  0.47000000000E+01 0.  1.
         13    1    4    4    0    0  0.26647113208E+02  0.32412063823E+02 -0.14618745152E+03  0.15209004407E+03  0.00000000000E+00 0. -1.
        -14    1    4    4    0    0 -0.40725540306E+02  0.57596891694E+02 -0.11478495431E+03  0.13472771542E+03  0.00000000000E+00 0.  1.
</event>
<event>
12    1  0.8461994E-002  0.1812825E+03  0.7818608E-02  0.1166734E+00
         21   -1    0    0  501  502  0.00000000000E+00  0.00000000000E+00  0.15965092101E+04  0.15965092101E+04  0.00000000000E+00 0.  1.
         21   -1    0    0  502  503 -0.00000000000E+00 -0.00000000000E+00 -0.61812962943E+02  0.61812962943E+02  0.00000000000E+00 0.  1.
         -6    2    1    2    0  503  0.20256058299E+02 -0.48987082582E+02  0.90020786196E+02  0.20240331539E+03  0.17335892817E+03 0.  0.
        -24    2    3    3    0    0 -0.23448941056E+02 -0.14313311443E+02  0.11408008711E+03  0.14146615650E+03  0.79016981966E+02 0.  0.
          6    2    1    2  501    0 -0.20256058299E+02  0.48987082582E+02  0.14446754610E+04  0.14559188577E+04  0.17263397813E+03 0.  0.
         24    2    5    5    0    0 -0.72848637198E+02  0.60750049589E+02  0.10315878783E+04  0.10393041823E+04  0.83559202236E+02 0.  0.
          5    1    5    5  501    0  0.52592578899E+02 -0.11762967007E+02  0.41308758274E+03  0.41661467540E+03  0.47000000000E+01 0. -1.
        -11    1    6    6    0    0 -0.46828326304E+02  0.66997615971E+02  0.94844861029E+03  0.95196446312E+03  0.00000000000E+00 0.  1.
         12    1    6    6    0    0 -0.26020310895E+02 -0.62475663817E+01  0.83139267969E+02  0.87339719161E+02  0.00000000000E+00 0. -1.
         -5    1    3    3    0  503  0.43704999355E+02 -0.34673771139E+02 -0.24059300912E+02  0.60937158893E+02  0.47000000000E+01 0.  1.
         11    1    4    4    0    0  0.22416368635E+02 -0.17352566872E+02  0.14615282602E+02  0.31893755585E+02  0.00000000000E+00 0. -1.
        -12    1    4    4    0    0 -0.45865309690E+02  0.30392554294E+01  0.99464804506E+02  0.10957240091E+03  0.00000000000E+00 0.  1.
</event>
<event>
12    1  0.8461994E-002  0.1983918E+03  0.7818608E-02  0.1153887E+00
         21   -1    0    0  503  502  0.00000000000E+00  0.00000000000E+00  0.59434470325E+03  0.59434470325E+03  0.00000000000E+00 0. -1.
         21   -1    0    0  501  503 -0.00000000000E+00 -0.00000000000E+00 -0.72166741862E+02  0.72166741862E+02  0.00000000000E+00 0. -1.
          6    2    1    2  501    0  0.21789985721E+02 -0.69604427162E+02  0.14393135006E+03  0.24510312460E+03  0.18449858645E+03 0.  0.
         24    2    3    3    0    0  0.53623838644E+02 -0.10760595166E+03  0.85102094963E+02  0.16802860669E+03  0.80849794024E+02 0.  0.
         -6    2    1    2    0  502 -0.21789985721E+02  0.69604427162E+02  0.37824661132E+03  0.42140832051E+03  0.17086513353E+03 0.  0.
        -24    2    5    5    0    0  0.16973394037E+02  0.97987427747E+02  0.32669969735E+03  0.35078701584E+03  0.80182330549E+02 0.  0.
          5    1    3    3  501    0 -0.31833852923E+02  0.38001524503E+02  0.58829255098E+02  0.77074517915E+02  0.47000000000E+01 0. -1.
        -11    1    4    4    0    0  0.19804873524E+01 -0.15152256990E+02  0.56221941486E+02  0.58261650565E+02  0.00000000000E+00 0.  1.
         12    1    4    4    0    0  0.51643351292E+02 -0.92453694674E+02  0.28880153476E+02  0.10976695612E+03  0.00000000000E+00 0. -1.
         -5    1    5    5    0  502 -0.38763379758E+02 -0.28383000585E+02  0.51546913979E+02  0.70621304669E+02  0.47000000000E+01 0.  1.
         13    1    6    6    0    0 -0.26267741696E+02  0.31008591413E+02  0.17220018740E+03  0.17693058394E+03  0.00000000000E+00 0. -1.
        -14    1    6    6    0    0  0.43241135733E+02  0.66978836334E+02  0.15449950995E+03  0.17385643189E+03  0.00000000000E+00 0.  1.
</event>
<event>
12    1  0.8461994E-002  0.1827269E+03  0.7818608E-02  0.1166807E+00
         21   -1    0    0  501  502  0.00000000000E+00  0.00000000000E+00  0.28708154318E+02  0.28708154318E+02  0.00000000000E+00 0.  1.
         21   -1    0    0  502  503 -0.00000000000E+00 -0.00000000000E+00 -0.14713429273E+04  0.14713429273E+04  0.00000000000E+00 0.  1.
         -6    2    1    2    0  503 -0.49363978696E+01  0.26869878254E+02 -0.10770695697E+04  0.10913616864E+04  0.17391122467E+03 0.  0.
        -24    2    3    3    0    0  0.10262975334E+01 -0.18672563753E+02 -0.98490341975E+03  0.98827746371E+03  0.79422170156E+02 0.  0.
          6    2    1    2  501    0  0.49363978696E+01 -0.26869878254E+02 -0.36556520324E+03  0.40868939523E+03  0.18067303499E+03 0.  0.
         24    2    5    5    0    0  0.30987190636E+02  0.45086294659E+02 -0.13609454514E+03  0.16674889107E+03  0.79312593623E+02 0.  0.
          5    1    5    5  501    0 -0.26050792767E+02 -0.71956172913E+02 -0.22947065810E+03  0.24194050416E+03  0.47000000000E+01 0. -1.
        -11    1    6    6    0    0  0.41951390282E+02  0.29926460284E+02 -0.13860270369E+03  0.14787231534E+03  0.00000000000E+00 0.  1.
         12    1    6    6    0    0 -0.10964199646E+02  0.15159834375E+02  0.25081585542E+01  0.18876575735E+02  0.00000000000E+00 0. -1.
         -5    1    3    3    0  503 -0.59626954030E+01  0.45542442008E+02 -0.92166149970E+02  0.10308422266E+03  0.47000000000E+01 0.  1.
         13    1    4    4    0    0  0.39633689577E+02 -0.25564325920E+01 -0.49550024923E+03  0.49708939003E+03  0.00000000000E+00 0. -1.
        -14    1    4    4    0    0 -0.38607392043E+02 -0.16116131161E+02 -0.48940317052E+03  0.49118807368E+03  0.00000000000E+00 0.  1.
</event>
<event>
12    1  0.8461994E-002  0.2682755E+03  0.7818608E-02  0.1102319E+00
         21   -1    0    0  501  502  0.00000000000E+00  0.00000000000E+00  0.29435111041E+03  0.29435111041E+03  0.00000000000E+00 0. -1.
         21   -1    0    0  502  503 -0.00000000000E+00 -0.00000000000E+00 -0.30647278254E+03  0.30647278254E+03  0.00000000000E+00 0. -1.
         -6    2    1    2    0  503  0.15261454082E+03 -0.13735636540E+03 -0.14147031706E+03  0.30299371337E+03  0.17214345921E+03 0.  0.
        -24    2    3    3    0    0  0.34639428233E+02 -0.97751518694E+02 -0.23288097405E+02  0.13130854187E+03  0.77099599812E+02 0.  0.
          6    2    1    2  501    0 -0.15261454082E+03  0.13735636540E+03  0.12934864493E+03  0.29783017957E+03  0.17266665785E+03 0.  0.
         24    2    5    5    0    0 -0.41178571368E+02  0.61109032478E+02 -0.21547091359E+01  0.10929144828E+03  0.80684504744E+02 0.  0.
          5    1    5    5  501    0 -0.11143596945E+03  0.76247332921E+02  0.13150335407E+03  0.18853873129E+03  0.47000000000E+01 0. -1.
        -13    1    6    6    0    0  0.78174649748E+01 -0.14221918827E+02  0.92945570119E+01  0.18701992509E+02  0.00000000000E+00 0.  1.
         14    1    6    6    0    0 -0.48996036342E+02  0.75330951305E+02 -0.11449266148E+02  0.90589455772E+02  0.00000000000E+00 0. -1.
         -5    1    3    3    0  503  0.11797511259E+03 -0.39604846705E+02 -0.11818221966E+03  0.17168517151E+03  0.47000000000E+01 0.  1.
         13    1    4    4    0    0  0.41878033565E+02 -0.15645388599E+02 -0.19567690571E+02  0.48800024528E+02  0.00000000000E+00 0. -1.
        -14    1    4    4    0    0 -0.72386053328E+01 -0.82106130095E+02 -0.37204068343E+01  0.82508517338E+02  0.00000000000E+00 0.  1.
</event>
<event>
12    1  0.8461994E-002  0.1855225E+03  0.7818608E-02  0.1162782E+00
         21   -1    0    0  503  502  0.00000000000E+00  0.00000000000E+00  0.51320769209E+03  0.51320769209E+03  0.00000000000E+00 0. -1.
         21   -1    0    0  501  503 -0.00000000000E+00 -0.00000000000E+00 -0.13452361368E+03  0.13452361368E+03  0.00000000000E+00 0. -1.
          6    2    1    2  501    0 -0.11575501442E+01  0.69874324153E+02 -0.40815005068E+02  0.18903959691E+03  0.17084011082E+03 0.  0.
         24    2    3    3    0    0  0.15520091125E+02  0.11257538001E+03 -0.22136391903E+02  0.13931531231E+03  0.77489657282E+02 0.  0.
         -6    2    1    2    0  502  0.11575501442E+01 -0.69874324153E+02  0.41949908347E+03  0.45869170886E+03  0.17185703838E+03 0.  0.
        -24    2    5    5    0    0  0.57994940506E+02 -0.33208722654E+02  0.16253947074E+03  0.19293771010E+03  0.79621906831E+02 0.  0.
          5    1    3    3  501    0 -0.16677641269E+02 -0.42701055854E+02 -0.18678613165E+02  0.49724284602E+02  0.47000000000E+01 0. -1.
        -11    1    4    4    0    0  0.40593014670E+02  0.88721238355E+02 -0.33074880713E+02  0.10302038007E+03  0.00000000000E+00 0.  1.
         12    1    4    4    0    0 -0.25072923545E+02  0.23854141653E+02  0.10938488811E+02  0.36294932243E+02  0.00000000000E+00 0. -1.
         -5    1    5    5    0  502 -0.56837390362E+02 -0.36665601499E+02  0.25695961274E+03  0.26575399875E+03  0.47000000000E+01 0.  1.
         11    1    6    6    0    0  0.19561511563E+02 -0.47560269568E+02  0.13238385902E+03  0.14202154099E+03  0.00000000000E+00 0. -1.
        -12    1    6    6    0    0  0.38433428943E+02  0.14351546914E+02  0.30155611719E+02  0.50916169115E+02  0.00000000000E+00 0.  1.
</event>
<event>
12    1  0.8461994E-002  0.2151570E+03  0.7818608E-02  0.1137819E+00
         21   -1    0    0  503  502  0.00000000000E+00  0.00000000000E+00  0.97498444670E+03  0.97498444670E+03  0.00000000000E+00 0. -1.
         21   -1    0    0  501  503 -0.00000000000E+00 -0.00000000000E+00 -0.48637970723E+02  0.48637970723E+02  0.00000000000E+00 0. -1.
          6    2    1    2  501    0  0.81414648056E+02 -0.97044971090E+02  0.55361944841E+03  0.59395877769E+03  0.17391510748E+03 0.  0.
         24    2    3    3    0    0  0.44406818618E+02 -0.54202184084E+02  0.51318195322E+03  0.52422811833E+03  0.80929355838E+02 0.  0.
         -6    2    1    2    0  502 -0.81414648056E+02  0.97044971090E+02  0.37272702757E+03  0.42966363973E+03  0.17216078211E+03 0.  0.
        -24    2    5    5    0    0 -0.98720958930E+02  0.22681514617E+02  0.17229891221E+03  0.21513403459E+03  0.79595595698E+02 0.  0.
          5    1    3    3  501    0  0.37007829438E+02 -0.42842787006E+02  0.40437495192E+02  0.69730659366E+02  0.47000000000E+01 0. -1.
        -13    1    4    4    0    0  0.45990450535E+02  0.31951623907E+01  0.29672117270E+03  0.30028117646E+03  0.00000000000E+00 0.  1.
         14    1    4    4    0    0 -0.15836319175E+01 -0.57397346474E+02  0.21646078052E+03  0.22394694187E+03  0.00000000000E+00 0. -1.
         -5    1    5    5    0  502  0.17306310874E+02  0.74363456474E+02  0.20042811536E+03  0.21452960514E+03  0.47000000000E+01 0.  1.
         13    1    6    6    0    0 -0.66661421563E+02 -0.25139772690E+02  0.94193546168E+02  0.11810240233E+03  0.00000000000E+00 0. -1.
        -14    1    6    6    0    0 -0.32059537367E+02  0.47821287306E+02  0.78105366043E+02  0.97031632268E+02  0.00000000000E+00 0.  1.
</event>
<event>
12    1  0.8461994E-002  0.1822772E+03  0.7818608E-02  0.1166142E+00
         21   -1    0    0  503  502  0.00000000000E+00  0.00000000000E+00  0.36959065267E+03  0.36959065267E+03  0.00000000000E+00 0.  1.
         21   -1    0    0  501  503 -0.00000000000E+00 -0.00000000000E+00 -0.90188829594E+02  0.90188829594E+02  0.00000000000E+00 0.  1.
          6    2    1    2  501    0  0.27238159089E+02  0.47228862388E+02  0.16885242191E+03  0.24846757101E+03  0.17393248892E+03 0.  0.
         24    2    3    3    0    0  0.17366495682E+02  0.84221696966E+02  0.17262062436E+03  0.20970923128E+03  0.82372278807E+02 0.  0.
         -6    2    1    2    0  502 -0.27238159089E+02 -0.47228862388E+02  0.11054940117E+03  0.21131191126E+03  0.17163645006E+03 0.  0.
        -24    2    5    5    0    0  0.51042189592E+01  0.17348845320E+02  0.63244091552E+01  0.84421215344E+02  0.82218659463E+02 0.  0.
          5    1    3    3  501    0  0.98716634071E+01 -0.36992834579E+02 -0.37682024532E+01  0.38758339726E+02  0.47000000000E+01 0. -1.
        -11    1    4    4    0    0  0.14581450191E+02  0.27450271076E+02  0.34840751899E+01  0.31277385628E+02  0.00000000000E+00 0.  1.
         12    1    4    4    0    0  0.27850454908E+01  0.56771425890E+02  0.16913654917E+03  0.17843184565E+03  0.00000000000E+00 0. -1.
         -5    1    5    5    0  502 -0.32342378048E+02 -0.64577707707E+02  0.10422499201E+03  0.12689069592E+03  0.47000000000E+01 0.  1.
         13    1    6    6    0    0  0.11189608529E+02 -0.12649505075E+02  0.37255690817E+02  0.40904814092E+02  0.00000000000E+00 0. -1.
        -14    1    6    6    0    0 -0.60853895696E+01  0.29998350395E+02 -0.30931281662E+02  0.43516401251E+02  0.00000000000E+00 0.  1.
</event>
<event>
12    1  0.8461994E-002  0.1773401E+03  0.7818608E-02  0.1171006E+00
         21   -1    0    0  501  502  0.00000000000E+00  0.00000000000E+00  0.21330203748E+03  0.21330203748E+03  0.00000000000E+00 0.  1.
         21   -1    0    0  502  503 -0.00000000000E+00 -0.00000000000E+00 -0.42812691579E+03  0.42812691579E+03  0.00000000000E+00 0.  1.
         -6    2    1    2    0  503 -0.34719267560E+02 -0.38749776901E+01 -0.36827340122E+03  0.40874784553E+03  0.17386506316E+03 0.  0.
        -24    2    3    3    0    0 -0.71823561831E+02 -0.24579032699E+02 -0.14881214880E+03  0.18516180424E+03  0.79856654301E+02 0.  0.
          6    2    1    2  501    0  0.34719267560E+02  0.38749776901E+01  0.15344852291E+03  0.23268110774E+03  0.17138729744E+03 0.  0.
         24    2    5    5    0    0 -0.31208978684E+02  0.40637175530E+02  0.10677944143E+03  0.14380993126E+03  0.81572463679E+02 0.  0.
          5    1    5    5  501    0  0.65928246244E+02 -0.36762197840E+02  0.46669081484E+02  0.88871176482E+02  0.47000000000E+01 0. -1.
        -13    1    6    6    0    0  0.17829127352E+02 -0.13253528502E+02  0.15855696849E+02  0.27293532612E+02  0.00000000000E+00 0.  1.
         14    1    6    6    0    0 -0.49038106036E+02  0.53890704032E+02  0.90923744579E+02  0.11651639864E+03  0.00000000000E+00 0. -1.
         -5    1    3    3    0  503  0.37104294272E+02  0.20704055009E+02 -0.21946125241E+03  0.22358604129E+03  0.47000000000E+01 0.  1.
         13    1    4    4    0    0 -0.82047197354E+02 -0.49767095964E+00 -0.12649431516E+03  0.15077400982E+03  0.00000000000E+00 0. -1.
        -14    1    4    4    0    0  0.10223635523E+02 -0.24081361739E+02 -0.22317833642E+02  0.34387794419E+02  0.00000000000E+00 0.  1.
</event>
<event>
12    1  0.8461994E-002  0.2050881E+03  0.7818608E-02  0.1145706E+00
         21   -1    0    0  503  502  0.00000000000E+00  0.00000000000E+00  0.94408697770E+02  0.94408697770E+02  0.00000000000E+00 0.  1.
         21   -1    0    0  501  503 -0.00000000000E+00 -0.00000000000E+00 -0.57476964609E+03  0.57476964609E+03  0.00000000000E+00 0.  1.
          6    2    1    2  501    0  0.75530513139E+02 -0.81240709305E+02 -0.80706998123E+02  0.22039678149E+03  0.17249988546E+03 0.  0.
         24    2    3    3    0    0  0.10954167744E+02 -0.96466575387E+02 -0.88315122846E+02  0.15344975061E+03  0.79507679379E+02 0.  0.
         -6    2    1    2    0  502 -0.75530513139E+02  0.81240709305E+02 -0.39965395020E+03  0.44878156237E+03  0.17139632303E+03 0.  0.
        -24    2    5    5    0    0 -0.83437027629E+02  0.11516235517E+03 -0.36403465701E+03  0.39874142771E+03  0.79053077335E+02 0.  0.
          5    1    3    3  501    0  0.64576345395E+02  0.15225866082E+02  0.76081247225E+01  0.66947030885E+02  0.47000000000E+01 0. -1.
        -13    1    4    4    0    0  0.22333321681E+02 -0.61138993503E+02 -0.87785459167E+01  0.65679651737E+02  0.00000000000E+00 0.  1.
         14    1    4    4    0    0 -0.11379153937E+02 -0.35327581884E+02 -0.79536576929E+02  0.87770098871E+02  0.00000000000E+00 0. -1.
         -5    1    5    5    0  502  0.79065144896E+01 -0.33921645867E+02 -0.35619293185E+02  0.50040134659E+02  0.47000000000E+01 0.  1.
         11    1    6    6    0    0 -0.74678562180E+00 -0.11350256814E+02 -0.20885239528E+02  0.23781910114E+02  0.00000000000E+00 0. -1.
        -12    1    6    6    0    0 -0.82690242007E+02  0.12651261199E+03 -0.34314941749E+03  0.37495951760E+03  0.00000000000E+00 0.  1.
</event>
<event>
12    1  0.8461994E-002  0.1752957E+03  0.7818608E-02  0.1172871E+00
         21   -1    0    0  501  502  0.00000000000E+00  0.00000000000E+00  0.23021252960E+03  0.23021252960E+03  0.00000000000E+00 0.  1.
         21   -1    0    0  502  503 -0.00000000000E+00 -0.00000000000E+00 -0.14788120641E+03  0.14788120641E+03  0.00000000000E+00 0.  1.
         -6    2    1    2    0  503 -0.14934473177E+02 -0.20048165936E+02  0.10261365077E+03  0.20162861000E+03  0.17175438160E+03 0.  0.
        -24    2    3    3    0    0  0.29126166696E+02  0.23961296784E+02  0.17835531056E+02  0.96330972904E+02  0.86827834492E+02 0.  0.
          6    2    1    2  501    0  0.14934473177E+02  0.20048165936E+02 -0.20282327577E+02  0.17646512602E+03  0.17350389172E+03 0.  0.
         24    2    5    5    0    0  0.25524027840E+02 -0.49006257425E+02  0.14838232211E+02  0.98131252293E+02  0.79727537762E+02 0.  0.
          5    1    5    5  501    0 -0.10589554663E+02  0.69054423361E+02 -0.35120559787E+02  0.78333873729E+02  0.47000000000E+01 0. -1.
        -11    1    6    6    0    0  0.44431103474E+02 -0.34559131817E+02  0.35558109827E+02  0.66579544324E+02  0.00000000000E+00 0.  1.
         12    1    6    6    0    0 -0.18907075634E+02 -0.14447125607E+02 -0.20719877617E+02  0.31551707969E+02  0.00000000000E+00 0. -1.
         -5    1    3    3    0  503 -0.44060639873E+02 -0.44009462720E+02  0.84778119712E+02  0.10529763709E+03  0.47000000000E+01 0.  1.
         11    1    4    4    0    0  0.48511150811E+02 -0.57312750283E+01 -0.11644194423E+02  0.50217193572E+02  0.00000000000E+00 0. -1.
        -12    1    4    4    0    0 -0.19384984115E+02  0.29692571813E+02  0.29479725479E+02  0.46113779332E+02  0.00000000000E+00 0.  1.
</event>
<event>
12    1  0.8461994E-002  0.1979311E+03  0.7818608E-02  0.1151838E+00
         21   -1    0    0  503  502  0.00000000000E+00  0.00000000000E+00  0.14366303631E+03  0.14366303631E+03  0.00000000000E+00 0. -1.
         21   -1    0    0  501  503 -0.00000000000E+00 -0.00000000000E+00 -0.38396165722E+03  0.38396165722E+03  0.00000000000E+00 0. -1.
          6    2    1    2  501    0 -0.34128929744E+02  0.91648696992E+02 -0.26320846111E+03  0.32837209427E+03  0.17025061172E+03 0.  0.
         24    2    3    3    0    0 -0.28692635734E+02  0.22458271215E+02 -0.44337050277E+02  0.98712231012E+02  0.80316182883E+02 0.  0.
         -6    2    1    2    0  502  0.34128929744E+02 -0.91648696992E+02  0.22909840196E+02  0.19925259926E+03  0.17208274180E+03 0.  0.
        -24    2    5    5    0    0  0.14130625484E+01 -0.40775416738E+02  0.76557007874E+02  0.11826786483E+03  0.80384582110E+02 0.  0.
          5    1    3    3  501    0 -0.54362940105E+01  0.69190425777E+02 -0.21887141084E+03  0.22965986326E+03  0.47000000000E+01 0. -1.
        -13    1    4    4    0    0 -0.45054158264E+02  0.42756568406E+02 -0.30528781499E+02  0.69209882376E+02  0.00000000000E+00 0.  1.
         14    1    4    4    0    0  0.16361522530E+02 -0.20298297192E+02 -0.13808268778E+02  0.29502348636E+02  0.00000000000E+00 0. -1.
         -5    1    5    5    0  502  0.32715867196E+02 -0.50873280254E+02 -0.53647167678E+02  0.80984734426E+02  0.47000000000E+01 0.  1.
         13    1    6    6    0    0  0.36702945762E+02 -0.21985109590E+02  0.15946989314E+02  0.45659147380E+02  0.00000000000E+00 0. -1.
        -14    1    6    6    0    0 -0.35289883214E+02 -0.18790307148E+02  0.60610018560E+02  0.72608717451E+02  0.00000000000E+00 0.  1.
</event>
<event>
12    1  0.8461994E-002  0.1938930E+03  0.7818608E-02  0.1155493E+00
         21   -1    0    0  503  502  0.00000000000E+00  0.00000000000E+00  0.20799099152E+03  0.20799099152E+03  0.00000000000E+00 0.  1.
         21   -1    0    0  501  503 -0.00000000000E+00 -0.00000000000E+00 -0.17968240010E+03  0.17968240010E+03  0.00000000000E+00 0.  1.
          6    2    1    2  501    0  0.79567723965E+02  0.24694188330E+02 -0.54230080307E+00  0.19164564250E+03  0.17258891206E+03 0.  0.
         24    2    3    3    0    0  0.10474796586E+03  0.61830063077E+02  0.59079220615E+01  0.14607357705E+03  0.80669035680E+02 0.  0.
         -6    2    1    2    0  502 -0.79567723965E+02 -0.24694188330E+02  0.28850892215E+02  0.19602774912E+03  0.17508192028E+03 0.  0.
        -24    2    5    5    0    0 -0.87846886193E+02  0.41965069835E+02  0.21226587138E+02  0.12826181922E+03  0.80761276420E+02 0.  0.
          5    1    3    3  501    0 -0.25180241891E+02 -0.37135874748E+02 -0.64502228645E+01  0.45572065456E+02  0.47000000000E+01 0. -1.
        -13    1    4    4    0    0  0.32196185898E+02  0.59294221656E+02 -0.17665970710E+02  0.69745864603E+02  0.00000000000E+00 0.  1.
         14    1    4    4    0    0  0.72551779957E+02  0.25358414215E+01  0.23573892771E+02  0.76327712445E+02  0.00000000000E+00 0. -1.
         -5    1    5    5    0  502  0.82791622285E+01 -0.66659258165E+02  0.76243050770E+01  0.67765929892E+02  0.47000000000E+01 0.  1.
         13    1    6    6    0    0 -0.20689981591E+02  0.32097963331E+02 -0.25442999663E+02  0.45887915840E+02  0.00000000000E+00 0. -1.
        -14    1    6    6    0    0 -0.67156904602E+02  0.98671065044E+01  0.46669586802E+02  0.82373903384E+02  0.00000000000E+00 0.  1.
</event>
<event>
12    1  0.8461994E-002  0.2205774E+03  0.7818608E-02  0.1134674E+00
         21   -1    0    0  503  502  0.00000000000E+00  0.00000000000E+00  0.20336148193E+03  0.20336148193E+03  0.00000000000E+00 0. -1.
         21   -1    0    0  501  503 -0.00000000000E+00 -0.00000000000E+00 -0.35862512065E+03  0.35862512065E+03  0.00000000000E+00 0. -1.
          6    2    1    2  501    0  0.10509464495E+03 -0.71022339600E+02 -0.24365199941E+03  0.32435894754E+03  0.17249166041E+03 0.  0.
         24    2    3    3    0    0  0.52595517035E+02 -0.11165398118E+03 -0.15778213848E+03  0.21571820129E+03  0.80038985611E+02 0.  0.
         -6    2    1    2    0  502 -0.10509464495E+03  0.71022339600E+02  0.88388360694E+02  0.23762765504E+03  0.18045870169E+03 0.  0.
        -24    2    5    5    0    0 -0.41226181587E+02  0.11278868515E+03  0.58410264560E+02  0.15550345349E+03  0.79678601235E+02 0.  0.
          5    1    3    3  501    0  0.52499127915E+02  0.40631641584E+02 -0.85869860929E+02  0.10864074625E+03  0.47000000000E+01 0. -1.
        -13    1    4    4    0    0 -0.17708645395E+02 -0.90446905308E+01 -0.90988771180E+01  0.21867604198E+02  0.00000000000E+00 0.  1.
         14    1    4    4    0    0  0.70304162430E+02 -0.10260929065E+03 -0.14868326136E+03  0.19385059709E+03  0.00000000000E+00 0. -1.
         -5    1    5    5    0  502 -0.63868463364E+02 -0.41766345551E+02  0.29978096134E+02  0.82124201554E+02  0.47000000000E+01 0.  1.
         13    1    6    6    0    0 -0.47475609667E+02  0.32353575474E+02  0.28055804054E+01  0.57520071632E+02  0.00000000000E+00 0. -1.
        -14    1    6    6    0    0  0.62494280806E+01  0.80435109677E+02  0.55604684155E+02  0.97983381857E+02  0.00000000000E+00 0.  1.
</event>
<event>
12    1  0.8461994E-002  0.2483625E+03  0.7818608E-02  0.1114364E+00
         21   -1    0    0  503  502  0.00000000000E+00  0.00000000000E+00  0.13735905615E+04  0.13735905615E+04  0.00000000000E+00 0. -1.
         21   -1    0    0  501  503 -0.00000000000E+00 -0.00000000000E+00 -0.49277710499E+02  0.49277710499E+02  0.00000000000E+00 0. -1.
          6    2    1    2  501    0 -0.17179322781E+03  0.49865941165E+02  0.44958515992E+03  0.51356499448E+03  0.17211235379E+03 0.  0.
         24    2    3    3    0    0 -0.15978293398E+02 -0.41547121955E+01  0.11725332479E+03  0.14253526061E+03  0.79343499103E+02 0.  0.
         -6    2    1    2    0  502  0.17179322781E+03 -0.49865941165E+02  0.87472769112E+03  0.90930327756E+03  0.17229158934E+03 0.  0.
        -24    2    5    5    0    0  0.79365508115E+02 -0.53675199826E+02  0.70584691621E+03  0.71668915566E+03  0.79016237384E+02 0.  0.
          5    1    3    3  501    0 -0.15581493441E+03  0.54020653360E+02  0.33233183513E+03  0.37102973387E+03  0.47000000000E+01 0. -1.
        -11    1    4    4    0    0  0.11411828645E+02  0.60992341378E+01 -0.71203172628E+01  0.14769204718E+02  0.00000000000E+00 0.  1.
         12    1    4    4    0    0 -0.27390122043E+02 -0.10253946333E+02  0.12437364205E+03  0.12776605589E+03  0.00000000000E+00 0. -1.
         -5    1    5    5    0  502  0.92427719690E+02  0.38092586610E+01  0.16888077492E+03  0.19261412190E+03  0.47000000000E+01 0.  1.
         11    1    6    6    0    0  0.30555006828E+02 -0.46844234883E+02  0.17880719968E+03  0.18734995448E+03  0.00000000000E+00 0. -1.
        -12    1    6    6    0    0  0.48810501287E+02 -0.68309649429E+01  0.52703971652E+03  0.52933920118E+03  0.00000000000E+00 0.  1.
</event>
<event>
12    1  0.8461994E-002  0.1852354E+03  0.7818608E-02  0.1163509E+00
         21   -1    0    0  503  502  0.00000000000E+00  0.00000000000E+00  0.30881373911E+03  0.30881373911E+03  0.00000000000E+00 0.  1.
         21   -1    0    0  501  503 -0.00000000000E+00 -0.00000000000E+00 -0.11957514196E+03  0.11957514196E+03  0.00000000000E+00 0.  1.
          6    2    1    2  501    0 -0.48449772836E+02  0.48127772530E+02  0.32771123716E+02  0.18811192934E+03  0.17218736433E+03 0.  0.
         24    2    3    3    0    0 -0.19389620059E+02  0.27239542017E+02  0.88197486501E+02  0.12196828003E+03  0.77327321770E+02 0.  0.
         -6    2    1    2    0  502  0.48449772836E+02 -0.48127772530E+02  0.15646747344E+03  0.24027695173E+03  0.16907773452E+03 0.  0.
        -24    2    5    5    0    0 -0.35055757586E+02 -0.20819905453E+02  0.64516192093E+02  0.11301336166E+03  0.83350502508E+02 0.  0.
          5    1    3    3  501    0 -0.29060152777E+02  0.20888230513E+02 -0.55426362785E+02  0.66143649317E+02  0.47000000000E+01 0. -1.
        -13    1    4    4    0    0 -0.18648758905E+02 -0.13586058378E+02 -0.17980305074E+01  0.23142819721E+02  0.00000000000E+00 0.  1.
         14    1    4    4    0    0 -0.74086115436E+00  0.40825600396E+02  0.89995517008E+02  0.98825460305E+02  0.00000000000E+00 0. -1.
         -5    1    5    5    0  502  0.83505530422E+02 -0.27307867078E+02  0.91951281348E+02  0.12726359007E+03  0.47000000000E+01 0.  1.
         13    1    6    6    0    0 -0.56132891547E+02 -0.62709270692E+01  0.66590609132E+02  0.87318584873E+02  0.00000000000E+00 0. -1.
        -14    1    6    6    0    0  0.21077133961E+02 -0.14548978383E+02 -0.20744170391E+01  0.25694776785E+02  0.00000000000E+00 0.  1.
</event>
<event>
12    1  0.8461994E-002  0.1787037E+03  0.7818608E-02  0.1170362E+00
         21   -1    0    0  503  502  0.00000000000E+00  0.00000000000E+00  0.22530168561E+02  0.22530168561E+02  0.00000000000E+00 0. -1.
         21   -1    0    0  501  503 -0.00000000000E+00 -0.00000000000E+00 -0.14394586974E+04  0.14394586974E+04  0.00000000000E+00 0. -1.
          6    2    1    2  501    0 -0.16555578601E+02  0.25368115795E+02 -0.87172446445E+03  0.88985311613E+03  0.17611756834E+03 0.  0.
         24    2    3    3    0    0 -0.59099778892E+02  0.54186431285E+02 -0.73520523457E+03  0.74390759748E+03  0.80267200339E+02 0.  0.
         -6    2    1    2    0  502  0.16555578601E+02 -0.25368115795E+02 -0.54520406439E+03  0.57213574984E+03  0.17080461331E+03 0.  0.
        -24    2    5    5    0    0  0.65611215597E+02 -0.45875577907E+02 -0.28675515668E+03  0.30823247320E+03  0.79808128598E+02 0.  0.
          5    1    3    3  501    0  0.42544200291E+02 -0.28818315490E+02 -0.13651922989E+03  0.14594551865E+03  0.47000000000E+01 0. -1.
        -13    1    4    4    0    0  0.12232405853E+02  0.12010160361E+02 -0.36727707477E+02  0.40531471739E+02  0.00000000000E+00 0.  1.
         14    1    4    4    0    0 -0.71332184744E+02  0.42176270924E+02 -0.69847752709E+03  0.70337612574E+03  0.00000000000E+00 0. -1.
         -5    1    5    5    0  502 -0.49055636997E+02  0.20507462112E+02 -0.25844890771E+03  0.26390327664E+03  0.47000000000E+01 0.  1.
         13    1    6    6    0    0  0.15748356494E+01 -0.32118099705E+02 -0.32668632584E+02  0.45839851559E+02  0.00000000000E+00 0. -1.
        -14    1    6    6    0    0  0.64036379948E+02 -0.13757478202E+02 -0.25408652409E+03  0.26239262164E+03  0.00000000000E+00 0.  1.
</event>
<event>
12    1  0.8461994E-002  0.1771744E+03  0.7818608E-02  0.1170594E+00
         21   -1    0    0  501  502  0.00000000000E+00  0.00000000000E+00  0.20296441734E+03  0.20296441734E+03  0.00000000000E+00 0. -1.
         21   -1    0    0  502  503 -0.00000000000E+00 -0.00000000000E+00 -0.16050494477E+03  0.16050494477E+03  0.00000000000E+00 0. -1.
         -6    2    1    2    0  503  0.40454860340E+02  0.78553559622E+01  0.56203344871E+02  0.18587516530E+03  0.17231499865E+03 0.  0.
        -24    2    3    3    0    0  0.44910763480E+02  0.21733008675E+02 -0.28666298247E+02  0.99634857784E+02  0.81339092004E+02 0.  0.
          6    2    1    2  501    0 -0.40454860340E+02 -0.78553559622E+01 -0.13743872301E+02  0.17759419681E+03  0.17219901966E+03 0.  0.
         24    2    5    5    0    0  0.38165394334E+01  0.26074557583E+02  0.46733723338E+02  0.95187731980E+02  0.78627062110E+02 0.  0.
          5    1    5    5  501    0 -0.44271399774E+02 -0.33929913546E+02 -0.60477595639E+02  0.82406464827E+02  0.47000000000E+01 0. -1.
        -13    1    6    6    0    0  0.30203976098E+02 -0.98801408826E+01  0.17258521901E+01  0.31825711646E+02  0.00000000000E+00 0.  1.
         14    1    6    6    0    0 -0.26387436665E+02  0.35954698466E+02  0.45007871148E+02  0.63362020334E+02  0.00000000000E+00 0. -1.
         -5    1    3    3    0  503 -0.44559031395E+01 -0.13877652713E+02  0.84869643118E+02  0.86240307517E+02  0.47000000000E+01 0.  1.
         13    1    4    4    0    0  0.10099676397E+02  0.46455094161E+02  0.11562768664E+01  0.47554350096E+02  0.00000000000E+00 0. -1.
        -14    1    4    4    0    0  0.34811087083E+02 -0.24722085486E+02 -0.29822575114E+02  0.52080507688E+02  0.00000000000E+00 0.  1.
</event>
<event>
12    1  0.8461994E-002  0.1855016E+03  0.7818608E-02  0.1162727E+00
         21   -1    0    0  503  502  0.00000000000E+00  0.00000000000E+00  0.14547698383E+03  0.14547698383E+03  0.00000000000E+00 0. -1.
         21   -1    0    0  501  503 -0.00000000000E+00 -0.00000000000E+00 -0.23612840413E+03  0.23612840413E+03  0.00000000000E+00 0. -1.
          6    2    1    2  501    0 -0.54249042999E+02  0.41233919076E+02 -0.53082349858E+02  0.19294705509E+03  0.17253299816E+03 0.  0.
         24    2    3    3    0    0 -0.76507429808E+02  0.55479968516E+02 -0.85886750714E+02  0.15056068437E+03  0.79753194334E+02 0.  0.
         -6    2    1    2    0  502  0.54249042999E+02 -0.41233919076E+02 -0.37569070445E+02  0.18865833287E+03  0.17186429751E+03 0.  0.
        -24    2    5    5    0    0  0.27847011391E+02 -0.53252339170E+02  0.17731946774E+02  0.12603403886E+03  0.10935670690E+03 0.  0.
          5    1    3    3  501    0  0.22258386808E+02 -0.14246049440E+02  0.32804400855E+02  0.42386370727E+02  0.47000000000E+01 0. -1.
        -11    1    4    4    0    0 -0.25335882632E+02 -0.20075378725E+02 -0.24907108134E+02  0.40807987151E+02  0.00000000000E+00 0.  1.
         12    1    4    4    0    0 -0.51171547176E+02  0.75555347241E+02 -0.60979642580E+02  0.10975269722E+03  0.00000000000E+00 0. -1.
         -5    1    5    5    0  502  0.26402031608E+02  0.12018420094E+02 -0.55301017219E+02  0.62624294009E+02  0.47000000000E+01 0.  1.
         13    1    6    6    0    0  0.50756511033E+02 -0.28840501126E+02 -0.31625419283E+02  0.66394013753E+02  0.00000000000E+00 0. -1.
        -14    1    6    6    0    0 -0.22909499642E+02 -0.24411838044E+02  0.49357366057E+02  0.59640025106E+02  0.00000000000E+00 0.  1.
</event>
<event>
12    1  0.8461994E-002  0.1925557E+03  0.7818608E-02  0.1158832E+00
         21   -1    0    0  503  502  0.00000000000E+00  0.00000000000E+00  0.62969197103E+02  0.62969197103E+02  0.00000000000E+00 0. -1.
         21   -1    0    0  501  503 -0.00000000000E+00 -0.00000000000E+00 -0.15060146604E+04  0.15060146604E+04  0.00000000000E+00 0. -1.
          6    2    1    2  501    0  0.39462229202E+02 -0.36415534744E+02 -0.13369351900E+04  0.13491268490E+04  0.17281259725E+03 0.  0.
         24    2    3    3    0    0 -0.39585313369E+02  0.36829465126E+01 -0.53033782741E+03  0.53766040022E+03  0.78993250668E+02 0.  0.
         -6    2    1    2    0  502 -0.39462229202E+02  0.36415534744E+02 -0.10611027329E+03  0.21985700848E+03  0.18491715814E+03 0.  0.
        -24    2    5    5    0    0 -0.90971400524E+02  0.11709599316E+02 -0.24190058803E+02  0.11987406235E+03  0.73292028554E+02 0.  0.
          5    1    3    3  501    0  0.79047542571E+02 -0.40098481257E+02 -0.80659736255E+03  0.81146644876E+03  0.47000000000E+01 0. -1.
        -13    1    4    4    0    0 -0.57347050114E+02 -0.14668037890E+02 -0.43302874555E+03  0.43705575155E+03  0.00000000000E+00 0.  1.
         14    1    4    4    0    0  0.17761736745E+02  0.18350984403E+02 -0.97309081865E+02  0.10060464867E+03  0.00000000000E+00 0. -1.
         -5    1    5    5    0  502  0.51509171323E+02  0.24705935428E+02 -0.81920214487E+02  0.99982946132E+02  0.47000000000E+01 0.  1.
         13    1    6    6    0    0 -0.83420961312E+02  0.28418648920E+02  0.17042944934E+01  0.88145226827E+02  0.00000000000E+00 0. -1.
        -14    1    6    6    0    0 -0.75504392126E+01 -0.16709049603E+02 -0.25894353297E+02  0.31728835522E+02  0.00000000000E+00 0.  1.
</event>
<event>
12    1  0.8461994E-002  0.1717887E+03  0.7818608E-02  0.1176435E+00
         21   -1    0    0  501  502  0.00000000000E+00  0.00000000000E+00  0.18903453040E+03  0.18903453040E+03  0.00000000000E+00 0. -1.
         21   -1    0    0  502  503 -0.00000000000E+00 -0.00000000000E+00 -0.17725244405E+03  0.17725244405E+03  0.00000000000E+00 0. -1.
         -6    2    1    2    0  503  0.12043971484E+02 -0.23770301007E+01 -0.59589627526E+02  0.18183034867E+03  0.17134948050E+03 0.  0.
        -24    2    3    3    0    0  0.69480007793E+02 -0.90093651994E+01 -0.12530727954E+02  0.10713418970E+03  0.80075435162E+02 0.  0.
          6    2    1    2  501    0 -0.12043971484E+02  0.23770301007E+01  0.71371713876E+02  0.18445662579E+03  0.16964556503E+03 0.  0.
         24    2    5    5    0    0  0.95761386650E+01 -0.77687520804E+01 -0.25329568566E+02  0.84739054192E+02  0.79919111112E+02 0.  0.
          5    1    5    5  501    0 -0.21620110149E+02  0.10145782181E+02  0.96701282442E+02  0.99717571595E+02  0.47000000000E+01 0. -1.
        -11    1    6    6    0    0 -0.26163710074E+02  0.83342203440E+01  0.12582817684E+02  0.30204738940E+02  0.00000000000E+00 0.  1.
         12    1    6    6    0    0  0.35739848739E+02 -0.16102972424E+02 -0.37912386251E+02  0.54534315252E+02  0.00000000000E+00 0. -1.
         -5    1    3    3    0  503 -0.57436036308E+02  0.66323350987E+01 -0.47058899572E+02  0.74696158968E+02  0.47000000000E+01 0.  1.
         13    1    4    4    0    0  0.31725894789E+01 -0.30435516186E+02 -0.20743542800E+02  0.36968642623E+02  0.00000000000E+00 0. -1.
        -14    1    4    4    0    0  0.66307418314E+02  0.21426150987E+02  0.82128148456E+01  0.70165547081E+02  0.00000000000E+00 0.  1.
</event>
<event>
12    1  0.8461994E-002  0.2064364E+03  0.7818608E-02  0.1144614E+00
         21   -1    0    0  503  502  0.00000000000E+00  0.00000000000E+00  0.16014405366E+03  0.16014405366E+03  0.00000000000E+00 0.  1.
         21   -1    0    0  501  503 -0.00000000000E+00 -0.00000000000E+00 -0.40792945358E+03  0.40792945358E+03  0.00000000000E+00 0.  1.
          6    2    1    2  501    0 -0.24582792905E+02 -0.11087592828E+03 -0.29228143292E+03  0.35783293512E+03  0.17238964078E+03 0.  0.
         24    2    3    3    0    0  0.40445650974E+02 -0.47446741332E+02 -0.21723592759E+03  0.23990974766E+03  0.80487234028E+02 0.  0.
         -6    2    1    2    0  502  0.24582792905E+02  0.11087592828E+03  0.44496032996E+02  0.21024057212E+03  0.17124081300E+03 0.  0.
        -24    2    5    5    0    0  0.68473346760E+02  0.57639039945E+02 -0.13372209226E+02  0.12006646023E+03  0.78906785204E+02 0.  0.
          5    1    3    3  501    0 -0.65028443880E+02 -0.63429186943E+02 -0.75045505333E+02  0.11792318746E+03  0.47000000000E+01 0. -1.
        -13    1    4    4    0    0  0.94952205174E+01 -0.21781264308E+02 -0.18968776697E+03  0.19117016406E+03  0.00000000000E+00 0.  1.
         14    1    4    4    0    0  0.30950430457E+02 -0.25665477024E+02 -0.27548160618E+02  0.48739583602E+02  0.00000000000E+00 0. -1.
         -5    1    5    5    0  502 -0.43890553854E+02  0.53236888330E+02  0.57868242222E+02  0.90174111887E+02  0.47000000000E+01 0.  1.
         13    1    6    6    0    0  0.61983090351E+02  0.42111400029E+02  0.24324001078E+02  0.78784075360E+02  0.00000000000E+00 0. -1.
        -14    1    6    6    0    0  0.64902564082E+01  0.15527639915E+02 -0.37696210303E+02  0.41282384873E+02  0.00000000000E+00 0.  1.
</event>
<event>
12    1  0.8461994E-002  0.1940625E+03  0.7818608E-02  0.1155307E+00
         21   -1    0    0  503  502  0.00000000000E+00  0.00000000000E+00  0.27991856613E+03  0.27991856613E+03  0.00000000000E+00 0. -1.
         21   -1    0    0  501  503 -0.00000000000E+00 -0.00000000000E+00 -0.50935884706E+03  0.50935884706E+03  0.00000000000E+00 0.  1.
          6    2    1    2  501    0 -0.22628423945E+02  0.82105845702E+02 -0.45406144295E+03  0.49379354662E+03  0.17437562112E+03 0.  0.
         24    2    3    3    0    0 -0.27427503564E+02  0.89239722948E+02 -0.46381261642E+03  0.47996969933E+03  0.80825571582E+02 0.  0.
         -6    2    1    2    0  502  0.22628423945E+02 -0.82105845702E+02  0.22462116203E+03  0.29548386657E+03  0.17205415863E+03 0.  0.
        -24    2    5    5    0    0  0.39711080319E+02 -0.51919462654E+02  0.23778746156E+03  0.25808765936E+03  0.76116769066E+02 0.  0.
          5    1    3    3  501    0  0.47990796189E+01 -0.71338772466E+01  0.97511734708E+01  0.13823847287E+02  0.47000000000E+01 0. -1.
        -11    1    4    4    0    0 -0.29277559140E+02  0.53769020451E+02 -0.41560425000E+03  0.42008948529E+03  0.00000000000E+00 0.  1.
         12    1    4    4    0    0  0.18500555766E+01  0.35470702497E+02 -0.48208366424E+02  0.59880214048E+02  0.00000000000E+00 0. -1.
         -5    1    5    5    0  502 -0.17082656374E+02 -0.30186383047E+02 -0.13166299536E+02  0.37396207210E+02  0.47000000000E+01 0.  1.
         13    1    6    6    0    0  0.43697371239E+02  0.42643402472E+01  0.10994262958E+03  0.11838507781E+03  0.00000000000E+00 0. -1.
        -14    1    6    6    0    0 -0.39862909207E+01 -0.56183802902E+02  0.12784483199E+03  0.13970258154E+03  0.00000000000E+00 0.  1.
</event>
<event>
12    1  0.8461994E-002  0.1998500E+03  0.7818608E-02  0.1150327E+00
         21   -1    0    0  503  502  0.00000000000E+00  0.00000000000E+00  0.18427735708E+04  0.18427735708E+04  0.00000000000E+00 0. -1.
         21   -1    0    0  501  503 -0.00000000000E+00 -0.00000000000E+00 -0.53583372425E+02  0.53583372425E+02  0.00000000000E+00 0.  1.
          6    2    1    2  501    0 -0.19310753619E+02  0.98423093327E+02  0.16216335377E+03  0.25736541626E+03  0.17285830519E+03 0.  0.
         24    2    3    3    0    0  0.34788332407E+01 -0.15254516890E+02  0.46342933777E+02  0.93419010317E+02  0.79590460555E+02 0.  0.
         -6    2    1    2    0  502  0.19310753619E+02 -0.98423093327E+02  0.16270268446E+04  0.16389915269E+04  0.17034336469E+03 0.  0.
        -24    2    5    5    0    0  0.30089166602E+02 -0.99719731486E+02  0.16199503887E+04  0.16252066916E+04  0.78791787580E+02 0.  0.
          5    1    3    3  501    0 -0.22789586859E+02  0.11367761022E+03  0.11582041999E+03  0.16394640594E+03  0.47000000000E+01 0. -1.
        -11    1    4    4    0    0  0.25556279910E+02 -0.10086884316E+02 -0.12628903618E+02  0.30238351222E+02  0.00000000000E+00 0.  1.
         12    1    4    4    0    0 -0.22077446670E+02 -0.51676325740E+01  0.58971837395E+02  0.63180659095E+02  0.00000000000E+00 0. -1.
         -5    1    5    5    0  502 -0.10778412984E+02  0.12966381587E+01  0.70764558430E+01  0.13784835300E+02  0.47000000000E+01 0.  1.
         11    1    6    6    0    0 -0.22848188875E+02 -0.60166035843E+02  0.75859630022E+03  0.76132144217E+03  0.00000000000E+00 0. -1.
        -12    1    6    6    0    0  0.52937355477E+02 -0.39553695643E+02  0.86135408852E+03  0.86388524947E+03  0.00000000000E+00 0.  1.
</event>
<event>
12    1  0.8461994E-002  0.1851793E+03  0.7818608E-02  0.1164522E+00
         21   -1    0    0  501  502  0.00000000000E+00  0.00000000000E+00  0.15977755796E+04  0.15977755796E+04  0.00000000000E+00 0.  1.
         21   -1    0    0  502  503 -0.00000000000E+00 -0.00000000000E+00 -0.23128243610E+02  0.23128243610E+02  0.00000000000E+00 0. -1.
         -6    2    1    2    0  503  0.51696618891E+02  0.44328898561E+02  0.10381221415E+04  0.10533206619E+04  0.16477027772E+03 0.  0.
        -24    2    3    3    0    0 -0.89721284705E+01 -0.25498679114E+02  0.41151411475E+03  0.41990429273E+03  0.79025734385E+02 0.  0.
          6    2    1    2  501    0 -0.51696618891E+02 -0.44328898561E+02  0.53652519451E+03  0.56758316135E+03  0.17220269758E+03 0.  0.
         24    2    5    5    0    0 -0.25206211218E+02  0.24259197871E+02  0.42458052899E+03  0.43356910683E+03  0.80558568971E+02 0.  0.
          5    1    5    5  501    0 -0.26490407673E+02 -0.68588096432E+02  0.11194466553E+03  0.13401405453E+03  0.47000000000E+01 0. -1.
        -11    1    6    6    0    0  0.25183997825E+02 -0.83021515690E+01  0.16712547447E+03  0.16921608577E+03  0.00000000000E+00 0.  1.
         12    1    6    6    0    0 -0.50390209043E+02  0.32561349440E+02  0.25745505452E+03  0.26435302106E+03  0.00000000000E+00 0. -1.
         -5    1    3    3    0  503  0.60668747361E+02  0.69827577675E+02  0.62660802674E+03  0.63341636913E+03  0.47000000000E+01 0.  1.
         11    1    4    4    0    0  0.22978292529E+02  0.17065854924E+02  0.10637221656E+03  0.11015577056E+03  0.00000000000E+00 0. -1.
        -12    1    4    4    0    0 -0.31950421000E+02 -0.42564534039E+02  0.30514189819E+03  0.30974852217E+03  0.00000000000E+00 0.  1.
</event>
<event>
12    1  0.8461994E-002  0.1772287E+03  0.7818608E-02  0.1170721E+00
         21   -1    0    0  503  502  0.00000000000E+00  0.00000000000E+00  0.25816991049E+03  0.25816991049E+03  0.00000000000E+00 0. -1.
         21   -1    0    0  501  503 -0.00000000000E+00 -0.00000000000E+00 -0.14657615002E+04  0.14657615002E+04  0.00000000000E+00 0. -1.
          6    2    1    2  501    0 -0.35748450877E+02  0.10072470608E+02 -0.14295092516E+04  0.14404536465E+04  0.17329339592E+03 0.  0.
         24    2    3    3    0    0  0.42916024144E+02  0.24820182343E+02 -0.66398900693E+03  0.67074660512E+03  0.81004817041E+02 0.  0.
         -6    2    1    2    0  502  0.35748450877E+02 -0.10072470608E+02  0.22191766187E+03  0.28347776417E+03  0.17243197999E+03 0.  0.
        -24    2    5    5    0    0 -0.46558068097E+02 -0.40753748407E+01  0.14271978362E+03  0.16900190583E+03  0.77514160978E+02 0.  0.
          5    1    3    3  501    0 -0.78664475021E+02 -0.14747711735E+02 -0.76552024465E+03  0.76970704141E+03  0.47000000000E+01 0. -1.
        -13    1    4    4    0    0  0.37824957361E+02 -0.19133489095E+02 -0.18870220979E+03  0.19340460642E+03  0.00000000000E+00 0.  1.
         14    1    4    4    0    0  0.50910667822E+01  0.43953671438E+02 -0.47528679714E+03  0.47734199870E+03  0.00000000000E+00 0. -1.
         -5    1    5    5    0  502  0.82306518975E+02 -0.59970957671E+01  0.79197878245E+02  0.11447585834E+03  0.47000000000E+01 0.  1.
         13    1    6    6    0    0  0.72352179564E+01 -0.29953730991E+02  0.49358247574E+02  0.58187721924E+02  0.00000000000E+00 0. -1.
        -14    1    6    6    0    0 -0.53793286054E+02  0.25878356150E+02  0.93361536047E+02  0.11081418390E+03  0.00000000000E+00 0.  1.
</event>
<event>
12    1  0.8461994E-002  0.2947639E+03  0.7818608E-02  0.1087987E+00
         21   -1    0    0  503  502  0.00000000000E+00  0.00000000000E+00  0.90080333243E+02  0.90080333243E+02  0.00000000000E+00 0.  1.
         21   -1    0    0  501  503 -0.00000000000E+00 -0.00000000000E+00 -0.98555143059E+03  0.98555143059E+03  0.00000000000E+00 0.  1.
          6    2    1    2  501    0 -0.11253593943E+03 -0.20995535748E+03 -0.53147028159E+03  0.60773876116E+03  0.17360919275E+03 0.  0.
         24    2    3    3    0    0 -0.11624368858E+03 -0.10497893645E+03 -0.41595597906E+03  0.45153555868E+03  0.79572683778E+02 0.  0.
         -6    2    1    2    0  502  0.11253593943E+03  0.20995535748E+03 -0.36400081576E+03  0.46789300267E+03  0.17228371448E+03 0.  0.
        -24    2    5    5    0    0  0.13759652009E+03  0.17329801817E+03 -0.34853709060E+03  0.42063826721E+03  0.80581901612E+02 0.  0.
          5    1    3    3  501    0  0.37077491498E+01 -0.10497642103E+03 -0.11551430253E+03  0.15620320248E+03  0.47000000000E+01 0. -1.
        -13    1    4    4    0    0 -0.57016771231E+02 -0.16885780416E+02 -0.83255270646E+02  0.10231071240E+03  0.00000000000E+00 0.  1.
         14    1    4    4    0    0 -0.59226917353E+02 -0.88093156033E+02 -0.33270070841E+03  0.34922484628E+03  0.00000000000E+00 0. -1.
         -5    1    5    5    0  502 -0.25060580659E+02  0.36657339311E+02 -0.15463725157E+02  0.47254735467E+02  0.47000000000E+01 0.  1.
         11    1    6    6    0    0  0.66804606818E+02  0.25700010371E+02 -0.11456171675E+03  0.13508416995E+03  0.00000000000E+00 0. -1.
        -12    1    6    6    0    0  0.70791913274E+02  0.14759800780E+03 -0.23397537385E+03  0.28555409726E+03  0.00000000000E+00 0.  1.
</event>
<event>
12    1  0.8461994E-002  0.1962089E+03  0.7818608E-02  0.1153059E+00
         21   -1    0    0  503  502  0.00000000000E+00  0.00000000000E+00  0.56600532937E+03  0.56600532937E+03  0.00000000000E+00 0.  1.
         21   -1    0    0  501  503 -0.00000000000E+00 -0.00000000000E+00 -0.13983715116E+03  0.13983715116E+03  0.00000000000E+00 0.  1.
          6    2    1    2  501    0 -0.70959852441E+02  0.61632955300E+02 -0.39970225293E+02  0.20023871225E+03  0.17223240444E+03 0.  0.
         24    2    3    3    0    0 -0.55830844023E+02  0.33154662000E+02 -0.92615839205E+02  0.13832303775E+03  0.79619434463E+02 0.  0.
         -6    2    1    2    0  502  0.70959852441E+02 -0.61632955300E+02  0.46613840350E+03  0.50560376827E+03  0.17180290287E+03 0.  0.
        -24    2    5    5    0    0  0.81381289714E+02  0.17328294711E+02  0.30279317834E+03  0.32381477537E+03  0.79051349032E+02 0.  0.
          5    1    3    3  501    0 -0.15129008418E+02  0.28478293299E+02  0.52645613912E+02  0.61915674503E+02  0.47000000000E+01 0. -1.
        -11    1    4    4    0    0 -0.37317479890E+02  0.17265536551E+02  0.14512958841E+01  0.41143642491E+02  0.00000000000E+00 0.  1.
         12    1    4    4    0    0 -0.18513364133E+02  0.15889125450E+02 -0.94067135089E+02  0.97179395260E+02  0.00000000000E+00 0. -1.
         -5    1    5    5    0  502 -0.10421437273E+02 -0.78961250010E+02  0.16334522516E+03  0.18178899290E+03  0.47000000000E+01 0.  1.
         13    1    6    6    0    0  0.69736898697E+02 -0.19926591953E+02  0.15797440427E+03  0.17382812348E+03  0.00000000000E+00 0. -1.
        -14    1    6    6    0    0  0.11644391018E+02  0.37254886663E+02  0.14481877407E+03  0.14998665189E+03  0.00000000000E+00 0.  1.
</event>
<event>
12    1  0.8461994E-002  0.1860916E+03  0.7818608E-02  0.1162035E+00
         21   -1    0    0  501  502  0.00000000000E+00  0.00000000000E+00  0.62758721746E+02  0.62758721746E+02  0.00000000000E+00 0.  1.
         21   -1    0    0  502  503 -0.00000000000E+00 -0.00000000000E+00 -0.57824406455E+03  0.57824406455E+03  0.00000000000E+00 0.  1.
         -6    2    1    2    0  503  0.65817012505E+02  0.21531041910E+02 -0.18919674461E+03  0.26537804279E+03  0.17272704630E+03 0.  0.
        -24    2    3    3    0    0  0.15557778706E+02 -0.24364998296E+02 -0.17736203074E+03  0.19613508256E+03  0.78587422930E+02 0.  0.
          6    2    1    2  501    0 -0.65817012505E+02 -0.21531041910E+02 -0.32628859819E+03  0.37562474351E+03  0.17272589187E+03 0.  0.
         24    2    5    5    0    0 -0.76059273116E+02 -0.37595269277E+02 -0.33389697857E+03  0.35457858577E+03  0.83906876289E+02 0.  0.
          5    1    5    5  501    0  0.10242260610E+02  0.16064227367E+02  0.76083803807E+01  0.21046157733E+02  0.47000000000E+01 0. -1.
        -13    1    6    6    0    0 -0.19539380920E+01 -0.18519692584E+02 -0.19591980418E+03  0.19680286217E+03  0.00000000000E+00 0.  1.
         14    1    6    6    0    0 -0.74105335024E+02 -0.19075576693E+02 -0.13797717439E+03  0.15777572360E+03  0.00000000000E+00 0. -1.
         -5    1    3    3    0  503  0.50259233800E+02  0.45896040206E+02 -0.11834713868E+02  0.69242960228E+02  0.47000000000E+01 0.  1.
         13    1    4    4    0    0  0.30732892571E+02 -0.31952981557E+02 -0.46761573513E+02  0.64437166865E+02  0.00000000000E+00 0. -1.
        -14    1    4    4    0    0 -0.15175113865E+02  0.75879832606E+01 -0.13060045723E+03  0.13169791570E+03  0.00000000000E+00 0.  1.
</event>
<event>
12    1  0.8461994E-002  0.2260227E+03  0.7818608E-02  0.1129665E+00
         21   -1    0    0  501  502  0.00000000000E+00  0.00000000000E+00  0.37442732184E+03  0.37442732184E+03  0.00000000000E+00 0.  1.
         21   -1    0    0  502  503 -0.00000000000E+00 -0.00000000000E+00 -0.15181063971E+03  0.15181063971E+03  0.00000000000E+00 0. -1.
         -6    2    1    2    0  503  0.12396969047E+03 -0.73197103819E+02  0.19654859295E+03  0.29871697035E+03  0.17284148467E+03 0.  0.
        -24    2    3    3    0    0  0.68172687972E+02  0.28456348911E+02  0.10526478463E+03  0.15106347868E+03  0.79260460067E+02 0.  0.
          6    2    1    2  501    0 -0.12396969047E+03  0.73197103819E+02  0.26068089183E+02  0.22752099120E+03  0.17424108586E+03 0.  0.
         24    2    5    5    0    0 -0.60043520989E+02 -0.24555194436E+02 -0.12725818500E+02  0.10435799257E+03  0.80749378762E+02 0.  0.
          5    1    5    5  501    0 -0.63926169477E+02  0.97752298255E+02  0.38793907683E+02  0.12316299863E+03  0.47000000000E+01 0. -1.
        -13    1    6    6    0    0  0.10193938704E+02 -0.28563959901E+02  0.73332038393E+01  0.31202436925E+02  0.00000000000E+00 0.  1.
         14    1    6    6    0    0 -0.70237459693E+02  0.40087654643E+01 -0.20059022339E+02  0.73155555646E+02  0.00000000000E+00 0. -1.
         -5    1    3    3    0  503  0.55797002494E+02 -0.10165345273E+03  0.91283808317E+02  0.14765349166E+03  0.47000000000E+01 0.  1.
         13    1    4    4    0    0 -0.10743947543E+01  0.68169337952E+01  0.70103795242E+02  0.70442650559E+02  0.00000000000E+00 0. -1.
        -14    1    4    4    0    0  0.69247082726E+02  0.21639415116E+02  0.35160989387E+02  0.80620828124E+02  0.00000000000E+00 0.  1.
</event>
<event>
12    1  0.8461994E-002  0.4817528E+03  0.7818608E-02  0.1018921E+00
         21   -1    0    0  503  502  0.00000000000E+00  0.00000000000E+00  0.59534042379E+03  0.59534042379E+03  0.00000000000E+00 0. -1.
         21   -1    0    0  501  503 -0.00000000000E+00 -0.00000000000E+00 -0.39007976267E+03  0.39007976267E+03  0.00000000000E+00 0.  1.
          6    2    1    2  501    0 -0.17167928190E+03  0.41163739044E+03  0.14802005587E+03  0.50027870050E+03  0.17160921942E+03 0.  0.
         24    2    3    3    0    0 -0.13923162166E+03  0.17827860413E+03  0.96925554692E+02  0.25915236048E+03  0.81219933681E+02 0.  0.
         -6    2    1    2    0  502  0.17167928190E+03 -0.41163739044E+03  0.57240605247E+02  0.48514148596E+03  0.18211715312E+03 0.  0.
        -24    2    5    5    0    0  0.62186173537E+02 -0.10090900338E+03  0.61297421072E+02  0.15562757265E+03  0.80080087395E+02 0.  0.
          5    1    3    3  501    0 -0.32447660250E+02  0.23335878631E+03  0.51094501176E+02  0.24112634003E+03  0.47000000000E+01 0. -1.
        -13    1    4    4    0    0 -0.15845887794E+02  0.36418207930E+01  0.31652882672E+02  0.35584547210E+02  0.00000000000E+00 0.  1.
         14    1    4    4    0    0 -0.12338573386E+03  0.17463678334E+03  0.65272672020E+02  0.22356781327E+03  0.00000000000E+00 0. -1.
         -5    1    5    5    0  502  0.10949310837E+03 -0.31072838706E+03 -0.40568158242E+01  0.32951391331E+03  0.47000000000E+01 0.  1.
         11    1    6    6    0    0  0.80326646272E+01 -0.73521832627E+02  0.59489597140E+02  0.94915729685E+02  0.00000000000E+00 0. -1.
        -12    1    6    6    0    0  0.54153508909E+02 -0.27387170754E+02  0.18078239321E+01  0.60711842967E+02  0.00000000000E+00 0.  1.
</event>
<event>
12    1  0.8461994E-002  0.2017212E+03  0.7818608E-02  0.1148396E+00
         21   -1    0    0  503  502  0.00000000000E+00  0.00000000000E+00  0.14407035710E+03  0.14407035710E+03  0.00000000000E+00 0. -1.
         21   -1    0    0  501  503 -0.00000000000E+00 -0.00000000000E+00 -0.40658856543E+03  0.40658856543E+03  0.00000000000E+00 0. -1.
          6    2    1    2  501    0 -0.20073254724E+02  0.10297563040E+03 -0.28370435726E+03  0.34782818637E+03  0.17172468924E+03 0.  0.
         24    2    3    3    0    0  0.13894528583E+02  0.83730378112E+02 -0.84263504818E+02  0.14454775529E+03  0.81178083069E+02 0.  0.
         -6    2    1    2    0  502  0.20073254724E+02 -0.10297563040E+03  0.21186148935E+02  0.20283073616E+03  0.17229201553E+03 0.  0.
        -24    2    5    5    0    0 -0.13880264455E+02 -0.75654559728E+02  0.73172490848E+02  0.13483108828E+03  0.83120002405E+02 0.  0.
          5    1    3    3  501    0 -0.33967783306E+02  0.19245252290E+02 -0.19944085245E+03  0.20328043109E+03  0.47000000000E+01 0. -1.
        -13    1    4    4    0    0  0.41212755770E+02  0.37880659641E+02 -0.16635804746E+02  0.58396794540E+02  0.00000000000E+00 0.  1.
         14    1    4    4    0    0 -0.27318227187E+02  0.45849718471E+02 -0.67627700072E+02  0.86150960746E+02  0.00000000000E+00 0. -1.
         -5    1    5    5    0  502  0.33953519179E+02 -0.27321070674E+02 -0.51986341913E+02  0.67999647888E+02  0.47000000000E+01 0.  1.
         13    1    6    6    0    0  0.91940861316E+00 -0.85591261090E+02  0.78587066206E+02  0.11620084450E+03  0.00000000000E+00 0. -1.
        -14    1    6    6    0    0 -0.14799673068E+02  0.99367013626E+01 -0.54145753577E+01  0.18630243777E+02  0.00000000000E+00 0.  1.
</event>
<event>
12    1  0.8461994E-002  0.1997244E+03  0.7818608E-02  0.1150010E+00
         21   -1    0    0  501  502  0.00000000000E+00  0.00000000000E+00  0.26852716090E+03  0.26852716090E+03  0.00000000000E+00 0.  1.
         21   -1    0    0  502  503 -0.00000000000E+00 -0.00000000000E+00 -0.35429758323E+03  0.35429758323E+03  0.00000000000E+00 0.  1.
         -6    2    1    2    0  503 -0.38424738384E+02 -0.93356994526E+02 -0.28028236292E+03  0.34416279888E+03  0.17233061314E+03 0.  0.
        -24    2    3    3    0    0 -0.50371539192E+02  0.83711594847E+01 -0.15916088864E+03  0.18546861216E+03  0.80368211083E+02 0.  0.
          6    2    1    2  501    0  0.38424738384E+02  0.93356994526E+02  0.19451194059E+03  0.27866194524E+03  0.17212087539E+03 0.  0.
         24    2    5    5    0    0  0.11715022773E+02  0.10818977748E+03  0.20571221194E+03  0.24578404329E+03  0.79057017938E+02 0.  0.
          5    1    5    5  501    0  0.26709715612E+02 -0.14832782958E+02 -0.11200271347E+02  0.32877901949E+02  0.47000000000E+01 0. -1.
        -11    1    6    6    0    0  0.41848682470E+02  0.82918057903E+02  0.12235128493E+03  0.15361169707E+03  0.00000000000E+00 0.  1.
         12    1    6    6    0    0 -0.30133659698E+02  0.25271719581E+02  0.83360927004E+02  0.92172346224E+02  0.00000000000E+00 0. -1.
         -5    1    3    3    0  503  0.11946800807E+02 -0.10172815401E+03 -0.12112147428E+03  0.15869418672E+03  0.47000000000E+01 0.  1.
         11    1    4    4    0    0  0.59272111956E+01  0.80397168319E+01  0.55323832977E+01  0.11418237353E+02  0.00000000000E+00 0. -1.
        -12    1    4    4    0    0 -0.56298750387E+02  0.33144265276E+00 -0.16469327194E+03  0.17405037481E+03  0.00000000000E+00 0.  1.
</event>
<event>
12    1  0.8461994E-002  0.2245301E+03  0.7818608E-02  0.1131143E+00
         21   -1    0    0  501  502  0.00000000000E+00  0.00000000000E+00  0.30737525417E+03  0.30737525417E+03  0.00000000000E+00 0. -1.
         21   -1    0    0  502  503 -0.00000000000E+00 -0.00000000000E+00 -0.16696542530E+03  0.16696542530E+03  0.00000000000E+00 0. -1.
         -6    2    1    2    0  503  0.11117746422E+03 -0.81323778191E+02  0.28395789446E+02  0.22631850566E+03  0.17731260445E+03 0.  0.
        -24    2    3    3    0    0  0.25706758508E+01  0.10590858363E+02  0.18022147140E+02  0.83582955263E+02  0.80885956555E+02 0.  0.
          6    2    1    2  501    0 -0.11117746422E+03  0.81323778191E+02  0.11201403942E+03  0.24802217381E+03  0.17318737894E+03 0.  0.
         24    2    5    5    0    0 -0.32674960928E+02 -0.56726960329E+01  0.97115279179E+02  0.12980587795E+03  0.79488086831E+02 0.  0.
          5    1    5    5  501    0 -0.78502503292E+02  0.86996474224E+02  0.14898760243E+02  0.11821629586E+03  0.47000000000E+01 0. -1.
        -11    1    6    6    0    0  0.17210840164E+02  0.33251020109E+01 -0.28153328914E+01  0.17753743882E+02  0.00000000000E+00 0.  1.
         12    1    6    6    0    0 -0.49885801092E+02 -0.89977980438E+01  0.99930612071E+02  0.11205213407E+03  0.00000000000E+00 0. -1.
         -5    1    3    3    0  503  0.10860678837E+03 -0.91914636554E+02  0.10373642306E+02  0.14273555040E+03  0.47000000000E+01 0.  1.
         11    1    4    4    0    0  0.17003677067E+02 -0.32223015476E+02  0.77913487713E+01  0.37257923666E+02  0.00000000000E+00 0. -1.
        -12    1    4    4    0    0 -0.14433001217E+02  0.42813873839E+02  0.10230798369E+02  0.46325031597E+02  0.00000000000E+00 0.  1.
</event>
<event>
12    1  0.8461994E-002  0.3340093E+03  0.7818608E-02  0.1069481E+00
         21   -1    0    0  501  502  0.00000000000E+00  0.00000000000E+00  0.22774561000E+04  0.22774561000E+04  0.00000000000E+00 0.  1.
         21   -1    0    0  502  503 -0.00000000000E+00 -0.00000000000E+00 -0.54115667844E+02  0.54115667844E+02  0.00000000000E+00 0.  1.
         -6    2    1    2    0  503  0.86203575111E+02 -0.27265368505E+03  0.74640465809E+03  0.81733880041E+03  0.17073872645E+03 0.  0.
        -24    2    3    3    0    0  0.10820486008E+03 -0.20800664282E+03  0.45811762566E+03  0.52103692786E+03  0.81441181564E+02 0.  0.
          6    2    1    2  501    0 -0.86203575111E+02  0.27265368505E+03  0.14769357741E+04  0.15142329674E+04  0.17260101565E+03 0.  0.
         24    2    5    5    0    0 -0.95084932365E+02  0.20222889944E+03  0.13301988956E+04  0.13511614174E+04  0.79185868789E+02 0.  0.
          5    1    5    5  501    0  0.88813572531E+01  0.70424785612E+02  0.14673687846E+03  0.16307155005E+03  0.47000000000E+01 0. -1.
        -13    1    6    6    0    0 -0.28699646798E+02  0.61943069599E+02  0.64514640571E+03  0.64874840917E+03  0.00000000000E+00 0.  1.
         14    1    6    6    0    0 -0.66385285567E+02  0.14028582984E+03  0.68505248990E+03  0.70241300822E+03  0.00000000000E+00 0. -1.
         -5    1    3    3    0  503 -0.22001284970E+02 -0.64647042234E+02  0.28828703243E+03  0.29630187255E+03  0.47000000000E+01 0.  1.
         11    1    4    4    0    0  0.79864571707E+02 -0.11522218051E+03  0.34266181421E+03  0.37023184575E+03  0.00000000000E+00 0. -1.
        -12    1    4    4    0    0  0.28340288375E+02 -0.92784462310E+02  0.11545581145E+03  0.15080508211E+03  0.00000000000E+00 0.  1.
</event>
<event>
12    1  0.8461994E-002  0.1846591E+03  0.7818608E-02  0.1163641E+00
         21   -1    0    0  501  502  0.00000000000E+00  0.00000000000E+00  0.71943158681E+03  0.71943158681E+03  0.00000000000E+00 0. -1.
         21   -1    0    0  502  503 -0.00000000000E+00 -0.00000000000E+00 -0.50431629273E+02  0.50431629273E+02  0.00000000000E+00 0.  1.
         -6    2    1    2    0  503 -0.61669626167E+02 -0.25630586935E+02  0.23654271536E+03  0.30008570658E+03  0.17215953453E+03 0.  0.
        -24    2    3    3    0    0 -0.56455664484E+02  0.25959016691E+02  0.66997918564E+02  0.12272674651E+03  0.81926922422E+02 0.  0.
          6    2    1    2  501    0  0.61669626167E+02  0.25630586935E+02  0.43245724218E+03  0.46977750949E+03  0.17091393254E+03 0.  0.
         24    2    5    5    0    0  0.96959036510E+02 -0.18965998085E+02  0.32227834744E+03  0.34569819324E+03  0.76701654042E+02 0.  0.
          5    1    5    5  501    0 -0.35289410343E+02  0.44596585020E+02  0.11017889473E+03  0.12407931626E+03  0.47000000000E+01 0. -1.
        -11    1    6    6    0    0 -0.13196211982E+02 -0.24456188527E+01  0.28171279469E+02  0.31204840156E+02  0.00000000000E+00 0.  1.
         12    1    6    6    0    0  0.11015524849E+03 -0.16520379232E+02  0.29410706797E+03  0.31449335308E+03  0.00000000000E+00 0. -1.
         -5    1    3    3    0  503 -0.52139616827E+01 -0.51589603627E+02  0.16954479679E+03  0.17735896007E+03  0.47000000000E+01 0.  1.
         13    1    4    4    0    0 -0.29045715662E+02  0.24659342145E+02  0.82739855612E+02  0.91091275433E+02  0.00000000000E+00 0. -1.
        -14    1    4    4    0    0 -0.27409948822E+02  0.12996745463E+01 -0.15741937048E+02  0.31635471079E+02  0.00000000000E+00 0.  1.
</event>
<event>
12    1  0.8461994E-002  0.1835610E+03  0.7818608E-02  0.1166595E+00
         21   -1    0    0  501  502  0.00000000000E+00  0.00000000000E+00  0.10119303827E+04  0.10119303827E+04  0.00000000000E+00 0.  1.
         21   -1    0    0  502  503 -0.00000000000E+00 -0.00000000000E+00 -0.45860973414E+02  0.45860973414E+02  0.00000000000E+00 0. -1.
         -6    2    1    2    0  503 -0.10617355377E+01  0.34846870293E+02  0.76868704562E+03  0.78824649218E+03  0.17098925895E+03 0.  0.
        -24    2    3    3    0    0 -0.33800795876E+02  0.22434581215E+02  0.20986413798E+03  0.22830806423E+03  0.80223509933E+02 0.  0.
          6    2    1    2  501    0  0.10617355377E+01 -0.34846870293E+02  0.19738236369E+03  0.26954486396E+03  0.18021987831E+03 0.  0.
         24    2    5    5    0    0 -0.51356875202E+02 -0.69538298493E+02  0.14272111451E+03  0.18611136886E+03  0.82431920418E+02 0.  0.
          5    1    5    5  501    0  0.52418610740E+02  0.34691428200E+02  0.54661249178E+02  0.83433495097E+02  0.47000000000E+01 0. -1.
        -13    1    6    6    0    0 -0.29343200892E+02 -0.76358841279E+02  0.14098706212E+03  0.16300014652E+03  0.00000000000E+00 0.  1.
         14    1    6    6    0    0 -0.22013674310E+02  0.68205427857E+01  0.17340523947E+01  0.23111222344E+02  0.00000000000E+00 0. -1.
         -5    1    3    3    0  503  0.32739060338E+02  0.12412289078E+02  0.55882290764E+03  0.55993842795E+03  0.47000000000E+01 0.  1.
         13    1    4    4    0    0 -0.46913615072E+02  0.10849605675E+02  0.20437364483E+03  0.20996949284E+03  0.00000000000E+00 0. -1.
        -14    1    4    4    0    0  0.13112819197E+02  0.11584975539E+02  0.54904931482E+01  0.18338571388E+02  0.00000000000E+00 0.  1.
</event>
<event>
12    1  0.8461994E-002  0.2183507E+03  0.7818608E-02  0.1135257E+00
         21   -1    0    0  503  502  0.00000000000E+00  0.00000000000E+00  0.17290993609E+04  0.17290993609E+04  0.00000000000E+00 0.  1.
         21   -1    0    0  501  503 -0.00000000000E+00 -0.00000000000E+00 -0.35810763085E+02  0.35810763085E+02  0.00000000000E+00 0. -1.
          6    2    1    2  501    0 -0.12225198621E+03 -0.54658567548E+02  0.41994302353E+03  0.47297901535E+03  0.17153395818E+03 0.  0.
         24    2    3    3    0    0 -0.11082234938E+03  0.16256036361E+02  0.20351967080E+03  0.24489860134E+03  0.77519137612E+02 0.  0.
         -6    2    1    2    0  502  0.12225198621E+03  0.54658567548E+02  0.12733455743E+04  0.12919311087E+04  0.17246428841E+03 0.  0.
        -24    2    5    5    0    0  0.55238016505E+02 -0.37852218491E+02  0.57336384586E+03  0.58267401294E+03  0.79239363348E+02 0.  0.
          5    1    3    3  501    0 -0.11429636830E+02 -0.70914603909E+02  0.21642335273E+03  0.22808041401E+03  0.47000000000E+01 0. -1.
        -11    1    4    4    0    0 -0.19284437700E+02  0.36516872325E+02  0.48144318550E+02  0.63429069916E+02  0.00000000000E+00 0.  1.
         12    1    4    4    0    0 -0.91537911685E+02 -0.20260835964E+02  0.15537535225E+03  0.18146953143E+03  0.00000000000E+00 0. -1.
         -5    1    5    5    0  502  0.67013969709E+02  0.92510786039E+02  0.69998172844E+03  0.70925709571E+03  0.47000000000E+01 0.  1.
         11    1    6    6    0    0  0.23308645687E+01 -0.16140047918E+02  0.17669598450E+02  0.24044724698E+02  0.00000000000E+00 0. -1.
        -12    1    6    6    0    0  0.52907151937E+02 -0.21712170573E+02  0.55569424741E+03  0.55862928824E+03  0.00000000000E+00 0.  1.
</event>
<event>
12    1  0.8461994E-002  0.2057680E+03  0.7818608E-02  0.1145178E+00
         21   -1    0    0  501  502  0.00000000000E+00  0.00000000000E+00  0.34845303700E+02  0.34845303700E+02  0.00000000000E+00 0.  1.
         21   -1    0    0  502  503 -0.00000000000E+00 -0.00000000000E+00 -0.18393619056E+04  0.18393619056E+04  0.00000000000E+00 0.  1.
         -6    2    1    2    0  503 -0.10585809598E+03 -0.34747885613E+02 -0.14524529284E+04  0.14669560206E+04  0.17299452341E+03 0.  0.
        -24    2    3    3    0    0 -0.14131057499E+03 -0.34665021303E+02 -0.11120911591E+04  0.11247205620E+04  0.84138303405E+02 0.  0.
          6    2    1    2  501    0  0.10585809598E+03  0.34747885613E+02 -0.35206367353E+03  0.40725118873E+03  0.17173045292E+03 0.  0.
         24    2    5    5    0    0  0.72801709645E+02 -0.36580323093E+02 -0.13619885287E+03  0.17746835900E+03  0.79414620573E+02 0.  0.
          5    1    5    5  501    0  0.33056386335E+02  0.71328208705E+02 -0.21586482067E+03  0.22978282972E+03  0.47000000000E+01 0. -1.
        -11    1    6    6    0    0  0.81414329542E+02 -0.20791288718E+02 -0.13553744637E+03  0.15947090678E+03  0.00000000000E+00 0.  1.
         12    1    6    6    0    0 -0.86126198972E+01 -0.15789034375E+02 -0.66140649752E+00  0.17997452224E+02  0.00000000000E+00 0. -1.
         -5    1    3    3    0  503  0.35452479012E+02 -0.82864309676E-01 -0.34036176928E+03  0.34223545860E+03  0.47000000000E+01 0.  1.
         11    1    4    4    0    0 -0.10065445093E+03 -0.57123860166E+02 -0.64272910886E+03  0.65306597007E+03  0.00000000000E+00 0. -1.
        -12    1    4    4    0    0 -0.40656124064E+02  0.22458838863E+02 -0.46936205025E+03  0.47165459192E+03  0.00000000000E+00 0.  1.
</event>
<event>
12    1  0.8461994E-002  0.2288129E+03  0.7818608E-02  0.1127847E+00
         21   -1    0    0  503  502  0.00000000000E+00  0.00000000000E+00  0.80683845652E+03  0.80683845652E+03  0.00000000000E+00 0.  1.
         21   -1    0    0  501  503 -0.00000000000E+00 -0.00000000000E+00 -0.64634513144E+02  0.64634513144E+02  0.00000000000E+00 0.  1.
          6    2    1    2  501    0  0.10050464669E+02 -0.14975143739E+03  0.33821326539E+03  0.40718445354E+03  0.16995429231E+03 0.  0.
         24    2    3    3    0    0  0.14744022804E+02 -0.43138856990E+02  0.64048162944E+02  0.11294498442E+03  0.81092879699E+02 0.  0.
         -6    2    1    2    0  502 -0.10050464669E+02  0.14975143739E+03  0.40399067798E+03  0.46428851612E+03  0.17271031661E+03 0.  0.
        -24    2    5    5    0    0  0.32411301586E+02  0.70939178134E+02  0.32880893862E+03  0.34728955144E+03  0.80074059207E+02 0.  0.
          5    1    3    3  501    0 -0.46935581347E+01 -0.10661258040E+03  0.27416510245E+03  0.29423946912E+03  0.47000000000E+01 0. -1.
        -11    1    4    4    0    0  0.68454437075E+01  0.26946010556E+01 -0.17546304242E+02  0.19026133789E+02  0.00000000000E+00 0.  1.
         12    1    4    4    0    0  0.78985790962E+01 -0.45833458046E+02  0.81594467186E+02  0.93918850630E+02  0.00000000000E+00 0. -1.
         -5    1    5    5    0  502 -0.42461766255E+02  0.78812259260E+02  0.75181739359E+02  0.11699896468E+03  0.47000000000E+01 0.  1.
         13    1    6    6    0    0 -0.20209086619E+02  0.45300397229E+02  0.10787521160E+03  0.11873329124E+03  0.00000000000E+00 0. -1.
        -14    1    6    6    0    0  0.52620388205E+02  0.25638780905E+02  0.22093372702E+03  0.22855626020E+03  0.00000000000E+00 0.  1.
</event>
<event>
12    1  0.8461994E-002  0.2117663E+03  0.7818608E-02  0.1140464E+00
         21   -1    0    0  503  502  0.00000000000E+00  0.00000000000E+00  0.31018643038E+03  0.31018643038E+03  0.00000000000E+00 0. -1.
         21   -1    0    0  501  503 -0.00000000000E+00 -0.00000000000E+00 -0.18250745498E+03  0.18250745498E+03  0.00000000000E+00 0.  1.
          6    2    1    2  501    0 -0.10026461941E+03  0.59759794275E+02  0.17744910367E+03  0.27515760610E+03  0.17492654711E+03 0.  0.
         24    2    3    3    0    0  0.34288511992E+01  0.20948499014E+02  0.13215852897E+03  0.15544136391E+03  0.79028755544E+02 0.  0.
         -6    2    1    2    0  502  0.10026461941E+03 -0.59759794275E+02 -0.49770128273E+02  0.21753627926E+03  0.17669391672E+03 0.  0.
        -24    2    5    5    0    0  0.65413966146E+02 -0.34691782133E+02  0.36903973602E+02  0.12069897652E+03  0.87885339793E+02 0.  0.
          5    1    3    3  501    0 -0.10369347061E+03  0.38811295261E+02  0.45290574702E+02  0.11971624219E+03  0.47000000000E+01 0. -1.
        -11    1    4    4    0    0  0.43955652429E+01 -0.21471668065E+02  0.65729006421E+01  0.22881358049E+02  0.00000000000E+00 0.  1.
         12    1    4    4    0    0 -0.96671404368E+00  0.42420167079E+02  0.12558562833E+03  0.13256000586E+03  0.00000000000E+00 0. -1.
         -5    1    5    5    0  502  0.34850653269E+02 -0.25068012142E+02 -0.86674101875E+02  0.96837302740E+02  0.47000000000E+01 0.  1.
         13    1    6    6    0    0 -0.11038589270E+02  0.10860508366E+02  0.27039092049E+02  0.31159486418E+02  0.00000000000E+00 0. -1.
        -14    1    6    6    0    0  0.76452555416E+02 -0.45552290499E+02  0.98648815529E+01  0.89539490100E+02  0.00000000000E+00 0.  1.
</event>
<event>
12    1  0.8461994E-002  0.1811545E+03  0.7818608E-02  0.1166770E+00
         21   -1    0    0  501  502  0.00000000000E+00  0.00000000000E+00  0.33893434678E+03  0.33893434678E+03  0.00000000000E+00 0.  1.
         21   -1    0    0  502  503 -0.00000000000E+00 -0.00000000000E+00 -0.11422674411E+03  0.11422674411E+03  0.00000000000E+00 0. -1.
         -6    2    1    2    0  503  0.41005001547E+02  0.37252835385E+02  0.23379816545E+02  0.18232938550E+03  0.17212845522E+03 0.  0.
        -24    2    3    3    0    0  0.23066716438E+02  0.58779453024E+02  0.73616121869E+02  0.12461497038E+03  0.78246149675E+02 0.  0.
          6    2    1    2  501    0 -0.41005001547E+02 -0.37252835385E+02  0.20132778612E+03  0.27083170539E+03  0.17247536428E+03 0.  0.
         24    2    5    5    0    0 -0.81243791764E+02 -0.30942771131E+02  0.19776115924E+03  0.22967604993E+03  0.77997455231E+02 0.  0.
          5    1    5    5  501    0  0.40238790218E+02 -0.63100642541E+01  0.35666268816E+01  0.41155655461E+02  0.47000000000E+01 0. -1.
        -13    1    6    6    0    0  0.97811856786E+01 -0.14803251290E+02  0.68492936591E+02  0.70753729265E+02  0.00000000000E+00 0.  1.
         14    1    6    6    0    0 -0.91024977443E+02 -0.16139519841E+02  0.12926822265E+03  0.15892232067E+03  0.00000000000E+00 0. -1.
         -5    1    3    3    0  503  0.17938285109E+02 -0.21526617638E+02 -0.50236305324E+02  0.57714415116E+02  0.47000000000E+01 0.  1.
         11    1    4    4    0    0 -0.10429987721E+02  0.65495244245E+02  0.46492134664E+02  0.80993396325E+02  0.00000000000E+00 0. -1.
        -12    1    4    4    0    0  0.33496704159E+02 -0.67157912216E+01  0.27123987205E+02  0.43621574056E+02  0.00000000000E+00 0.  1.
</event>
<event>
12    1  0.8461994E-002  0.1932911E+03  0.7818608E-02  0.1156848E+00
         21   -1    0    0  501  502  0.00000000000E+00  0.00000000000E+00  0.38644288013E+03  0.38644288013E+03  0.00000000000E+00 0.  1.
         21   -1    0    0  502  503 -0.00000000000E+00 -0.00000000000E+00 -0.11109818488E+03  0.11109818488E+03  0.00000000000E+00 0.  1.
         -6    2    1    2    0  503 -0.40990815800E+01  0.74737544630E+02  0.41188635901E+02  0.19763084229E+03  0.17821038985E+03 0.  0.
        -24    2    3    3    0    0 -0.59322038122E+02  0.36846506407E+01  0.43027043218E+02  0.10750005723E+03  0.78563700265E+02 0.  0.
          6    2    1    2  501    0  0.40990815800E+01 -0.74737544630E+02  0.23415605935E+03  0.29991022272E+03  0.17179807482E+03 0.  0.
         24    2    5    5    0    0  0.24012035731E+02  0.20927286938E+02  0.13764786471E+03  0.16249040109E+03  0.80259993714E+02 0.  0.
          5    1    5    5  501    0 -0.19912954151E+02 -0.95664831568E+02  0.96508194645E+02  0.13741982162E+03  0.47000000000E+01 0. -1.
        -13    1    6    6    0    0  0.48681073879E+02  0.35468703695E+01  0.11446272789E+03  0.12443529773E+03  0.00000000000E+00 0.  1.
         14    1    6    6    0    0 -0.24669038148E+02  0.17380416568E+02  0.23185136812E+02  0.38055103367E+02  0.00000000000E+00 0. -1.
         -5    1    3    3    0  503  0.55222956542E+02  0.71052893989E+02 -0.18384073161E+01  0.90130785057E+02  0.47000000000E+01 0.  1.
         11    1    4    4    0    0 -0.50499626718E+02  0.24873216284E+02  0.57417983537E+02  0.80409663725E+02  0.00000000000E+00 0. -1.
        -12    1    4    4    0    0 -0.88224114041E+01 -0.21188565644E+02 -0.14390940319E+02  0.27090393506E+02  0.00000000000E+00 0.  1.
</event>
<event>
12    1  0.8461994E-002  0.1930220E+03  0.7818608E-02  0.1156041E+00
         21   -1    0    0  501  502  0.00000000000E+00  0.00000000000E+00  0.66248390668E+02  0.66248390668E+02  0.00000000000E+00 0. -1.
         21   -1    0    0  502  503 -0.00000000000E+00 -0.00000000000E+00 -0.56286341134E+03  0.56286341134E+03  0.00000000000E+00 0. -1.
         -6    2    1    2    0  503 -0.82957549503E+02  0.12032118057E+02 -0.27601152560E+03  0.33680834421E+03  0.17386998469E+03 0.  0.
        -24    2    3    3    0    0 -0.48672080553E+02  0.25064718369E+02 -0.61783176999E+02  0.11941189208E+03  0.86283413688E+02 0.  0.
          6    2    1    2  501    0  0.82957549503E+02 -0.12032118057E+02 -0.22060349507E+03  0.29230345781E+03  0.17247806389E+03 0.  0.
         24    2    5    5    0    0 -0.23947738297E+02 -0.22374034316E+00 -0.10633816271E+03  0.13531035438E+03  0.80171958463E+02 0.  0.
          5    1    5    5  501    0  0.10690528780E+03 -0.11808377714E+02 -0.11426533236E+03  0.15699310343E+03  0.47000000000E+01 0. -1.
        -11    1    6    6    0    0  0.13989556289E+02 -0.22953191833E+02 -0.78688727357E+02  0.83153307291E+02  0.00000000000E+00 0.  1.
         12    1    6    6    0    0 -0.37937294585E+02  0.22729451490E+02 -0.27649435358E+02  0.52157047089E+02  0.00000000000E+00 0. -1.
         -5    1    3    3    0  503 -0.34285468950E+02 -0.13032600312E+02 -0.21422834860E+03  0.21739645213E+03  0.47000000000E+01 0.  1.
         13    1    4    4    0    0  0.66125198658E+01  0.15999718655E+02 -0.60973026212E+02  0.63383170806E+02  0.00000000000E+00 0. -1.
        -14    1    4    4    0    0 -0.55284600418E+02  0.90649997142E+01 -0.81015078714E+00  0.56028721273E+02  0.00000000000E+00 0.  1.
</event>
<event>
12    1  0.8461994E-002  0.2415735E+03  0.7818608E-02  0.1118815E+00
         21   -1    0    0  503  502  0.00000000000E+00  0.00000000000E+00  0.69751111790E+02  0.69751111790E+02  0.00000000000E+00 0.  1.
         21   -1    0    0  501  503 -0.00000000000E+00 -0.00000000000E+00 -0.19296609234E+04  0.19296609234E+04  0.00000000000E+00 0. -1.
          6    2    1    2  501    0  0.11949609325E+03  0.11930767895E+03 -0.16831538626E+04  0.17004013300E+04  0.17275450651E+03 0.  0.
         24    2    3    3    0    0  0.69021807249E+02  0.18493884616E+02 -0.45773138841E+03  0.46979440462E+03  0.77991826729E+02 0.  0.
         -6    2    1    2    0  502 -0.11949609325E+03 -0.11930767895E+03 -0.17675594904E+03  0.29901070517E+03  0.17219494105E+03 0.  0.
        -24    2    5    5    0    0 -0.82594378963E+02 -0.15321055929E+03 -0.13600250775E+03  0.23424902831E+03  0.77978319006E+02 0.  0.
          5    1    3    3  501    0  0.50474285997E+02  0.10081379433E+03 -0.12254224742E+04  0.12306069254E+04  0.47000000000E+01 0. -1.
        -13    1    4    4    0    0  0.28665069686E+02 -0.30778049154E+02 -0.17679055471E+03  0.18172472249E+03  0.00000000000E+00 0.  1.
         14    1    4    4    0    0  0.40356737563E+02  0.49271933771E+02 -0.28094083370E+03  0.28806968214E+03  0.00000000000E+00 0. -1.
         -5    1    5    5    0  502 -0.36901714283E+02  0.33902880340E+02 -0.40753441295E+02  0.64761676860E+02  0.47000000000E+01 0.  1.
         13    1    6    6    0    0  0.88800503888E+01 -0.29934299393E+02 -0.34164914074E+01  0.31410030063E+02  0.00000000000E+00 0. -1.
        -14    1    6    6    0    0 -0.91474429352E+02 -0.12327625989E+03 -0.13258601634E+03  0.20283899824E+03  0.00000000000E+00 0.  1.
</event>
<event>
12    1  0.8461994E-002  0.3391824E+03  0.7818608E-02  0.1067192E+00
         21   -1    0    0  503  502  0.00000000000E+00  0.00000000000E+00  0.91677693009E+03  0.91677693009E+03  0.00000000000E+00 0.  1.
         21   -1    0    0  501  503 -0.00000000000E+00 -0.00000000000E+00 -0.12616287620E+03  0.12616287620E+03  0.00000000000E+00 0. -1.
          6    2    1    2  501    0  0.26950669919E+02  0.29045016377E+03  0.43758486574E+03  0.55337439272E+03  0.17220646779E+03 0.  0.
         24    2    3    3    0    0  0.55119278872E+02  0.13126773768E+03  0.30058118560E+03  0.34142012011E+03  0.77131675830E+02 0.  0.
         -6    2    1    2    0  502 -0.26950669919E+02 -0.29045016377E+03  0.35302918814E+03  0.48956541357E+03  0.17308105107E+03 0.  0.
        -24    2    5    5    0    0  0.49139482668E+02 -0.14045712810E+03  0.15124530737E+03  0.22683656739E+03  0.80229618700E+02 0.  0.
          5    1    3    3  501    0 -0.28168608952E+02  0.15918242609E+03  0.13700368014E+03  0.21195427261E+03  0.47000000000E+01 0. -1.
        -11    1    4    4    0    0  0.46416016171E+02  0.12632824099E+03  0.20446263183E+03  0.24478202313E+03  0.00000000000E+00 0.  1.
         12    1    4    4    0    0  0.87032627009E+01  0.49394966851E+01  0.96118553769E+02  0.96638096979E+02  0.00000000000E+00 0. -1.
         -5    1    5    5    0  502 -0.76090152588E+02 -0.14999303568E+03  0.20178388077E+03  0.26272884618E+03  0.47000000000E+01 0.  1.
         11    1    6    6    0    0  0.40585396534E+02 -0.14995307572E+03  0.13267539456E+03  0.20429356243E+03  0.00000000000E+00 0. -1.
        -12    1    6    6    0    0  0.85540861342E+01  0.94959476266E+01  0.18569912809E+02  0.22543004961E+02  0.00000000000E+00 0.  1.
</event>
<event>
12    1  0.8461994E-002  0.2066646E+03  0.7818608E-02  0.1144286E+00
         21   -1    0    0  501  502  0.00000000000E+00  0.00000000000E+00  0.23801626374E+04  0.23801626374E+04  0.00000000000E+00 0.  1.
         21   -1    0    0  502  503 -0.00000000000E+00 -0.00000000000E+00 -0.75975436289E+02  0.75975436289E+02  0.00000000000E+00 0. -1.
         -6    2    1    2    0  503  0.11168467315E+03  0.27189323899E+02  0.78767473228E+02  0.22116639313E+03  0.17174845869E+03 0.  0.
        -24    2    3    3    0    0  0.96096325407E+02 -0.42636779551E+02  0.33482544556E+02  0.13636370407E+03  0.80134763178E+02 0.  0.
          6    2    1    2  501    0 -0.11168467315E+03 -0.27189323899E+02  0.22254197279E+04  0.22349716806E+04  0.17144305785E+03 0.  0.
         24    2    5    5    0    0 -0.13171776208E+03  0.58674179882E+01  0.13615419925E+04  0.13702168572E+04  0.79458435395E+02 0.  0.
          5    1    5    5  501    0  0.20033088935E+02 -0.33056741887E+02  0.86387773545E+03  0.86475482343E+03  0.47000000000E+01 0. -1.
        -13    1    6    6    0    0 -0.33236546407E+02  0.28974236946E+02  0.65345495014E+03  0.65494087236E+03  0.00000000000E+00 0.  1.
         14    1    6    6    0    0 -0.98481215678E+02 -0.23106818958E+02  0.70808704234E+03  0.71527598481E+03  0.00000000000E+00 0. -1.
         -5    1    3    3    0  503  0.15588347743E+02  0.69826103449E+02  0.45284928672E+02  0.84802689068E+02  0.47000000000E+01 0.  1.
         13    1    4    4    0    0  0.70696793747E+02  0.81772988336E+01  0.35476201402E+02  0.79520222134E+02  0.00000000000E+00 0. -1.
        -14    1    4    4    0    0  0.25399531660E+02 -0.50814078384E+02 -0.19936568463E+01  0.56843481932E+02  0.00000000000E+00 0.  1.
</event>
<event>
12    1  0.8461994E-002  0.1924794E+03  0.7818608E-02  0.1157194E+00
         21   -1    0    0  501  502  0.00000000000E+00  0.00000000000E+00  0.10610196190E+03  0.10610196190E+03  0.00000000000E+00 0.  1.
         21   -1    0    0  502  503 -0.00000000000E+00 -0.00000000000E+00 -0.46840726602E+03  0.46840726602E+03  0.00000000000E+00 0.  1.
         -6    2    1    2    0  503  0.45760968666E+02 -0.64354002354E+02 -0.32917591687E+03  0.37919953182E+03  0.17088006559E+03 0.  0.
        -24    2    3    3    0    0  0.93092981132E+01 -0.92996325781E+02 -0.14893448138E+03  0.19303247769E+03  0.79655998265E+02 0.  0.
          6    2    1    2  501    0 -0.45760968666E+02  0.64354002354E+02 -0.33129387247E+02  0.19530969610E+03  0.17553580039E+03 0.  0.
         24    2    5    5    0    0 -0.51053858009E+02 -0.15108107172E+02  0.22180848488E+02  0.98234705987E+02  0.79519281315E+02 0.  0.
          5    1    5    5  501    0  0.52928893438E+01  0.79462109526E+02 -0.55310235735E+02  0.97074990110E+02  0.47000000000E+01 0. -1.
        -13    1    6    6    0    0 -0.10062583282E+02  0.25936702709E+02  0.28567760302E+02  0.39875870629E+02  0.00000000000E+00 0.  1.
         14    1    6    6    0    0 -0.40991274727E+02 -0.41044809881E+02 -0.63869118141E+01  0.58358835359E+02  0.00000000000E+00 0. -1.
         -5    1    3    3    0  503  0.36451670552E+02  0.28642323427E+02 -0.18024143548E+03  0.18616705413E+03  0.47000000000E+01 0.  1.
         13    1    4    4    0    0  0.10606924903E+02 -0.48346724714E+02 -0.14809034343E+02  0.51664495978E+02  0.00000000000E+00 0. -1.
        -14    1    4    4    0    0 -0.12976267894E+01 -0.44649601067E+02 -0.13412544704E+03  0.14136798172E+03  0.00000000000E+00 0.  1.
</event>
<event>
12    1  0.8461994E-002  0.2615341E+03  0.7818608E-02  0.1106309E+00
         21   -1    0    0  503  502  0.00000000000E+00  0.00000000000E+00  0.55241959292E+03  0.55241959292E+03  0.00000000000E+00 0. -1.
         21   -1    0    0  501  503 -0.00000000000E+00 -0.00000000000E+00 -0.52084920593E+03  0.52084920593E+03  0.00000000000E+00 0.  1.
          6    2    1    2  501    0 -0.30922634540E+02 -0.19560605548E+03 -0.45289527052E+03  0.52298586537E+03  0.17082784040E+03 0.  0.
         24    2    3    3    0    0 -0.76163362024E+02 -0.83618676724E+02 -0.28049203116E+03  0.31243215877E+03  0.78390901751E+02 0.  0.
         -6    2    1    2    0  502  0.30922634540E+02  0.19560605548E+03  0.48446565751E+03  0.55028293348E+03  0.16995998148E+03 0.  0.
        -24    2    5    5    0    0  0.44698677957E+02  0.47101178513E+02  0.28013207927E+03  0.29726558417E+03  0.75341574621E+02 0.  0.
          5    1    3    3  501    0  0.45240727484E+02 -0.11198737876E+03 -0.17240323936E+03  0.21055370660E+03  0.47000000000E+01 0. -1.
        -11    1    4    4    0    0 -0.18301189578E+02 -0.35495879029E+02 -0.27512500993E+02  0.48495656289E+02  0.00000000000E+00 0.  1.
         12    1    4    4    0    0 -0.57862172445E+02 -0.48122797695E+02 -0.25297953017E+03  0.26393650248E+03  0.00000000000E+00 0. -1.
         -5    1    5    5    0  502 -0.13776043418E+02  0.14850487697E+03  0.20433357824E+03  0.25301734931E+03  0.47000000000E+01 0.  1.
         13    1    6    6    0    0  0.10871624703E+02  0.41792467228E+02  0.24279287168E+03  0.24660328684E+03  0.00000000000E+00 0. -1.
        -14    1    6    6    0    0  0.33827053254E+02  0.53087112847E+01  0.37339207591E+02  0.50662297332E+02  0.00000000000E+00 0.  1.
</event>
<event>
12    1  0.8461994E-002  0.1806938E+03  0.7818608E-02  0.1167586E+00
         21   -1    0    0  503  502  0.00000000000E+00  0.00000000000E+00  0.46861536924E+02  0.46861536924E+02  0.00000000000E+00 0. -1.
         21   -1    0    0  501  503 -0.00000000000E+00 -0.00000000000E+00 -0.69016645331E+03  0.69016645331E+03  0.00000000000E+00 0. -1.
          6    2    1    2  501    0 -0.83097757656E+01  0.48571193645E+02 -0.30888372074E+03  0.35691248190E+03  0.17189867241E+03 0.  0.
         24    2    3    3    0    0 -0.25076719996E+01  0.15424206767E+02 -0.42458883241E+02  0.88329773631E+02  0.75863018463E+02 0.  0.
         -6    2    1    2    0  502  0.83097757656E+01 -0.48571193645E+02 -0.33442119565E+03  0.38011550833E+03  0.17384490315E+03 0.  0.
        -24    2    5    5    0    0  0.72548179183E+02 -0.30702067203E+02 -0.23648532941E+03  0.26154315890E+03  0.79206424669E+02 0.  0.
          5    1    3    3  501    0 -0.58021037660E+01  0.33146986878E+02 -0.26642483750E+03  0.26858270827E+03  0.47000000000E+01 0. -1.
        -13    1    4    4    0    0 -0.26969962628E+02  0.51690782926E+01 -0.53075779408E+02  0.59758987729E+02  0.00000000000E+00 0.  1.
         14    1    4    4    0    0  0.24462290629E+02  0.10255128474E+02  0.10616896167E+02  0.28570785902E+02  0.00000000000E+00 0. -1.
         -5    1    5    5    0  502 -0.64238403418E+02 -0.17869126442E+02 -0.97935866240E+02  0.11857234943E+03  0.47000000000E+01 0.  1.
         11    1    6    6    0    0  0.29731337163E+02 -0.50170433484E+02 -0.86238934029E+02  0.10410657303E+03  0.00000000000E+00 0. -1.
        -12    1    6    6    0    0  0.42816842020E+02  0.19468366281E+02 -0.15024639538E+03  0.15743658587E+03  0.00000000000E+00 0.  1.
</event>
<event>
12    1  0.8461994E-002  0.2097436E+03  0.7818608E-02  0.1143081E+00
         21   -1    0    0  503  502  0.00000000000E+00  0.00000000000E+00  0.14002669568E+03  0.14002669568E+03  0.00000000000E+00 0. -1.
         21   -1    0    0  501  503 -0.00000000000E+00 -0.00000000000E+00 -0.31919142064E+03  0.31919142064E+03  0.00000000000E+00 0.  1.
          6    2    1    2  501    0  0.33259087312E+02  0.98648467317E+02 -0.14017758487E+03  0.25227388918E+03  0.18208424662E+03 0.  0.
         24    2    3    3    0    0  0.85182290323E+02  0.40142948135E+02 -0.11989300890E+03  0.17132656798E+03  0.78172760248E+02 0.  0.
         -6    2    1    2    0  502 -0.33259087312E+02 -0.98648467317E+02 -0.38987140085E+02  0.20694422715E+03  0.17455150834E+03 0.  0.
        -24    2    5    5    0    0 -0.38280078492E+02 -0.95878686655E+02  0.33669518227E+02  0.13391024852E+03  0.78359627595E+02 0.  0.
          5    1    3    3  501    0 -0.51923203011E+02  0.58505519181E+02 -0.20284575976E+02  0.80947321192E+02  0.47000000000E+01 0. -1.
        -11    1    4    4    0    0  0.15349701294E+02 -0.17706319256E+02 -0.55099519665E+02  0.59875572137E+02  0.00000000000E+00 0.  1.
         12    1    4    4    0    0  0.69832589029E+02  0.57849267392E+02 -0.64793489233E+02  0.11145099585E+03  0.00000000000E+00 0. -1.
         -5    1    5    5    0  502  0.50209911806E+01 -0.27697806621E+01 -0.72656658312E+02  0.73033978629E+02  0.47000000000E+01 0.  1.
         13    1    6    6    0    0  0.15989970394E+02 -0.50698749419E+02 -0.50095634000E+01  0.53396049211E+02  0.00000000000E+00 0. -1.
        -14    1    6    6    0    0 -0.54270048886E+02 -0.45179937235E+02  0.38679081627E+02  0.80514199308E+02  0.00000000000E+00 0.  1.
</event>
<event>
12    1  0.8461994E-002  0.1739811E+03  0.7818608E-02  0.1174295E+00
         21   -1    0    0  501  502  0.00000000000E+00  0.00000000000E+00  0.51303995933E+02  0.51303995933E+02  0.00000000000E+00 0. -1.
         21   -1    0    0  502  503 -0.00000000000E+00 -0.00000000000E+00 -0.59144544068E+03  0.59144544068E+03  0.00000000000E+00 0. -1.
         -6    2    1    2    0  503 -0.63010197234E+01 -0.19649440934E+02 -0.31037728012E+03  0.35581384573E+03  0.17275309958E+03 0.  0.
        -24    2    3    3    0    0 -0.32994640279E+02  0.45763095600E+02 -0.22305675761E+03  0.24339359414E+03  0.79392804128E+02 0.  0.
          6    2    1    2  501    0  0.63010197234E+01  0.19649440934E+02 -0.22976416463E+03  0.28693559089E+03  0.17063018079E+03 0.  0.
         24    2    5    5    0    0  0.58072411413E+02  0.47548384961E+02 -0.11954387959E+03  0.16191867480E+03  0.79332617644E+02 0.  0.
          5    1    5    5  501    0 -0.51771391690E+02 -0.27898944027E+02 -0.11022028504E+03  0.12501691609E+03  0.47000000000E+01 0. -1.
        -11    1    6    6    0    0  0.50805371130E+02  0.28354788025E+02 -0.12731010486E+03  0.13997514972E+03  0.00000000000E+00 0.  1.
         12    1    6    6    0    0  0.72670402832E+01  0.19193596936E+02  0.77662252744E+01  0.21943525078E+02  0.00000000000E+00 0. -1.
         -5    1    3    3    0  503  0.26693620556E+02 -0.65412536534E+02 -0.87320522516E+02  0.11242025159E+03  0.47000000000E+01 0.  1.
         11    1    4    4    0    0 -0.29691246977E+02  0.16764817710E+02 -0.22792398910E+02  0.41013689275E+02  0.00000000000E+00 0. -1.
        -12    1    4    4    0    0 -0.33033933019E+01  0.28998277890E+02 -0.20026435870E+03  0.20237990486E+03  0.00000000000E+00 0.  1.
</event>
<event>
12    1  0.8461994E-002  0.2149703E+03  0.7818608E-02  0.1137710E+00
         21   -1    0    0  503  502  0.00000000000E+00  0.00000000000E+00  0.10469968252E+03  0.10469968252E+03  0.00000000000E+00 0. -1.
         21   -1    0    0  501  503 -0.00000000000E+00 -0.00000000000E+00 -0.45861253611E+03  0.45861253611E+03  0.00000000000E+00 0.  1.
          6    2    1    2  501    0  0.11309997922E+03 -0.60775626822E+02 -0.12204964350E+03  0.24720100253E+03  0.17241501692E+03 0.  0.
         24    2    3    3    0    0  0.30386932456E+02  0.70605067762E+01  0.27999700200E+00  0.84628495413E+02  0.78668210972E+02 0.  0.
         -6    2    1    2    0  502 -0.11309997922E+03  0.60775626822E+02 -0.23186321009E+03  0.31611121610E+03  0.17228020965E+03 0.  0.
        -24    2    5    5    0    0 -0.37242579376E+02 -0.29483059177E+02 -0.62876038405E+02  0.11000510338E+03  0.76755886200E+02 0.  0.
          5    1    3    3  501    0  0.82713046761E+02 -0.67836133598E+02 -0.12232964050E+03  0.16257250712E+03  0.47000000000E+01 0. -1.
        -11    1    4    4    0    0  0.51097230109E+02  0.25311963881E+02  0.12651937498E+00  0.57023139579E+02  0.00000000000E+00 0.  1.
         12    1    4    4    0    0 -0.20710297653E+02 -0.18251457105E+02  0.15347762702E+00  0.27605355834E+02  0.00000000000E+00 0. -1.
         -5    1    5    5    0  502 -0.75857399840E+02  0.90258685999E+02 -0.16898717168E+03  0.20610611272E+03  0.47000000000E+01 0.  1.
         11    1    6    6    0    0 -0.55367246873E+02 -0.20361062400E+02 -0.19523604771E+02  0.62139166647E+02  0.00000000000E+00 0. -1.
        -12    1    6    6    0    0  0.18124667496E+02 -0.91219967766E+01 -0.43352433633E+02  0.47865936730E+02  0.00000000000E+00 0.  1.
</event>
<event>
12    1  0.8461994E-002  0.3048680E+03  0.7818608E-02  0.1082878E+00
         21   -1    0    0  503  502  0.00000000000E+00  0.00000000000E+00  0.35320529870E+03  0.35320529870E+03  0.00000000000E+00 0.  1.
         21   -1    0    0  501  503 -0.00000000000E+00 -0.00000000000E+00 -0.41410648892E+03  0.41410648892E+03  0.00000000000E+00 0. -1.
          6    2    1    2  501    0  0.10713755704E+03 -0.22743664051E+03 -0.26235088085E+03  0.40220953729E+03  0.17244896529E+03 0.  0.
         24    2    3    3    0    0  0.13651917101E+03 -0.14696157585E+03 -0.14745430086E+03  0.25881208485E+03  0.70751223268E+02 0.  0.
         -6    2    1    2    0  502 -0.10713755704E+03  0.22743664051E+03  0.20144969064E+03  0.36510225033E+03  0.17178996990E+03 0.  0.
        -24    2    5    5    0    0 -0.39779430079E+02  0.20154316536E+03  0.19119732114E+03  0.29206260080E+03  0.80883228246E+02 0.  0.
          5    1    3    3  501    0 -0.29381613973E+02 -0.80475064660E+02 -0.11489657999E+03  0.14339745244E+03  0.47000000000E+01 0. -1.
        -13    1    4    4    0    0  0.41264852849E+02 -0.56470018899E+01 -0.37139054645E+02  0.55803101087E+02  0.00000000000E+00 0.  1.
         14    1    4    4    0    0  0.95254318162E+02 -0.14131457396E+03 -0.11031524621E+03  0.20300898377E+03  0.00000000000E+00 0. -1.
         -5    1    5    5    0  502 -0.67358126959E+02  0.25893475148E+02  0.10252369496E+02  0.73039649526E+02  0.47000000000E+01 0.  1.
         13    1    6    6    0    0 -0.25963502147E+02  0.18043883997E+03  0.12449911421E+03  0.22075395319E+03  0.00000000000E+00 0. -1.
        -14    1    6    6    0    0 -0.13815927932E+02  0.21104325399E+02  0.66698206936E+02  0.71308647608E+02  0.00000000000E+00 0.  1.
</event>
<event>
12    1  0.8461994E-002  0.1967229E+03  0.7818608E-02  0.1152966E+00
         21   -1    0    0  503  502  0.00000000000E+00  0.00000000000E+00  0.78015513162E+02  0.78015513162E+02  0.00000000000E+00 0.  1.
         21   -1    0    0  501  503 -0.00000000000E+00 -0.00000000000E+00 -0.65273837187E+03  0.65273837187E+03  0.00000000000E+00 0.  1.
          6    2    1    2  501    0 -0.82951013831E+02 -0.43596581943E+02 -0.46811302985E+03  0.50700055080E+03  0.17069920076E+03 0.  0.
         24    2    3    3    0    0 -0.65523059147E+02 -0.92917401082E+02 -0.30227596094E+03  0.33304567093E+03  0.81374121559E+02 0.  0.
         -6    2    1    2    0  502  0.82951013831E+02  0.43596581943E+02 -0.10660982885E+03  0.22375333423E+03  0.17296926408E+03 0.  0.
        -24    2    5    5    0    0  0.25601780435E+02 -0.17604739364E+02 -0.97921129394E+02  0.13930145563E+03  0.94079593690E+02 0.  0.
          5    1    3    3  501    0 -0.17427954684E+02  0.49320819139E+02 -0.16583706891E+03  0.17395487987E+03  0.47000000000E+01 0. -1.
        -13    1    4    4    0    0 -0.14331826162E+01 -0.62036417514E+02 -0.91245613149E+02  0.11034642282E+03  0.00000000000E+00 0.  1.
         14    1    4    4    0    0 -0.64089876531E+02 -0.30880983568E+02 -0.21103034779E+03  0.22269924811E+03  0.00000000000E+00 0. -1.
         -5    1    5    5    0  502  0.57349233396E+02  0.61201321307E+02 -0.86886994586E+01  0.84451878600E+02  0.47000000000E+01 0.  1.
         11    1    6    6    0    0  0.42033821125E+02 -0.48350063542E+02 -0.59715301825E+02  0.87581322409E+02  0.00000000000E+00 0. -1.
        -12    1    6    6    0    0 -0.16432040690E+02  0.30745324177E+02 -0.38205827570E+02  0.51720133220E+02  0.00000000000E+00 0.  1.
</event>
<event>
12    1  0.8461994E-002  0.1801550E+03  0.7818608E-02  0.1169409E+00
         21   -1    0    0  501  502  0.00000000000E+00  0.00000000000E+00  0.57751157908E+02  0.57751157908E+02  0.00000000000E+00 0. -1.
         21   -1    0    0  502  503 -0.00000000000E+00 -0.00000000000E+00 -0.74062532134E+03  0.74062532134E+03  0.00000000000E+00 0. -1.
         -6    2    1    2    0  503 -0.13276243480E+02 -0.64188073570E+01 -0.54414345835E+03  0.57099565570E+03  0.17241367647E+03 0.  0.
        -24    2    3    3    0    0  0.34124376420E+02  0.41995055812E+02 -0.40263690157E+03  0.41403414282E+03  0.79873269220E+02 0.  0.
          6    2    1    2  501    0  0.13276243480E+02  0.64188073570E+01 -0.13873070509E+03  0.22738082355E+03  0.17955046827E+03 0.  0.
         24    2    5    5    0    0 -0.24508503492E+02  0.19486113511E+02  0.31329073531E+01  0.79916196851E+02  0.73460248076E+02 0.  0.
          5    1    5    5  501    0  0.37784746972E+02 -0.13067306154E+02 -0.14186361244E+03  0.14746462670E+03  0.47000000000E+01 0. -1.
        -11    1    6    6    0    0 -0.18537037089E+02 -0.45367726332E+01 -0.31808905857E+02  0.37094616076E+02  0.00000000000E+00 0.  1.
         12    1    6    6    0    0 -0.59714664029E+01  0.24022886144E+02  0.34941813210E+02  0.42821580775E+02  0.00000000000E+00 0. -1.
         -5    1    3    3    0  503 -0.47400619900E+02 -0.48413863169E+02 -0.14150655678E+03  0.15696151288E+03  0.47000000000E+01 0.  1.
         11    1    4    4    0    0  0.44194153115E+00 -0.62659234620E+01 -0.25530949276E+03  0.25538675417E+03  0.00000000000E+00 0. -1.
        -12    1    4    4    0    0  0.33682434889E+02  0.48260979274E+02 -0.14732740881E+03  0.15864738865E+03  0.00000000000E+00 0.  1.
</event>
<event>
12    1  0.8461994E-002  0.2736799E+03  0.7818608E-02  0.1099500E+00
         21   -1    0    0  501  502  0.00000000000E+00  0.00000000000E+00  0.60719583880E+03  0.60719583880E+03  0.00000000000E+00 0. -1.
         21   -1    0    0  502  503 -0.00000000000E+00 -0.00000000000E+00 -0.43472764048E+03  0.43472764048E+03  0.00000000000E+00 0. -1.
         -6    2    1    2    0  503 -0.91660244420E+02 -0.19013663133E+03 -0.35545379419E+03  0.44727877219E+03  0.17075526716E+03 0.  0.
        -24    2    3    3    0    0 -0.10091896831E+02 -0.11457294161E+03 -0.27964376757E+03  0.31262173870E+03  0.79390864923E+02 0.  0.
          6    2    1    2  501    0  0.91660244420E+02  0.19013663133E+03  0.52792199252E+03  0.59464470709E+03  0.17420435845E+03 0.  0.
         24    2    5    5    0    0  0.13016948187E+02  0.47740575709E+02  0.10175689553E+03  0.13846471565E+03  0.79808572113E+02 0.  0.
          5    1    5    5  501    0  0.78643296233E+02  0.14239605562E+03  0.42616509699E+03  0.45617999144E+03  0.47000000000E+01 0. -1.
        -13    1    6    6    0    0  0.40539271311E+02  0.24871967815E+02  0.24897323715E+02  0.53683554554E+02  0.00000000000E+00 0.  1.
         14    1    6    6    0    0 -0.27522323124E+02  0.22868607894E+02  0.76859571810E+02  0.84781161091E+02  0.00000000000E+00 0. -1.
         -5    1    3    3    0  503 -0.81568347589E+02 -0.75563689714E+02 -0.75810026618E+02  0.13465703349E+03  0.47000000000E+01 0.  1.
         11    1    4    4    0    0  0.16025211994E+02 -0.11115695287E+03 -0.20964279351E+03  0.23782930110E+03  0.00000000000E+00 0. -1.
        -12    1    4    4    0    0 -0.26117108825E+02 -0.34159887469E+01 -0.70000974066E+02  0.74792437604E+02  0.00000000000E+00 0.  1.
</event>
<event>
12    1  0.8461994E-002  0.1742861E+03  0.7818608E-02  0.1173536E+00
         21   -1    0    0  503  502  0.00000000000E+00  0.00000000000E+00  0.83285041102E+02  0.83285041102E+02  0.00000000000E+00 0. -1.
         21   -1    0    0  501  503 -0.00000000000E+00 -0.00000000000E+00 -0.40985365855E+03  0.40985365855E+03  0.00000000000E+00 0. -1.
          6    2    1    2  501    0 -0.28996991850E+02 -0.53710064741E+01 -0.24588472082E+03  0.30138832780E+03  0.17177297505E+03 0.  0.
         24    2    3    3    0    0 -0.66470489664E+02  0.32779846567E+02 -0.10461890453E+03  0.15026628614E+03  0.78370895282E+02 0.  0.
         -6    2    1    2    0  502  0.28996991850E+02  0.53710064741E+01 -0.80683896633E+02  0.19175037185E+03  0.17143115435E+03 0.  0.
        -24    2    5    5    0    0  0.29339447716E+02 -0.12884207164E+02  0.21337359198E+02  0.88001652619E+02  0.79134075970E+02 0.  0.
          5    1    3    3  501    0  0.37473497815E+02 -0.38150853041E+02 -0.14126581629E+03  0.15112204166E+03  0.47000000000E+01 0. -1.
        -11    1    4    4    0    0 -0.43636689491E+01 -0.23554913541E+02 -0.25345460185E+02  0.34875032768E+02  0.00000000000E+00 0.  1.
         12    1    4    4    0    0 -0.62106820715E+02  0.56334760108E+02 -0.79273444348E+02  0.11539125337E+03  0.00000000000E+00 0. -1.
         -5    1    5    5    0  502 -0.34245586616E+00  0.18255213638E+02 -0.10202125583E+03  0.10374871923E+03  0.47000000000E+01 0.  1.
         11    1    6    6    0    0  0.13754131907E+02 -0.29125054928E+02 -0.22111241219E+02  0.39068554585E+02  0.00000000000E+00 0. -1.
        -12    1    6    6    0    0  0.15585315809E+02  0.16240847765E+02  0.43448600417E+02  0.48933098034E+02  0.00000000000E+00 0.  1.
</event>
<event>
12    1  0.8461994E-002  0.1820999E+03  0.7818608E-02  0.1165892E+00
         21   -1    0    0  501  502  0.00000000000E+00  0.00000000000E+00  0.10391199303E+03  0.10391199303E+03  0.00000000000E+00 0. -1.
         21   -1    0    0  502  503 -0.00000000000E+00 -0.00000000000E+00 -0.32055059422E+03  0.32055059422E+03  0.00000000000E+00 0. -1.
         -6    2    1    2    0  503  0.47569080622E+02  0.36720125023E+02 -0.90838557364E+02  0.20349940989E+03  0.17189875307E+03 0.  0.
        -24    2    3    3    0    0  0.74940431065E+02  0.72351034448E+02 -0.83850073588E+02  0.15778637633E+03  0.83755389798E+02 0.  0.
          6    2    1    2  501    0 -0.47569080622E+02 -0.36720125023E+02 -0.12580004382E+03  0.22096317737E+03  0.17142896405E+03 0.  0.
         24    2    5    5    0    0 -0.38872613071E+02 -0.87651733807E+02 -0.81148182242E+02  0.15251220174E+03  0.86492992277E+02 0.  0.
          5    1    5    5  501    0 -0.86964675513E+01  0.50931608785E+02 -0.44651861580E+02  0.68450975624E+02  0.47000000000E+01 0. -1.
        -13    1    6    6    0    0 -0.42884196164E+02 -0.44519222083E+02 -0.14841339864E+01  0.61832176649E+02  0.00000000000E+00 0.  1.
         14    1    6    6    0    0  0.40115830936E+01 -0.43132511725E+02 -0.79664048256E+02  0.90680025094E+02  0.00000000000E+00 0. -1.
         -5    1    3    3    0  503 -0.27371350443E+02 -0.35630909426E+02 -0.69884837761E+01  0.45713033558E+02  0.47000000000E+01 0.  1.
         11    1    4    4    0    0  0.28447281973E+02 -0.15630290498E+02 -0.10329474420E+02  0.34062470176E+02  0.00000000000E+00 0. -1.
        -12    1    4    4    0    0  0.46493149093E+02  0.87981324946E+02 -0.73520599168E+02  0.12372390615E+03  0.00000000000E+00 0.  1.
</event>
<event>
12    1  0.8461994E-002  0.2367067E+03  0.7818608E-02  0.1122156E+00
         21   -1    0    0  503  502  0.00000000000E+00  0.00000000000E+00  0.14421776954E+03  0.14421776954E+03  0.00000000000E+00 0.  1.
         21   -1    0    0  501  503 -0.00000000000E+00 -0.00000000000E+00 -0.59252029672E+03  0.59252029672E+03  0.00000000000E+00 0. -1.
          6    2    1    2  501    0  0.52114171361E+02 -0.15259335949E+03 -0.69611171688E+01  0.23592640523E+03  0.17208193198E+03 0.  0.
         24    2    3    3    0    0  0.59367543630E+02 -0.15640272906E+03  0.42951122036E+02  0.18512833117E+03  0.66643688544E+02 0.  0.
         -6    2    1    2    0  502 -0.52114171361E+02  0.15259335949E+03 -0.44134141002E+03  0.50081166103E+03  0.17329010189E+03 0.  0.
        -24    2    5    5    0    0 -0.75778186241E+02  0.16300186206E+03 -0.32532029315E+03  0.38185237352E+03  0.87555705031E+02 0.  0.
          5    1    3    3  501    0 -0.72533722696E+01  0.38093695708E+01 -0.49912239205E+02  0.50798074060E+02  0.47000000000E+01 0. -1.
        -13    1    4    4    0    0  0.63240367809E+02 -0.10824993962E+03  0.82340653592E+01  0.12563913953E+03  0.00000000000E+00 0.  1.
         14    1    4    4    0    0 -0.38728241786E+01 -0.48152789438E+02  0.34717056677E+02  0.59489191641E+02  0.00000000000E+00 0. -1.
         -5    1    5    5    0  502  0.23664014881E+02 -0.10408502567E+02 -0.11602111687E+03  0.11895928751E+03  0.47000000000E+01 0.  1.
         11    1    6    6    0    0 -0.43750354321E+01  0.24987392831E+02 -0.12903025291E+03  0.13150025438E+03  0.00000000000E+00 0. -1.
        -12    1    6    6    0    0 -0.71403150809E+02  0.13801446923E+03 -0.19629004024E+03  0.25035211914E+03  0.00000000000E+00 0.  1.
</event>
<event>
12    1  0.8461994E-002  0.3101881E+03  0.7818608E-02  0.1080482E+00
         21   -1    0    0  501  502  0.00000000000E+00  0.00000000000E+00  0.23535096771E+03  0.23535096771E+03  0.00000000000E+00 0. -1.
         21   -1    0    0  502  503 -0.00000000000E+00 -0.00000000000E+00 -0.11274488194E+04  0.11274488194E+04  0.00000000000E+00 0.  1.
         -6    2    1    2    0  503  0.24043515855E+03  0.93262216850E+02 -0.99050459094E+03  0.10373761687E+04  0.16894692697E+03 0.  0.
        -24    2    3    3    0    0  0.19149229913E+03  0.61032515192E+02 -0.49023192015E+03  0.53366097903E+03  0.63815644349E+02 0.  0.
          6    2    1    2  501    0 -0.24043515855E+03 -0.93262216850E+02  0.98406739271E+02  0.32542361839E+03  0.17236513138E+03 0.  0.
         24    2    5    5    0    0 -0.81319510338E+02 -0.54602259545E+01  0.85168081577E+02  0.14314819172E+03  0.81210380158E+02 0.  0.
          5    1    5    5  501    0 -0.15911564821E+03 -0.87801990895E+02  0.13238657694E+02  0.18227542667E+03  0.47000000000E+01 0. -1.
        -11    1    6    6    0    0 -0.45242292533E+01  0.76234200204E+01 -0.14287896216E+02  0.16814552073E+02  0.00000000000E+00 0.  1.
         12    1    6    6    0    0 -0.76795281085E+02 -0.13083645975E+02  0.99455977792E+02  0.12633363965E+03  0.00000000000E+00 0. -1.
         -5    1    3    3    0  503  0.48942859413E+02  0.32229701658E+02 -0.50027267079E+03  0.50371518966E+03  0.47000000000E+01 0.  1.
         13    1    4    4    0    0  0.15791815722E+03  0.69504259240E+02 -0.44029080115E+03  0.47289002528E+03  0.00000000000E+00 0. -1.
        -14    1    4    4    0    0  0.33574141910E+02 -0.84717440473E+01 -0.49941119003E+02  0.60770953748E+02  0.00000000000E+00 0.  1.
</event>
<event>
12    1  0.8461994E-002  0.1841968E+03  0.7818608E-02  0.1164089E+00
         21   -1    0    0  501  502  0.00000000000E+00  0.00000000000E+00  0.10862799081E+03  0.10862799081E+03  0.00000000000E+00 0. -1.
         21   -1    0    0  502  503 -0.00000000000E+00 -0.00000000000E+00 -0.33079918972E+03  0.33079918972E+03  0.00000000000E+00 0. -1.
         -6    2    1    2    0  503  0.26605488125E+01 -0.63579798825E+02 -0.16546661601E+03  0.24669972384E+03  0.17155781355E+03 0.  0.
        -24    2    3    3    0    0  0.13565157516E+02  0.13778899159E+02 -0.26471073688E+02  0.87184428550E+02  0.80786974686E+02 0.  0.
          6    2    1    2  501    0 -0.26605488125E+01  0.63579798825E+02 -0.56704582895E+02  0.19272745669E+03  0.17285541213E+03 0.  0.
         24    2    5    5    0    0 -0.66268124591E+02  0.21204487495E+02 -0.24735791443E+02  0.10974743299E+03  0.81188330704E+02 0.  0.
          5    1    5    5  501    0  0.63607575779E+02  0.42375311329E+02 -0.31968791453E+02  0.82980023702E+02  0.47000000000E+01 0. -1.
        -13    1    6    6    0    0 -0.25007946289E+02  0.47784250888E+02 -0.27597936189E+02  0.60583645420E+02  0.00000000000E+00 0.  1.
         14    1    6    6    0    0 -0.41260178302E+02 -0.26579763392E+02  0.28621447460E+01  0.49163787568E+02  0.00000000000E+00 0. -1.
         -5    1    3    3    0  503 -0.10904608703E+02 -0.77358697984E+02 -0.13899554233E+03  0.15951529529E+03  0.47000000000E+01 0.  1.
         11    1    4    4    0    0 -0.28199555466E+02 -0.94856578417E+01 -0.25787330594E+02  0.39372313271E+02  0.00000000000E+00 0. -1.
        -12    1    4    4    0    0  0.41764712981E+02  0.23264557000E+02 -0.68374309470E+00  0.47812115279E+02  0.00000000000E+00 0.  1.
</event>
<event>
12    1  0.8461994E-002  0.1846026E+03  0.7818608E-02  0.1165255E+00
         21   -1    0    0  503  502  0.00000000000E+00  0.00000000000E+00  0.11931626695E+03  0.11931626695E+03  0.00000000000E+00 0.  1.
         21   -1    0    0  501  503 -0.00000000000E+00 -0.00000000000E+00 -0.42193741733E+03  0.42193741733E+03  0.00000000000E+00 0.  1.
          6    2    1    2  501    0  0.30511437876E+02  0.14261403944E+02 -0.30951213409E+03  0.35652255767E+03  0.17371308958E+03 0.  0.
         24    2    3    3    0    0  0.52340247456E+02  0.24689600491E+02 -0.31711846418E+03  0.33073127099E+03  0.73959282121E+02 0.  0.
         -6    2    1    2    0  502 -0.30511437876E+02 -0.14261403944E+02  0.68909837118E+01  0.18473112662E+03  0.18150418177E+03 0.  0.
        -24    2    5    5    0    0  0.45652827604E+02 -0.13003215941E+02 -0.17392742479E+02  0.10464137864E+03  0.91619028264E+02 0.  0.
          5    1    3    3  501    0 -0.21828809579E+02 -0.10428196548E+02  0.76063300884E+01  0.25791286674E+02  0.47000000000E+01 0. -1.
        -11    1    4    4    0    0  0.46322878011E+02 -0.90909186146E+01 -0.96136007749E+02  0.10710082079E+03  0.00000000000E+00 0.  1.
         12    1    4    4    0    0  0.60173694446E+01  0.33780519106E+02 -0.22098245643E+03  0.22363045020E+03  0.00000000000E+00 0. -1.
         -5    1    5    5    0  502 -0.76164265481E+02 -0.12581880030E+01  0.24283726191E+02  0.80089747977E+02  0.47000000000E+01 0.  1.
         11    1    6    6    0    0  0.52224584511E+02  0.28666499625E+02 -0.15971625403E+01  0.59596361938E+02  0.00000000000E+00 0. -1.
        -12    1    6    6    0    0 -0.65717569066E+01 -0.41669715566E+02 -0.15795579939E+02  0.45045016703E+02  0.00000000000E+00 0.  1.
</event>
<event>
12    1  0.8461994E-002  0.1809237E+03  0.7818608E-02  0.1167473E+00
         21   -1    0    0  501  502  0.00000000000E+00  0.00000000000E+00  0.25150608929E+03  0.25150608929E+03  0.00000000000E+00 0.  1.
         21   -1    0    0  502  503 -0.00000000000E+00 -0.00000000000E+00 -0.14676343475E+03  0.14676343475E+03  0.00000000000E+00 0.  1.
         -6    2    1    2    0  503  0.43411657845E+02  0.30403344273E+02 -0.17604427090E+02  0.18177816372E+03  0.17298684798E+03 0.  0.
        -24    2    3    3    0    0  0.62209558844E+02  0.38115660950E+02  0.43831576636E+02  0.11689894159E+03  0.80133155518E+02 0.  0.
          6    2    1    2  501    0 -0.43411657845E+02 -0.30403344273E+02  0.12234708163E+03  0.21649136032E+03  0.17056015165E+03 0.  0.
         24    2    5    5    0    0  0.24761969370E+02 -0.30339182028E+02  0.11993144066E+03  0.14811319944E+03  0.77590903434E+02 0.  0.
          5    1    5    5  501    0 -0.68173627215E+02 -0.64162244967E-01  0.24156409659E+01  0.68378160883E+02  0.47000000000E+01 0. -1.
        -13    1    6    6    0    0  0.32224621508E+01  0.14193612046E+02  0.88086923925E+02  0.89281291723E+02  0.00000000000E+00 0.  1.
         14    1    6    6    0    0  0.21539507219E+02 -0.44532794074E+02  0.31844516737E+02  0.58831907716E+02  0.00000000000E+00 0. -1.
         -5    1    3    3    0  503 -0.18797900999E+02 -0.77123166773E+01 -0.61436003726E+02  0.64879222131E+02  0.47000000000E+01 0.  1.
         11    1    4    4    0    0  0.39773294757E+02 -0.11743078423E+02  0.46314987536E+02  0.62168263102E+02  0.00000000000E+00 0. -1.
        -12    1    4    4    0    0  0.22436264087E+02  0.49858739374E+02 -0.24834108995E+01  0.54730678488E+02  0.00000000000E+00 0.  1.
</event>
<event>
12    1  0.8461994E-002  0.1729213E+03  0.7818608E-02  0.1174927E+00
         21   -1    0    0  501  502  0.00000000000E+00  0.00000000000E+00  0.55049720806E+03  0.55049720806E+03  0.00000000000E+00 0. -1.
         21   -1    0    0  502  503 -0.00000000000E+00 -0.00000000000E+00 -0.83624290407E+02  0.83624290407E+02  0.00000000000E+00 0. -1.
         -6    2    1    2    0  503 -0.20577558646E+02 -0.60410346048E+01  0.45222259720E+02  0.17839017258E+03  0.17122520516E+03 0.  0.
        -24    2    3    3    0    0 -0.38632302762E+02 -0.53627148053E+02  0.68480195198E+02  0.12223473170E+03  0.76703759190E+02 0.  0.
          6    2    1    2  501    0  0.20577558646E+02  0.60410346048E+01  0.42165065793E+03  0.45573132588E+03  0.17158622916E+03 0.  0.
         24    2    5    5    0    0 -0.23010661325E+02  0.52580253486E+02  0.13961063262E+03  0.16653502975E+03  0.70346384448E+02 0.  0.
          5    1    5    5  501    0  0.43588219971E+02 -0.46539218881E+02  0.28204002532E+03  0.28919629613E+03  0.47000000000E+01 0. -1.
        -11    1    6    6    0    0  0.23166228490E+02  0.22113296065E+02  0.30624293825E+02  0.44311616734E+02  0.00000000000E+00 0.  1.
         12    1    6    6    0    0 -0.46176889815E+02  0.30466957422E+02  0.10898633879E+03  0.12222341302E+03  0.00000000000E+00 0. -1.
         -5    1    3    3    0  503  0.18054744116E+02  0.47586113448E+02 -0.23257935478E+02  0.56155440884E+02  0.47000000000E+01 0.  1.
         11    1    4    4    0    0  0.12609366736E+02 -0.33247818302E+02  0.16593872164E+01  0.35597290869E+02  0.00000000000E+00 0. -1.
        -12    1    4    4    0    0 -0.51241669498E+02 -0.20379329751E+02  0.66820807982E+02  0.86637440829E+02  0.00000000000E+00 0.  1.
</event>
<event>
12    1  0.8461994E-002  0.1865986E+03  0.7818608E-02  0.1162074E+00
         21   -1    0    0  501  502  0.00000000000E+00  0.00000000000E+00  0.59099002533E+03  0.59099002533E+03  0.00000000000E+00 0. -1.
         21   -1    0    0  502  503 -0.00000000000E+00 -0.00000000000E+00 -0.67070726534E+02  0.67070726534E+02  0.00000000000E+00 0. -1.
         -6    2    1    2    0  503  0.35001727460E+02  0.63584470708E+02  0.14382996149E+03  0.23559731537E+03  0.17190384331E+03 0.  0.
        -24    2    3    3    0    0  0.12187587447E+02  0.39061431183E+02  0.32935226750E+01  0.91048205760E+02  0.81268664236E+02 0.  0.
          6    2    1    2  501    0 -0.35001727460E+02 -0.63584470708E+02  0.38008933731E+03  0.42246343650E+03  0.16952682680E+03 0.  0.
         24    2    5    5    0    0 -0.57225765715E+02 -0.69956957971E+02  0.15731637089E+03  0.19844468497E+03  0.80393334385E+02 0.  0.
          5    1    5    5  501    0  0.22224038254E+02  0.63724872632E+01  0.22277296642E+03  0.22401875153E+03  0.47000000000E+01 0. -1.
        -11    1    6    6    0    0 -0.19502743922E+01 -0.60716399570E+02  0.10742667734E+03  0.12341302910E+03  0.00000000000E+00 0.  1.
         12    1    6    6    0    0 -0.55275491323E+02 -0.92405584015E+01  0.49889693544E+02  0.75031655869E+02  0.00000000000E+00 0. -1.
         -5    1    3    3    0  503  0.22814140014E+02  0.24523039525E+02  0.14053643882E+03  0.14454910961E+03  0.47000000000E+01 0.  1.
         13    1    4    4    0    0  0.34990610695E+02  0.52875384014E+02 -0.36122406862E+01  0.63507459044E+02  0.00000000000E+00 0. -1.
        -14    1    4    4    0    0 -0.22803023248E+02 -0.13813952831E+02  0.69057633612E+01  0.27540746716E+02  0.00000000000E+00 0.  1.
</event>
<event>
12    1  0.8461994E-002  0.2275520E+03  0.7818608E-02  0.1128511E+00
         21   -1    0    0  503  502  0.00000000000E+00  0.00000000000E+00  0.19991157721E+03  0.19991157721E+03  0.00000000000E+00 0.  1.
         21   -1    0    0  501  503 -0.00000000000E+00 -0.00000000000E+00 -0.27020556075E+03  0.27020556075E+03  0.00000000000E+00 0. -1.
          6    2    1    2  501    0  0.74769319623E+02  0.13021318632E+03 -0.84751501648E+02  0.24210627510E+03  0.16996089658E+03 0.  0.
         24    2    3    3    0    0  0.94482494197E+02  0.62741823171E+02 -0.98576272111E+02  0.17031345948E+03  0.80161804946E+02 0.  0.
         -6    2    1    2    0  502 -0.74769319623E+02 -0.13021318632E+03  0.14457518109E+02  0.22801086285E+03  0.17097955638E+03 0.  0.
        -24    2    5    5    0    0 -0.81277809498E+02 -0.19853629752E+02 -0.33755460412E+01  0.11593187132E+03  0.80178273524E+02 0.  0.
          5    1    3    3  501    0 -0.19713174574E+02  0.67471363149E+02  0.13824770463E+02  0.71792815624E+02  0.47000000000E+01 0. -1.
        -13    1    4    4    0    0  0.89010129192E+01  0.36130104933E+02 -0.16919204117E+00  0.37210766445E+02  0.00000000000E+00 0.  1.
         14    1    4    4    0    0  0.85581481278E+02  0.26611718238E+02 -0.98407080070E+02  0.13310269304E+03  0.00000000000E+00 0. -1.
         -5    1    5    5    0  502  0.65084898752E+01 -0.11035955657E+03  0.17833064151E+02  0.11207899153E+03  0.47000000000E+01 0.  1.
         11    1    6    6    0    0 -0.11636482397E+02 -0.37350576413E+02  0.14857310099E+02  0.41847496273E+02  0.00000000000E+00 0. -1.
        -12    1    6    6    0    0 -0.69641327102E+02  0.17496946661E+02 -0.18232856140E+02  0.74084375046E+02  0.00000000000E+00 0.  1.
</event>
<event>
12    1  0.8461994E-002  0.2056868E+03  0.7818608E-02  0.1145529E+00
         21   -1    0    0  503  502  0.00000000000E+00  0.00000000000E+00  0.97340610382E+03  0.97340610382E+03  0.00000000000E+00 0. -1.
         21   -1    0    0  501  503 -0.00000000000E+00 -0.00000000000E+00 -0.51198142005E+02  0.51198142005E+02  0.00000000000E+00 0. -1.
          6    2    1    2  501    0 -0.64592435358E+02 -0.90187078923E+02  0.25313572545E+03  0.32462945942E+03  0.17029591456E+03 0.  0.
         24    2    3    3    0    0 -0.68826862068E+02 -0.24080179351E+02  0.66922917973E+02  0.12692930209E+03  0.79469357608E+02 0.  0.
         -6    2    1    2    0  502  0.64592435358E+02  0.90187078923E+02  0.66907223636E+03  0.69997478640E+03  0.17320840689E+03 0.  0.
        -24    2    5    5    0    0  0.47589309650E+02  0.11728043769E+03  0.37067531816E+03  0.39983154200E+03  0.80284662421E+02 0.  0.
          5    1    3    3  501    0  0.42344267103E+01 -0.66106899572E+02  0.18621280748E+03  0.19770015734E+03  0.47000000000E+01 0. -1.
        -13    1    4    4    0    0 -0.33108366065E+02  0.25433630602E+02  0.46637884947E+02  0.62594934152E+02  0.00000000000E+00 0.  1.
         14    1    4    4    0    0 -0.35718496004E+02 -0.49513809953E+02  0.20285033025E+02  0.64334367936E+02  0.00000000000E+00 0. -1.
         -5    1    5    5    0  502  0.17003125708E+02 -0.27093358769E+02  0.29839691820E+03  0.30014324441E+03  0.47000000000E+01 0.  1.
         11    1    6    6    0    0  0.50792164386E+02  0.27803973247E+02  0.11170876208E+03  0.12582429184E+03  0.00000000000E+00 0. -1.
        -12    1    6    6    0    0 -0.32028547367E+01  0.89476464445E+02  0.25896655608E+03  0.27400725016E+03  0.00000000000E+00 0.  1.
</event>
<event>
12    1  0.8461994E-002  0.2876598E+03  0.7818608E-02  0.1091730E+00
         21   -1    0    0  503  502  0.00000000000E+00  0.00000000000E+00  0.73505686625E+03  0.73505686625E+03  0.00000000000E+00 0.  1.
         21   -1    0    0  501  503 -0.00000000000E+00 -0.00000000000E+00 -0.12807208923E+03  0.12807208923E+03  0.00000000000E+00 0. -1.
          6    2    1    2  501    0  0.18899251480E+03  0.13001510141E+03  0.15172508689E+03  0.32522092658E+03  0.17356857968E+03 0.  0.
         24    2    3    3    0    0  0.14838921900E+03  0.12076900706E+03  0.18003300837E+03  0.27464873750E+03  0.80097013218E+02 0.  0.
         -6    2    1    2    0  502 -0.18899251480E+03 -0.13001510141E+03  0.45525969013E+03  0.53790802890E+03  0.17164371486E+03 0.  0.
        -24    2    5    5    0    0 -0.15503083037E+03 -0.47564592823E+02  0.20929678472E+03  0.27623777225E+03  0.78773179882E+02 0.  0.
          5    1    3    3  501    0  0.40603295797E+02  0.92460943489E+01 -0.28307921479E+02  0.50572189084E+02  0.47000000000E+01 0. -1.
        -13    1    4    4    0    0  0.43715754805E+02  0.82851093479E+02  0.61663493693E+02  0.11215060126E+03  0.00000000000E+00 0.  1.
         14    1    4    4    0    0  0.10467346420E+03  0.37917913586E+02  0.11836951467E+03  0.16249813624E+03  0.00000000000E+00 0. -1.
         -5    1    5    5    0  502 -0.33961684432E+02 -0.82450508591E+02  0.24596290541E+03  0.26167025665E+03  0.47000000000E+01 0.  1.
         11    1    6    6    0    0 -0.39018526627E+02  0.15908824400E+02  0.23691334503E+02  0.48340618992E+02  0.00000000000E+00 0. -1.
        -12    1    6    6    0    0 -0.11601230374E+03 -0.63473417223E+02  0.18560545022E+03  0.22789715326E+03  0.00000000000E+00 0.  1.
</event>
<event>
12    1  0.8461994E-002  0.1954515E+03  0.7818608E-02  0.1153769E+00
         21   -1    0    0  503  502  0.00000000000E+00  0.00000000000E+00  0.63177137207E+02  0.63177137207E+02  0.00000000000E+00 0.  1.
         21   -1    0    0  501  503 -0.00000000000E+00 -0.00000000000E+00 -0.60391777482E+03  0.60391777482E+03  0.00000000000E+00 0.  1.
          6    2    1    2  501    0 -0.66567010071E+02  0.63050793669E+02 -0.28543777250E+03  0.34594221582E+03  0.17261148660E+03 0.  0.
         24    2    3    3    0    0 -0.90182337752E+02  0.85499232136E+02 -0.27525616321E+03  0.31148396197E+03  0.76245199444E+02 0.  0.
         -6    2    1    2    0  502  0.66567010071E+02 -0.63050793669E+02 -0.25530286512E+03  0.32115269621E+03  0.17190966212E+03 0.  0.
        -24    2    5    5    0    0 -0.11247776081E+02 -0.66429707082E+02 -0.85495565745E+02  0.13427528473E+03  0.78618966399E+02 0.  0.
          5    1    3    3  501    0  0.23615327681E+02 -0.22448438468E+02 -0.10181609287E+02  0.34458253855E+02  0.47000000000E+01 0. -1.
        -13    1    4    4    0    0 -0.94018978615E+02  0.47724661334E+02 -0.17538716252E+03  0.20464082783E+03  0.00000000000E+00 0.  1.
         14    1    4    4    0    0  0.38366408632E+01  0.37774570803E+02 -0.99869000694E+02  0.10684313414E+03  0.00000000000E+00 0. -1.
         -5    1    5    5    0  502  0.77814786152E+02  0.33789134137E+01 -0.16980729937E+03  0.18687741148E+03  0.47000000000E+01 0.  1.
         11    1    6    6    0    0 -0.42869649531E+02 -0.23067101427E+02 -0.30576807363E+02  0.57487730583E+02  0.00000000000E+00 0. -1.
        -12    1    6    6    0    0  0.31621873450E+02 -0.43362605655E+02 -0.54918758383E+02  0.76787554148E+02  0.00000000000E+00 0.  1.
</event>
<event>
12    1  0.8461994E-002  0.1922010E+03  0.7818608E-02  0.1156701E+00
         21   -1    0    0  501  502  0.00000000000E+00  0.00000000000E+00  0.20121380505E+03  0.20121380505E+03  0.00000000000E+00 0. -1.
         21   -1    0    0  502  503 -0.00000000000E+00 -0.00000000000E+00 -0.19039756504E+03  0.19039756504E+03  0.00000000000E+00 0. -1.
         -6    2    1    2    0  503 -0.46444560648E+02  0.71011202191E+02 -0.33964994121E+02  0.19517902318E+03  0.17245736347E+03 0.  0.
        -24    2    3    3    0    0 -0.64391323854E+02  0.10536236230E+02 -0.67304112830E+02  0.12367451526E+03  0.80673956506E+02 0.  0.
          6    2    1    2  501    0  0.46444560648E+02 -0.71011202191E+02  0.44781234137E+02  0.19643234691E+03  0.17140775925E+03 0.  0.
         24    2    5    5    0    0  0.12221090943E+02  0.16322736346E+02  0.61255913838E+02  0.10108053638E+03  0.77776610042E+02 0.  0.
          5    1    5    5  501    0  0.34223469705E+02 -0.87333938537E+02 -0.16474679702E+02  0.95351810524E+02  0.47000000000E+01 0. -1.
        -13    1    6    6    0    0  0.24413433147E+02  0.75855392193E+01  0.75916974661E+02  0.80105824788E+02  0.00000000000E+00 0.  1.
         14    1    6    6    0    0 -0.12192342204E+02  0.87371971262E+01 -0.14661060823E+02  0.20974711595E+02  0.00000000000E+00 0. -1.
         -5    1    3    3    0  503  0.17946763206E+02  0.60474965961E+02  0.33339118709E+02  0.71504507927E+02  0.47000000000E+01 0.  1.
         11    1    4    4    0    0 -0.18217793937E+02  0.33729008784E+02  0.60901309503E+00  0.38339339410E+02  0.00000000000E+00 0. -1.
        -12    1    4    4    0    0 -0.46173529916E+02 -0.23192772553E+02 -0.67913125925E+02  0.85335175845E+02  0.00000000000E+00 0.  1.
</event>
<event>
12    1  0.8461994E-002  0.1746132E+03  0.7818608E-02  0.1173356E+00
         21   -1    0    0  501  502  0.00000000000E+00  0.00000000000E+00  0.18992411931E+03  0.18992411931E+03  0.00000000000E+00 0.  1.
         21   -1    0    0  502  503 -0.00000000000E+00 -0.00000000000E+00 -0.19676625024E+03  0.19676625024E+03  0.00000000000E+00 0.  1.
         -6    2    1    2    0  503 -0.11293235737E+02 -0.99426358503E+01  0.80523984289E+02  0.19144025446E+03  0.17302851153E+03 0.  0.
        -24    2    3    3    0    0  0.14370388248E+02 -0.19519850359E+02 -0.20941697283E+02  0.86237026514E+02  0.80067080879E+02 0.  0.
          6    2    1    2  501    0  0.11293235737E+02  0.99426358503E+01 -0.87366115213E+02  0.19525011509E+03  0.17396372085E+03 0.  0.
         24    2    5    5    0    0  0.25545475376E+02  0.65484385325E+02 -0.98554986847E+02  0.13663874146E+03  0.63374160369E+02 0.  0.
          5    1    5    5  501    0 -0.14252239639E+02 -0.55541749475E+02  0.11188871633E+02  0.58611373623E+02  0.47000000000E+01 0. -1.
        -13    1    6    6    0    0  0.16739922247E+01  0.50039820519E+02 -0.21469224263E+02  0.54476724185E+02  0.00000000000E+00 0.  1.
         14    1    6    6    0    0  0.23871483152E+02  0.15444564807E+02 -0.77085762584E+02  0.82162017277E+02  0.00000000000E+00 0. -1.
         -5    1    3    3    0  503 -0.25663623985E+02  0.95772145091E+01  0.10146568157E+03  0.10520322795E+03  0.47000000000E+01 0.  1.
         13    1    4    4    0    0  0.32451114531E+02 -0.85030225978E+01  0.20772439468E+02  0.39457197937E+02  0.00000000000E+00 0. -1.
        -14    1    4    4    0    0 -0.18080726283E+02 -0.11016827762E+02 -0.41714136751E+02  0.46779828577E+02  0.00000000000E+00 0.  1.
</event>
<event>
12    1  0.8461994E-002  0.1801173E+03  0.7818608E-02  0.1167929E+00
         21   -1    0    0  503  502  0.00000000000E+00  0.00000000000E+00  0.63856695313E+03  0.63856695313E+03  0.00000000000E+00 0.  1.
         21   -1    0    0  501  503 -0.00000000000E+00 -0.00000000000E+00 -0.50574816628E+02  0.50574816628E+02  0.00000000000E+00 0.  1.
          6    2    1    2  501    0  0.17178990800E+02 -0.41046104898E+02  0.30547638568E+03  0.35462383665E+03  0.17453464660E+03 0.  0.
         24    2    3    3    0    0 -0.21291532020E+02 -0.34037377179E+02  0.60409096164E+02  0.10641189137E+03  0.77861154279E+02 0.  0.
         -6    2    1    2    0  502 -0.17178990800E+02  0.41046104898E+02  0.28251575082E+03  0.33451793310E+03  0.17351425778E+03 0.  0.
        -24    2    5    5    0    0 -0.40375753244E+02  0.50229109700E+02  0.29015459193E+03  0.30800644015E+03  0.80778184235E+02 0.  0.
          5    1    3    3  501    0  0.38470522820E+02 -0.70087277185E+01  0.24506728951E+03  0.24821194528E+03  0.47000000000E+01 0. -1.
        -11    1    4    4    0    0 -0.48909775054E+02 -0.84660426865E+01  0.38876080921E+02  0.63049105008E+02  0.00000000000E+00 0.  1.
         12    1    4    4    0    0  0.27618243034E+02 -0.25571334493E+02  0.21533015243E+02  0.43362786366E+02  0.00000000000E+00 0. -1.
         -5    1    5    5    0  502  0.23196762444E+02 -0.91830048027E+01 -0.76388411016E+01  0.26511492951E+02  0.47000000000E+01 0.  1.
         11    1    6    6    0    0  0.14226374996E+02 -0.13277589496E+02  0.49031861604E+02  0.52752322989E+02  0.00000000000E+00 0. -1.
        -12    1    6    6    0    0 -0.54602128240E+02  0.63506699196E+02  0.24112273032E+03  0.25525411716E+03  0.00000000000E+00 0.  1.
</event>
<event>
12    1  0.8461994E-002  0.2156585E+03  0.7818608E-02  0.1137493E+00
         21   -1    0    0  503  502  0.00000000000E+00  0.00000000000E+00  0.28842238624E+03  0.28842238624E+03  0.00000000000E+00 0.  1.
         21   -1    0    0  501  503 -0.00000000000E+00 -0.00000000000E+00 -0.19198720129E+03  0.19198720129E+03  0.00000000000E+00 0.  1.
          6    2    1    2  501    0  0.59157439225E+02 -0.11519451495E+03 -0.50040862984E+02  0.21971086307E+03  0.17029209169E+03 0.  0.
         24    2    3    3    0    0 -0.79249625390E+01 -0.63582496536E+02  0.28052281950E+02  0.10445255162E+03  0.77574906516E+02 0.  0.
         -6    2    1    2    0  502 -0.59157439225E+02  0.11519451495E+03  0.14647604794E+03  0.26069872446E+03  0.17245061155E+03 0.  0.
        -24    2    5    5    0    0 -0.45983687243E+02  0.50809294642E+02  0.16167273770E+03  0.19308190913E+03  0.80289884825E+02 0.  0.
          5    1    3    3  501    0  0.67082401764E+02 -0.51612018412E+02 -0.78093144934E+02  0.11525831144E+03  0.47000000000E+01 0. -1.
        -13    1    4    4    0    0  0.33680291498E+02 -0.37334688298E+02  0.22017274873E+02  0.54890813243E+02  0.00000000000E+00 0.  1.
         14    1    4    4    0    0 -0.41605254037E+02 -0.26247808238E+02  0.60350070773E+01  0.49561738380E+02  0.00000000000E+00 0. -1.
         -5    1    5    5    0  502 -0.13173751982E+02  0.64385220306E+02 -0.15196689761E+02  0.67616815326E+02  0.47000000000E+01 0.  1.
         13    1    6    6    0    0 -0.68640151997E+02  0.32343265108E+02  0.12440619764E+03  0.14572048338E+03  0.00000000000E+00 0. -1.
        -14    1    6    6    0    0  0.22656464754E+02  0.18466029534E+02  0.37266540056E+02  0.47361425756E+02  0.00000000000E+00 0.  1.
</event>
<event>
12    1  0.8461994E-002  0.1764175E+03  0.7818608E-02  0.1172349E+00
         21   -1    0    0  501  502  0.00000000000E+00  0.00000000000E+00  0.49469044150E+03  0.49469044150E+03  0.00000000000E+00 0. -1.
         21   -1    0    0  502  503 -0.00000000000E+00 -0.00000000000E+00 -0.82051458032E+02  0.82051458032E+02  0.00000000000E+00 0. -1.
         -6    2    1    2    0  503 -0.14425299188E+02  0.62105903382E+01  0.60040872498E+02  0.18247225797E+03  0.17159416619E+03 0.  0.
        -24    2    3    3    0    0  0.55420502708E+02 -0.20041223031E+02  0.27508366503E+02  0.10093669705E+03  0.77190827454E+02 0.  0.
          6    2    1    2  501    0  0.14425299188E+02 -0.62105903382E+01  0.35259811097E+03  0.39426964157E+03  0.17571699323E+03 0.  0.
         24    2    5    5    0    0  0.57748371868E+01 -0.58346395446E+02  0.11930743823E+03  0.15502165170E+03  0.79748335859E+02 0.  0.
          5    1    5    5  501    0  0.86504620016E+01  0.52135805108E+02  0.23329067274E+03  0.23924798987E+03  0.47000000000E+01 0. -1.
        -11    1    6    6    0    0  0.62323247749E+01  0.16112370290E+02  0.39519703192E+01  0.17721975564E+02  0.00000000000E+00 0.  1.
         12    1    6    6    0    0 -0.45748758814E+00 -0.74458765737E+02  0.11535546791E+03  0.13729967614E+03  0.00000000000E+00 0. -1.
         -5    1    3    3    0  503 -0.69845801896E+02  0.26251813370E+02  0.32532505995E+02  0.81535560917E+02  0.47000000000E+01 0.  1.
         13    1    4    4    0    0  0.26487054884E+01  0.26392175244E+02  0.11110212230E+02  0.28757596747E+02  0.00000000000E+00 0. -1.
        -14    1    4    4    0    0  0.52771797220E+02 -0.46433398276E+02  0.16398154273E+02  0.72179100304E+02  0.00000000000E+00 0.  1.
</event>
<event>
12    1  0.8461994E-002  0.2207227E+03  0.7818608E-02  0.1133463E+00
         21   -1    0    0  501  502  0.00000000000E+00  0.00000000000E+00  0.21048839216E+03  0.21048839216E+03  0.00000000000E+00 0.  1.
         21   -1    0    0  502  503 -0.00000000000E+00 -0.00000000000E+00 -0.23618809752E+03  0.23618809752E+03  0.00000000000E+00 0.  1.
         -6    2    1    2    0  503 -0.13128247954E+03  0.40824458143E+02  0.20891056383E+02  0.22170915321E+03  0.17267537915E+03 0.  0.
        -24    2    3    3    0    0 -0.72135620185E+02  0.15033483950E+01 -0.37416907535E+02  0.12969606012E+03  0.10107044714E+03 0.  0.
          6    2    1    2  501    0  0.13128247954E+03 -0.40824458143E+02 -0.46590761739E+02  0.22496733647E+03  0.17186587091E+03 0.  0.
         24    2    5    5    0    0  0.60040328724E+02 -0.77144739860E+02 -0.66198611859E+02  0.14249816221E+03  0.79795476440E+02 0.  0.
          5    1    5    5  501    0  0.71242150819E+02  0.36320281717E+02  0.19607850120E+02  0.82469174263E+02  0.47000000000E+01 0. -1.
        -11    1    6    6    0    0 -0.13710412324E+02 -0.41977102454E+02 -0.18416233115E+02  0.47845691328E+02  0.00000000000E+00 0.  1.
         12    1    6    6    0    0  0.73750741049E+02 -0.35167637406E+02 -0.47782378744E+02  0.94652470884E+02  0.00000000000E+00 0. -1.
         -5    1    3    3    0  503 -0.59146859358E+02  0.39321109748E+02  0.58307963918E+02  0.92013093090E+02  0.47000000000E+01 0.  1.
         11    1    4    4    0    0 -0.14329028613E+01  0.39101524997E+02  0.43696639192E+01  0.39371010026E+02  0.00000000000E+00 0. -1.
        -12    1    4    4    0    0 -0.70702717324E+02 -0.37598176602E+02 -0.41786571454E+02  0.90325050095E+02  0.00000000000E+00 0.  1.
</event>
<event>
12    1  0.8461994E-002  0.1997240E+03  0.7818608E-02  0.1150069E+00
         21   -1    0    0  501  502  0.00000000000E+00  0.00000000000E+00  0.25732108275E+03  0.25732108275E+03  0.00000000000E+00 0. -1.
         21   -1    0    0  502  503 -0.00000000000E+00 -0.00000000000E+00 -0.15859507049E+03  0.15859507049E+03  0.00000000000E+00 0. -1.
         -6    2    1    2    0  503  0.86118885441E+02  0.53523119036E+02  0.16573299158E+02  0.19995611923E+03  0.17154179862E+03 0.  0.
        -24    2    3    3    0    0  0.11919981176E+02 -0.12502222244E+02  0.43953606454E+02  0.96822253248E+02  0.84523592514E+02 0.  0.
          6    2    1    2  501    0 -0.86118885441E+02 -0.53523119036E+02  0.82152713102E+02  0.21596003401E+03  0.17207115190E+03 0.  0.
         24    2    5    5    0    0 -0.18066643701E+02  0.10663960698E+02  0.90149885494E+02  0.12195400454E+03  0.79408146278E+02 0.  0.
          5    1    5    5  501    0 -0.68052241740E+02 -0.64187079734E+02 -0.79971723922E+01  0.94006029471E+02  0.47000000000E+01 0. -1.
        -11    1    6    6    0    0  0.15683255578E+02 -0.17901457305E+02  0.26882482321E+01  0.23951061725E+02  0.00000000000E+00 0.  1.
         12    1    6    6    0    0 -0.33749899279E+02  0.28565418003E+02  0.87461637262E+02  0.98002942811E+02  0.00000000000E+00 0. -1.
         -5    1    3    3    0  503  0.74198904265E+02  0.66025341280E+02 -0.27380307296E+02  0.10313386598E+03  0.47000000000E+01 0.  1.
         11    1    4    4    0    0  0.35714840702E+02  0.26981614756E+01 -0.88942615078E+01  0.36904441596E+02  0.00000000000E+00 0. -1.
        -12    1    4    4    0    0 -0.23794859526E+02 -0.15200383720E+02  0.52847867962E+02  0.59917811652E+02  0.00000000000E+00 0.  1.
</event>
<event>
12    1  0.8461994E-002  0.1822964E+03  0.7818608E-02  0.1166022E+00
         21   -1    0    0  501  502  0.00000000000E+00  0.00000000000E+00  0.74224347700E+02  0.74224347700E+02  0.00000000000E+00 0. -1.
         21   -1    0    0  502  503 -0.00000000000E+00 -0.00000000000E+00 -0.11014999581E+04  0.11014999581E+04  0.00000000000E+00 0. -1.
         -6    2    1    2    0  503 -0.46556273914E+02 -0.28265164919E+02 -0.96702182166E+03  0.98372825554E+03  0.17211528402E+03 0.  0.
        -24    2    3    3    0    0  0.39158805270E+02 -0.45736531282E+01 -0.56830808627E+03  0.57519050292E+03  0.79471399839E+02 0.  0.
          6    2    1    2  501    0  0.46556273914E+02  0.28265164919E+02 -0.60253788772E+02  0.19199605029E+03  0.17396999189E+03 0.  0.
         24    2    5    5    0    0 -0.36331503221E+00 -0.47100781969E+02 -0.43616318899E+02  0.10155065693E+03  0.78686320210E+02 0.  0.
          5    1    5    5  501    0  0.46919588946E+02  0.75365946888E+02 -0.16637469873E+02  0.90445393365E+02  0.47000000000E+01 0. -1.
        -13    1    6    6    0    0 -0.46365690413E+01  0.21093281784E+02 -0.23401806436E+01  0.21723276786E+02  0.00000000000E+00 0.  1.
         14    1    6    6    0    0  0.42732540091E+01 -0.68194063753E+02 -0.41276138255E+02  0.79827380141E+02  0.00000000000E+00 0. -1.
         -5    1    3    3    0  503 -0.85715079184E+02 -0.23691511791E+02 -0.39871373538E+03  0.40853775262E+03  0.47000000000E+01 0.  1.
         11    1    4    4    0    0  0.22982654025E+02  0.17714660945E+02 -0.50871200720E+03  0.50953892675E+03  0.00000000000E+00 0. -1.
        -12    1    4    4    0    0  0.16176151246E+02 -0.22288314073E+02 -0.59596079070E+02  0.65651576172E+02  0.00000000000E+00 0.  1.
</event>
<event>
12    1  0.8461994E-002  0.1782189E+03  0.7818608E-02  0.1171545E+00
         21   -1    0    0  501  502  0.00000000000E+00  0.00000000000E+00  0.85920354723E+03  0.85920354723E+03  0.00000000000E+00 0.  1.
         21   -1    0    0  502  503 -0.00000000000E+00 -0.00000000000E+00 -0.69416068276E+02  0.69416068276E+02  0.00000000000E+00 0.  1.
         -6    2    1    2    0  503  0.44054890832E+02 -0.15138147348E+02  0.74174940649E+02  0.19303861369E+03  0.17202321833E+03 0.  0.
        -24    2    3    3    0    0 -0.38451022721E+02  0.10870583267E+02  0.24504182975E+02  0.93173935214E+02  0.80525005379E+02 0.  0.
          6    2    1    2  501    0 -0.44054890832E+02  0.15138147348E+02  0.71561253831E+03  0.73558100182E+03  0.16373181835E+03 0.  0.
         24    2    5    5    0    0  0.14357026390E+02  0.12884403685E+02  0.60119302785E+03  0.60700827606E+03  0.81571186165E+02 0.  0.
          5    1    5    5  501    0 -0.58411917222E+02  0.22537436632E+01  0.11441951046E+03  0.12857272576E+03  0.47000000000E+01 0. -1.
        -13    1    6    6    0    0 -0.31823423448E+02 -0.77607172187E-02  0.33704935972E+03  0.33854837354E+03  0.00000000000E+00 0.  1.
         14    1    6    6    0    0  0.46180449838E+02  0.12892164402E+02  0.26414366812E+03  0.26845990252E+03  0.00000000000E+00 0. -1.
         -5    1    3    3    0  503  0.82505913552E+02 -0.26008730615E+02  0.49670757674E+02  0.99864678476E+02  0.47000000000E+01 0.  1.
         13    1    4    4    0    0 -0.40951406433E+02 -0.16602104377E+02  0.41625084467E+02  0.60706632385E+02  0.00000000000E+00 0. -1.
        -14    1    4    4    0    0  0.25003837123E+01  0.27472687645E+02 -0.17120901492E+02  0.32467302830E+02  0.00000000000E+00 0.  1.
</event>
<event>
12    1  0.8461994E-002  0.2263557E+03  0.7818608E-02  0.1129283E+00
         21   -1    0    0  501  502  0.00000000000E+00  0.00000000000E+00  0.22485958516E+03  0.22485958516E+03  0.00000000000E+00 0. -1.
         21   -1    0    0  502  503 -0.00000000000E+00 -0.00000000000E+00 -0.37554452488E+03  0.37554452488E+03  0.00000000000E+00 0.  1.
         -6    2    1    2    0  503  0.35694569104E+02  0.13955130034E+03 -0.26375272888E+03  0.34737991156E+03  0.17423729013E+03 0.  0.
        -24    2    3    3    0    0 -0.11157463102E+02  0.14673767860E+03 -0.24217971895E+03  0.29508993439E+03  0.82283763924E+02 0.  0.
          6    2    1    2  501    0 -0.35694569104E+02 -0.13955130034E+03  0.11306778917E+03  0.25302419848E+03  0.17460885539E+03 0.  0.
         24    2    5    5    0    0 -0.96662286245E+01 -0.89177689757E+02 -0.63937635769E+01  0.12070591654E+03  0.80516717202E+02 0.  0.
          5    1    5    5  501    0 -0.26028340480E+02 -0.50373610579E+02  0.11946155274E+03  0.13231828194E+03  0.47000000000E+01 0. -1.
        -11    1    6    6    0    0 -0.17517712592E+01  0.44583668855E+01 -0.24537254305E+02  0.25000451729E+02  0.00000000000E+00 0.  1.
         12    1    6    6    0    0 -0.79144573653E+01 -0.93636056642E+02  0.18143490728E+02  0.95705464811E+02  0.00000000000E+00 0. -1.
         -5    1    3    3    0  503  0.46852032206E+02 -0.71863782651E+01 -0.21573009936E+02  0.52289977167E+02  0.47000000000E+01 0.  1.
         11    1    4    4    0    0  0.12076133403E+02  0.11082249927E+03 -0.11183811355E+03  0.15790890724E+03  0.00000000000E+00 0. -1.
        -12    1    4    4    0    0 -0.23233596505E+02  0.35915179327E+02 -0.13034160540E+03  0.13718102715E+03  0.00000000000E+00 0.  1.
</event>
<event>
12    1  0.8461994E-002  0.1983463E+03  0.7818608E-02  0.1151460E+00
         21   -1    0    0  503  502  0.00000000000E+00  0.00000000000E+00  0.67789556724E+02  0.67789556724E+02  0.00000000000E+00 0.  1.
         21   -1    0    0  501  503 -0.00000000000E+00 -0.00000000000E+00 -0.18418982273E+04  0.18418982273E+04  0.00000000000E+00 0.  1.
          6    2    1    2  501    0 -0.40832577083E+02 -0.87231827446E+02 -0.16775954647E+04  0.16891065951E+04  0.17169116270E+03 0.  0.
         24    2    3    3    0    0  0.37586789760E+02 -0.17894099858E+02 -0.94006702544E+03  0.94417196288E+03  0.77470753139E+02 0.  0.
         -6    2    1    2    0  502  0.40832577083E+02  0.87231827446E+02 -0.96513205819E+02  0.22058118887E+03  0.17339138074E+03 0.  0.
        -24    2    5    5    0    0  0.20074182921E+02  0.11438032789E+03 -0.42918009652E+02  0.15684354648E+03  0.96291797644E+02 0.  0.
          5    1    3    3  501    0 -0.78419366843E+02 -0.69337727588E+02 -0.73752843930E+03  0.74493463226E+03  0.47000000000E+01 0. -1.
        -11    1    4    4    0    0  0.50664333680E+02  0.91205930752E+01 -0.74848517324E+03  0.75025336686E+03  0.00000000000E+00 0.  1.
         12    1    4    4    0    0 -0.13077543920E+02 -0.27014692933E+02 -0.19158185220E+03  0.19391859602E+03  0.00000000000E+00 0. -1.
         -5    1    5    5    0  502  0.20758394162E+02 -0.27148500443E+02 -0.53595196167E+02  0.63737642384E+02  0.47000000000E+01 0.  1.
         11    1    6    6    0    0  0.84132538618E+01 -0.16783748099E+02 -0.16486575221E+01  0.18846620716E+02  0.00000000000E+00 0. -1.
        -12    1    6    6    0    0  0.11660929059E+02  0.13116407599E+03 -0.41269352130E+02  0.13799692577E+03  0.00000000000E+00 0.  1.
</event>
<event>
12    1  0.8461994E-002  0.2938696E+03  0.7818608E-02  0.1088369E+00
         21   -1    0    0  503  502  0.00000000000E+00  0.00000000000E+00  0.15718564518E+03  0.15718564518E+03  0.00000000000E+00 0. -1.
         21   -1    0    0  501  503 -0.00000000000E+00 -0.00000000000E+00 -0.63641258599E+03  0.63641258599E+03  0.00000000000E+00 0. -1.
          6    2    1    2  501    0  0.19651083872E+02 -0.23759587717E+03 -0.92684251970E+02  0.30813912422E+03  0.17181787847E+03 0.  0.
         24    2    3    3    0    0 -0.13356282358E+02 -0.16071980367E+03 -0.12464686587E+03  0.21845570552E+03  0.78592674795E+02 0.  0.
         -6    2    1    2    0  502 -0.19651083872E+02  0.23759587717E+03 -0.38654268884E+03  0.48545910696E+03  0.17151480485E+03 0.  0.
        -24    2    5    5    0    0 -0.74770274089E+02  0.14928263486E+03 -0.28734206502E+03  0.34158343958E+03  0.78980281740E+02 0.  0.
          5    1    3    3  501    0  0.33007366229E+02 -0.76876073496E+02  0.31962613901E+02  0.89683418695E+02  0.47000000000E+01 0. -1.
        -11    1    4    4    0    0 -0.37859954098E+02 -0.83515982733E+02 -0.36362596806E+02  0.98643468829E+02  0.00000000000E+00 0.  1.
         12    1    4    4    0    0  0.24503671740E+02 -0.77203820942E+02 -0.88284269065E+02  0.11981223669E+03  0.00000000000E+00 0. -1.
         -5    1    5    5    0  502  0.55119190217E+02  0.88313242307E+02 -0.99200623820E+02  0.14387566738E+03  0.47000000000E+01 0.  1.
         13    1    6    6    0    0 -0.66921470844E+01  0.93750992959E+02 -0.17826782353E+03  0.20152779069E+03  0.00000000000E+00 0. -1.
        -14    1    6    6    0    0 -0.68078127004E+02  0.55531641904E+02 -0.10907424149E+03  0.14005564889E+03  0.00000000000E+00 0.  1.
</event>
<event>
12    1  0.8461994E-002  0.1768784E+03  0.7818608E-02  0.1170951E+00
         21   -1    0    0  501  502  0.00000000000E+00  0.00000000000E+00  0.63944407357E+03  0.63944407357E+03  0.00000000000E+00 0.  1.
         21   -1    0    0  502  503 -0.00000000000E+00 -0.00000000000E+00 -0.67669081703E+02  0.67669081703E+02  0.00000000000E+00 0.  1.
         -6    2    1    2    0  503 -0.34466396426E+02 -0.64329844290E+01  0.47224834076E+03  0.50415623472E+03  0.17299045604E+03 0.  0.
        -24    2    3    3    0    0  0.17252593923E+02  0.49077397698E+02  0.17430184719E+03  0.19666565028E+03  0.74766309953E+02 0.  0.
          6    2    1    2  501    0  0.34466396426E+02  0.64329844290E+01  0.99526651101E+02  0.20295692055E+03  0.17336851372E+03 0.  0.
         24    2    5    5    0    0 -0.31544383947E+02 -0.42838461408E+02  0.44618305272E+02  0.10385033681E+03  0.77226403224E+02 0.  0.
          5    1    5    5  501    0  0.66010780373E+02  0.49271445837E+02  0.54908345829E+02  0.99106583747E+02  0.47000000000E+01 0. -1.
        -11    1    6    6    0    0 -0.73793586729E+01 -0.23548346954E+02 -0.20293734031E+02  0.31950199054E+02  0.00000000000E+00 0.  1.
         12    1    6    6    0    0 -0.24165025274E+02 -0.19290114454E+02  0.64912039303E+02  0.71900137751E+02  0.00000000000E+00 0. -1.
         -5    1    3    3    0  503 -0.51718990348E+02 -0.55510382127E+02  0.29794649357E+03  0.30749058443E+03  0.47000000000E+01 0.  1.
         11    1    4    4    0    0 -0.28242794014E+02  0.14855692470E+02  0.42949971338E+02  0.53507448551E+02  0.00000000000E+00 0. -1.
        -12    1    4    4    0    0  0.45495387937E+02  0.34221705228E+02  0.13135187586E+03  0.14315820173E+03  0.00000000000E+00 0.  1.
</event>
<event>
12    1  0.8461994E-002  0.1747668E+03  0.7818608E-02  0.1173065E+00
         21   -1    0    0  501  502  0.00000000000E+00  0.00000000000E+00  0.19132838616E+03  0.19132838616E+03  0.00000000000E+00 0. -1.
         21   -1    0    0  502  503 -0.00000000000E+00 -0.00000000000E+00 -0.21223850612E+03  0.21223850612E+03  0.00000000000E+00 0. -1.
         -6    2    1    2    0  503  0.16622855202E+02  0.35578386950E+02 -0.11124033231E+03  0.20683611806E+03  0.16989593071E+03 0.  0.
        -24    2    3    3    0    0  0.66634396332E+02 -0.24037159198E+01 -0.36922806841E+02  0.10942472768E+03  0.78514691228E+02 0.  0.
          6    2    1    2  501    0 -0.16622855202E+02 -0.35578386950E+02  0.90330212349E+02  0.19673077421E+03  0.17029770793E+03 0.  0.
         24    2    5    5    0    0 -0.49955634457E+02 -0.54110931938E+01  0.11178988133E+03  0.14669331646E+03  0.80604628794E+02 0.  0.
          5    1    5    5  501    0  0.33332779255E+02 -0.30167293756E+02 -0.21459668982E+02  0.50037457751E+02  0.47000000000E+01 0. -1.
        -13    1    6    6    0    0 -0.36345046682E+02 -0.21572399955E+02  0.10945616406E+02  0.43659333213E+02  0.00000000000E+00 0.  1.
         14    1    6    6    0    0 -0.13610587775E+02  0.16161306761E+02  0.10084426493E+03  0.10303398325E+03  0.00000000000E+00 0. -1.
         -5    1    3    3    0  503 -0.50011541130E+02  0.37982102870E+02 -0.74317525467E+02  0.97411390382E+02  0.47000000000E+01 0.  1.
         13    1    4    4    0    0 -0.14865440639E+02  0.12335611601E+02 -0.15945546923E+01  0.19382756347E+02  0.00000000000E+00 0. -1.
        -14    1    4    4    0    0  0.81499836971E+02 -0.14739327520E+02 -0.35328252149E+02  0.90041971335E+02  0.00000000000E+00 0.  1.
</event>
<event>
12    1  0.8461994E-002  0.2487174E+03  0.7818608E-02  0.1114152E+00
         21   -1    0    0  503  502  0.00000000000E+00  0.00000000000E+00  0.27762527227E+03  0.27762527227E+03  0.00000000000E+00 0. -1.
         21   -1    0    0  501  503 -0.00000000000E+00 -0.00000000000E+00 -0.66612989255E+03  0.66612989255E+03  0.00000000000E+00 0.  1.
          6    2    1    2  501    0 -0.84598129923E+02  0.15817519098E+03 -0.57925619915E+03  0.63031215624E+03  0.17198673037E+03 0.  0.
         24    2    3    3    0    0 -0.13671209096E+02  0.15379647759E+03 -0.45443157572E+03  0.48660036882E+03  0.80197278311E+02 0.  0.
         -6    2    1    2    0  502  0.84598129923E+02 -0.15817519098E+03  0.19075157888E+03  0.31344300858E+03  0.17229080114E+03 0.  0.
        -24    2    5    5    0    0  0.59609945083E+02 -0.25867770741E+02  0.12613983129E+03  0.16402269283E+03  0.82278184296E+02 0.  0.
          5    1    3    3  501    0 -0.70926920828E+02  0.43787133886E+01 -0.12482462343E+03  0.14371178742E+03  0.47000000000E+01 0. -1.
        -13    1    4    4    0    0  0.85273490415E+01  0.41242677784E+02 -0.23746702077E+03  0.24117267694E+03  0.00000000000E+00 0.  1.
         14    1    4    4    0    0 -0.22198558137E+02  0.11255379981E+03 -0.21696455495E+03  0.24542769188E+03  0.00000000000E+00 0. -1.
         -5    1    5    5    0  502  0.24988184841E+02 -0.13230742024E+03  0.64611747589E+02  0.14942031575E+03  0.47000000000E+01 0.  1.
         13    1    6    6    0    0 -0.20451115009E+02 -0.11619301917E+02  0.27771450582E+02  0.36393814715E+02  0.00000000000E+00 0. -1.
        -14    1    6    6    0    0  0.80061060091E+02 -0.14248468824E+02  0.98368380705E+02  0.12762887812E+03  0.00000000000E+00 0.  1.
</event>
<event>
12    1  0.8461994E-002  0.1800270E+03  0.7818608E-02  0.1168067E+00
         21   -1    0    0  503  502  0.00000000000E+00  0.00000000000E+00  0.15917328281E+04  0.15917328281E+04  0.00000000000E+00 0. -1.
         21   -1    0    0  501  503 -0.00000000000E+00 -0.00000000000E+00 -0.24576602258E+02  0.24576602258E+02  0.00000000000E+00 0. -1.
          6    2    1    2  501    0  0.49710066594E+02  0.18408001602E-01  0.44143220225E+03  0.47628122440E+03  0.17178569344E+03 0.  0.
         24    2    3    3    0    0 -0.27465487743E+02  0.38417241333E+02  0.22580729552E+03  0.24401687717E+03  0.79530272142E+02 0.  0.
         -6    2    1    2    0  502 -0.49710066594E+02 -0.18408001602E-01  0.11257240236E+04  0.11400282059E+04  0.17302786492E+03 0.  0.
        -24    2    5    5    0    0  0.34776707064E+02 -0.12329835157E+02  0.40441099833E+03  0.41366455285E+03  0.78795066589E+02 0.  0.
          5    1    3    3  501    0  0.77175554336E+02 -0.38398833331E+02  0.21562490673E+03  0.23226434723E+03  0.47000000000E+01 0. -1.
        -11    1    4    4    0    0 -0.34384024694E+01  0.60005030993E+02  0.15196085019E+03  0.16341519619E+03  0.00000000000E+00 0.  1.
         12    1    4    4    0    0 -0.24027085273E+02 -0.21587789661E+02  0.73846445329E+02  0.80601680981E+02  0.00000000000E+00 0. -1.
         -5    1    5    5    0  502 -0.84486773658E+02  0.12311427155E+02  0.72131302523E+03  0.72636365308E+03  0.47000000000E+01 0.  1.
         11    1    6    6    0    0 -0.45612671007E+01  0.22745122618E+02  0.47267952366E+02  0.52653633125E+02  0.00000000000E+00 0. -1.
        -12    1    6    6    0    0  0.39337974165E+02 -0.35074957774E+02  0.35714304597E+03  0.36101091972E+03  0.00000000000E+00 0.  1.
</event>
<event>
12    1  0.8461994E-002  0.1745171E+03  0.7818608E-02  0.1173571E+00
         21   -1    0    0  501  502  0.00000000000E+00  0.00000000000E+00  0.27736552894E+04  0.27736552894E+04  0.00000000000E+00 0.  1.
         21   -1    0    0  502  503 -0.00000000000E+00 -0.00000000000E+00 -0.18863137170E+02  0.18863137170E+02  0.00000000000E+00 0.  1.
         -6    2    1    2    0  503  0.15786666660E+02  0.22911384135E+02  0.46659229553E+03  0.49767315804E+03  0.17086852143E+03 0.  0.
        -24    2    3    3    0    0  0.22140548526E+02  0.25374803754E+02  0.10690191038E+03  0.13788752266E+03  0.80317282751E+02 0.  0.
          6    2    1    2  501    0 -0.15786666660E+02 -0.22911384135E+02  0.22881998567E+04  0.22948452685E+04  0.17228485699E+03 0.  0.
         24    2    5    5    0    0  0.33542306131E+01  0.47554404393E+02  0.16142660686E+04  0.16169509980E+04  0.80018231750E+02 0.  0.
          5    1    5    5  501    0 -0.19140897273E+02 -0.70465788528E+02  0.67393378814E+03  0.67789427059E+03  0.47000000000E+01 0. -1.
        -11    1    6    6    0    0  0.33452423182E+02  0.15507538184E+02  0.35332814176E+03  0.35524684956E+03  0.00000000000E+00 0.  1.
         12    1    6    6    0    0 -0.30098192569E+02  0.32046866209E+02  0.12609379268E+04  0.12617041484E+04  0.00000000000E+00 0. -1.
         -5    1    3    3    0  503 -0.63538818667E+01 -0.24634196192E+01  0.35969038516E+03  0.35978563538E+03  0.47000000000E+01 0.  1.
         11    1    4    4    0    0  0.30906666051E+02  0.29248056173E+02  0.11667939600E+03  0.12419642607E+03  0.00000000000E+00 0. -1.
        -12    1    4    4    0    0 -0.87661175247E+01 -0.38732524183E+01 -0.97774856259E+01  0.13691096593E+02  0.00000000000E+00 0.  1.
</event>
<event>
12    1  0.8461994E-002  0.1928365E+03  0.7818608E-02  0.1156173E+00
         21   -1    0    0  503  502  0.00000000000E+00  0.00000000000E+00  0.86549779466E+02  0.86549779466E+02  0.00000000000E+00 0. -1.
         21   -1    0    0  501  503 -0.00000000000E+00 -0.00000000000E+00 -0.49060229632E+03  0.49060229632E+03  0.00000000000E+00 0. -1.
          6    2    1    2  501    0 -0.30935920082E+02  0.79884919132E+02 -0.30527109504E+03  0.36048715577E+03  0.17152818005E+03 0.  0.
         24    2    3    3    0    0 -0.26099299443E+02  0.62343697011E+02 -0.31990656670E+03  0.33666753354E+03  0.80230335482E+02 0.  0.
         -6    2    1    2    0  502  0.30935920082E+02 -0.79884919132E+02 -0.98781421814E+02  0.21666492002E+03  0.17276367331E+03 0.  0.
        -24    2    5    5    0    0  0.52643887009E+02 -0.11658159198E+03 -0.62699566368E+02  0.16061251669E+03  0.74178827626E+02 0.  0.
          5    1    3    3  501    0 -0.48366206384E+01  0.17541222122E+02  0.14635471657E+02  0.23819622233E+02  0.47000000000E+01 0. -1.
        -11    1    4    4    0    0  0.23617063537E+02  0.41722301619E+02 -0.19205255663E+03  0.19794620645E+03  0.00000000000E+00 0.  1.
         12    1    4    4    0    0 -0.49716362981E+02  0.20621395392E+02 -0.12785401008E+03  0.13872132709E+03  0.00000000000E+00 0. -1.
         -5    1    5    5    0  502 -0.21707966927E+02  0.36696672846E+02 -0.36081855446E+02  0.56052403325E+02  0.47000000000E+01 0.  1.
         11    1    6    6    0    0 -0.10939509406E+02 -0.40445327421E+02 -0.41912054233E+02  0.59263122313E+02  0.00000000000E+00 0. -1.
        -12    1    6    6    0    0  0.63583396415E+02 -0.76136264558E+02 -0.20787512135E+02  0.10134939438E+03  0.00000000000E+00 0.  1.
</event>
<event>
12    1  0.8461994E-002  0.3494463E+03  0.7818608E-02  0.1062843E+00
         21   -1    0    0  501  502  0.00000000000E+00  0.00000000000E+00  0.58039639830E+03  0.58039639830E+03  0.00000000000E+00 0. -1.
         21   -1    0    0  502  503 -0.00000000000E+00 -0.00000000000E+00 -0.26216131085E+03  0.26216131085E+03  0.00000000000E+00 0.  1.
         -6    2    1    2    0  503  0.14661114008E+03 -0.26618598214E+03 -0.28085476182E+02  0.35057127477E+03  0.17251556811E+03 0.  0.
        -24    2    3    3    0    0  0.12748235634E+03 -0.24676318583E+03  0.23880816090E+02  0.29170073106E+03  0.85878996664E+02 0.  0.
          6    2    1    2  501    0 -0.14661114008E+03  0.26618598214E+03  0.34632056364E+03  0.49198643437E+03  0.17251931869E+03 0.  0.
         24    2    5    5    0    0 -0.31460739500E+02  0.78498467023E+02  0.61845028149E+02  0.13221617660E+03  0.80650619296E+02 0.  0.
          5    1    5    5  501    0 -0.11515040058E+03  0.18768751512E+03  0.28447553549E+03  0.35977025777E+03  0.47000000000E+01 0. -1.
        -11    1    6    6    0    0 -0.21819726041E+01 -0.16739458959E+02  0.55188260561E+01  0.17760290868E+02  0.00000000000E+00 0.  1.
         12    1    6    6    0    0 -0.29278766896E+02  0.95237925982E+02  0.56326202092E+02  0.11445588573E+03  0.00000000000E+00 0. -1.
         -5    1    3    3    0  503  0.19128783748E+02 -0.19422796313E+02 -0.51966292272E+02  0.58870543711E+02  0.47000000000E+01 0.  1.
         13    1    4    4    0    0  0.25760682410E+02 -0.14307694075E+03  0.82754197598E+01  0.14561286449E+03  0.00000000000E+00 0. -1.
        -14    1    4    4    0    0  0.10172167393E+03 -0.10368624508E+03  0.15605396331E+02  0.14608786657E+03  0.00000000000E+00 0.  1.
</event>
<event>
12    1  0.8461994E-002  0.1855332E+03  0.7818608E-02  0.1164444E+00
         21   -1    0    0  503  502  0.00000000000E+00  0.00000000000E+00  0.45368692757E+02  0.45368692757E+02  0.00000000000E+00 0. -1.
         21   -1    0    0  501  503 -0.00000000000E+00 -0.00000000000E+00 -0.83034192127E+03  0.83034192127E+03  0.00000000000E+00 0. -1.
          6    2    1    2  501    0  0.34460574036E+02 -0.39752788277E+02 -0.53971191535E+03  0.56817902099E+03  0.16961908202E+03 0.  0.
         24    2    3    3    0    0 -0.38105759255E+02 -0.38424688015E+02 -0.17860413950E+03  0.19981975022E+03  0.71414203047E+02 0.  0.
         -6    2    1    2    0  502 -0.34460574036E+02  0.39752788277E+02 -0.24526131316E+03  0.30753159303E+03  0.17791782834E+03 0.  0.
        -24    2    5    5    0    0  0.10562412616E+01 -0.17040019998E-01 -0.22958087143E+03  0.25175480875E+03  0.10330533030E+03 0.  0.
          5    1    3    3  501    0  0.72566333290E+02 -0.13281002615E+01 -0.36110777586E+03  0.36835927077E+03  0.47000000000E+01 0. -1.
        -13    1    4    4    0    0 -0.20757305640E+02 -0.11623181935E+02 -0.63375608814E+01  0.24619682648E+02  0.00000000000E+00 0.  1.
         14    1    4    4    0    0 -0.17348453614E+02 -0.26801506080E+02 -0.17226657862E+03  0.17520006758E+03  0.00000000000E+00 0. -1.
         -5    1    5    5    0  502 -0.35516815297E+02  0.39769828297E+02 -0.15680441727E+02  0.55776784278E+02  0.47000000000E+01 0.  1.
         11    1    6    6    0    0 -0.24530074569E+02  0.22596200978E+02 -0.18919724096E+02  0.38344084509E+02  0.00000000000E+00 0. -1.
        -12    1    6    6    0    0  0.25586315831E+02 -0.22613240998E+02 -0.21066114733E+03  0.21341072424E+03  0.00000000000E+00 0.  1.
</event>
<event>
12    1  0.8461994E-002  0.2030366E+03  0.7818608E-02  0.1148997E+00
         21   -1    0    0  501  502  0.00000000000E+00  0.00000000000E+00  0.46193930934E+02  0.46193930934E+02  0.00000000000E+00 0. -1.
         21   -1    0    0  502  503 -0.00000000000E+00 -0.00000000000E+00 -0.14817033295E+04  0.14817033295E+04  0.00000000000E+00 0.  1.
         -6    2    1    2    0  503 -0.81392238988E+02 -0.41820498444E+02 -0.12054820955E+04  0.12210806466E+04  0.17168929024E+03 0.  0.
        -24    2    3    3    0    0 -0.66045237116E+01  0.35161745618E+02 -0.43534775567E+03  0.44348919887E+03  0.76648764275E+02 0.  0.
          6    2    1    2  501    0  0.81392238988E+02  0.41820498444E+02 -0.23002730311E+03  0.30681661384E+03  0.18124630669E+03 0.  0.
         24    2    5    5    0    0  0.36626499949E+01 -0.41763842868E+02 -0.10231693626E+03  0.13546825837E+03  0.78264040306E+02 0.  0.
          5    1    5    5  501    0  0.77729588993E+02  0.83584341312E+02 -0.12771036685E+03  0.17134835546E+03  0.47000000000E+01 0. -1.
        -11    1    6    6    0    0  0.34615976967E+02 -0.30881044048E+02 -0.88391636923E+02  0.99824777590E+02  0.00000000000E+00 0.  1.
         12    1    6    6    0    0 -0.30953326972E+02 -0.10882798820E+02 -0.13925299338E+02  0.35643480784E+02  0.00000000000E+00 0. -1.
         -5    1    3    3    0  503 -0.74787715276E+02 -0.76982244063E+02 -0.77013433978E+03  0.77759144772E+03  0.47000000000E+01 0.  1.
         11    1    4    4    0    0  0.34331674395E+02  0.24783755932E+02 -0.22190740269E+03  0.22591103071E+03  0.00000000000E+00 0. -1.
        -12    1    4    4    0    0 -0.40936198107E+02  0.10377989686E+02 -0.21344035297E+03  0.21757816817E+03  0.00000000000E+00 0.  1.
</event>
<event>
12    1  0.8461994E-002  0.1920626E+03  0.7818608E-02  0.1158568E+00
         21   -1    0    0  503  502  0.00000000000E+00  0.00000000000E+00  0.12722784053E+03  0.12722784053E+03  0.00000000000E+00 0.  1.
         21   -1    0    0  501  503 -0.00000000000E+00 -0.00000000000E+00 -0.59420341008E+03  0.59420341008E+03  0.00000000000E+00 0.  1.
          6    2    1    2  501    0 -0.22893938921E+02 -0.58427921720E+02 -0.49446433324E+03  0.52741149744E+03  0.17242376955E+03 0.  0.
         24    2    3    3    0    0 -0.54122800514E+02 -0.86836594491E+02 -0.43367110849E+03  0.45324815973E+03  0.83026455284E+02 0.  0.
         -6    2    1    2    0  502  0.22893938921E+02  0.58427921720E+02  0.27488763688E+02  0.19401975318E+03  0.18152156351E+03 0.  0.
        -24    2    5    5    0    0  0.15067952516E+02 -0.39855698621E+02  0.52257390522E+01  0.92833546824E+02  0.82311840957E+02 0.  0.
          5    1    3    3  501    0  0.31228861593E+02  0.28408672771E+02 -0.60793224744E+02  0.74163337706E+02  0.47000000000E+01 0. -1.
        -13    1    4    4    0    0  0.21624502639E+02 -0.22467930718E+02 -0.13150487308E+03  0.13515161363E+03  0.00000000000E+00 0.  1.
         14    1    4    4    0    0 -0.75747303153E+02 -0.64368663773E+02 -0.30216623542E+03  0.31809654609E+03  0.00000000000E+00 0. -1.
         -5    1    5    5    0  502  0.78259864051E+01  0.98283620341E+02  0.22263024635E+02  0.10118620636E+03  0.47000000000E+01 0.  1.
         13    1    6    6    0    0  0.45097582523E+02 -0.39838055667E+01 -0.28355683707E+01  0.45361912483E+02  0.00000000000E+00 0. -1.
        -14    1    6    6    0    0 -0.30029630007E+02 -0.35871893054E+02  0.80613074228E+01  0.47471634341E+02  0.00000000000E+00 0.  1.
</event>
<event>
12    1  0.8461994E-002  0.1997352E+03  0.7818608E-02  0.1150695E+00
         21   -1    0    0  503  502  0.00000000000E+00  0.00000000000E+00  0.23802532207E+04  0.23802532207E+04  0.00000000000E+00 0. -1.
         21   -1    0    0  501  503 -0.00000000000E+00 -0.00000000000E+00 -0.21039523667E+02  0.21039523667E+02  0.00000000000E+00 0.  1.
          6    2    1    2  501    0 -0.56409458305E+02  0.82863241103E+02  0.62830680973E+03  0.65929020981E+03  0.17275934096E+03 0.  0.
         24    2    3    3    0    0 -0.65964961166E+02  0.10114760157E+03  0.32994927017E+03  0.36018331105E+03  0.79267163888E+02 0.  0.
         -6    2    1    2    0  502  0.56409458305E+02 -0.82863241103E+02  0.17309068873E+04  0.17420025345E+04  0.16877746937E+03 0.  0.
        -24    2    5    5    0    0 -0.19311275790E+02 -0.34274903310E+02  0.48171098904E+03  0.48956214141E+03  0.77961009297E+02 0.  0.
          5    1    3    3  501    0  0.95555028609E+01 -0.18284360469E+02  0.29835753956E+03  0.29910689876E+03  0.47000000000E+01 0. -1.
        -13    1    4    4    0    0  0.39401017569E+00  0.24525730460E+01 -0.45427214510E+01  0.51775164650E+01  0.00000000000E+00 0.  1.
         14    1    4    4    0    0 -0.66358971341E+02  0.98695028525E+02  0.33449199162E+03  0.35500579459E+03  0.00000000000E+00 0. -1.
         -5    1    5    5    0  502  0.75720734095E+02 -0.48588337792E+02  0.12491958983E+04  0.12524403931E+04  0.47000000000E+01 0.  1.
         11    1    6    6    0    0 -0.26748481599E+02 -0.33668301316E+01  0.41271505618E+03  0.41359464989E+03  0.00000000000E+00 0. -1.
        -12    1    6    6    0    0  0.74372058092E+01 -0.30908073179E+02  0.68995932856E+02  0.75967491524E+02  0.00000000000E+00 0.  1.
</event>
<event>
12    1  0.8461994E-002  0.2149057E+03  0.7818608E-02  0.1137795E+00
         21   -1    0    0  501  502  0.00000000000E+00  0.00000000000E+00  0.15652179066E+03  0.15652179066E+03  0.00000000000E+00 0.  1.
         21   -1    0    0  502  503 -0.00000000000E+00 -0.00000000000E+00 -0.30465342288E+03  0.30465342288E+03  0.00000000000E+00 0. -1.
         -6    2    1    2    0  503 -0.34260774394E+02  0.12420022923E+03 -0.32278384592E+02  0.21703088477E+03  0.17164210797E+03 0.  0.
        -24    2    3    3    0    0  0.25009881052E+00  0.13319396931E+03 -0.65154532341E+02  0.16829877194E+03  0.79615749343E+02 0.  0.
          6    2    1    2  501    0  0.34260774394E+02 -0.12420022923E+03 -0.11585324763E+03  0.24414432877E+03  0.17200285080E+03 0.  0.
         24    2    5    5    0    0  0.47644416656E+02 -0.49175861587E+02  0.61095197038E+00  0.10488278559E+03  0.79446646560E+02 0.  0.
          5    1    5    5  501    0 -0.13383642262E+02 -0.75024367640E+02 -0.11646419960E+03  0.13926154318E+03  0.47000000000E+01 0. -1.
        -13    1    6    6    0    0  0.40548822053E+02 -0.66809140372E+02 -0.15844950845E+02  0.79741649559E+02  0.00000000000E+00 0.  1.
         14    1    6    6    0    0  0.70955946039E+01  0.17633278785E+02  0.16455902816E+02  0.25141136032E+02  0.00000000000E+00 0. -1.
         -5    1    3    3    0  503 -0.34510873205E+02 -0.89937400784E+01  0.32876147748E+02  0.48732112828E+02  0.47000000000E+01 0.  1.
         11    1    4    4    0    0 -0.35707911889E+02  0.32634234716E+02 -0.19632498395E+02  0.52206160941E+02  0.00000000000E+00 0. -1.
        -12    1    4    4    0    0  0.35958010700E+02  0.10055973459E+03 -0.45522033946E+02  0.11609261100E+03  0.00000000000E+00 0.  1.
</event>
<event>
12    1  0.8461994E-002  0.2009335E+03  0.7818608E-02  0.1149482E+00
         21   -1    0    0  501  502  0.00000000000E+00  0.00000000000E+00  0.17857273742E+03  0.17857273742E+03  0.00000000000E+00 0.  1.
         21   -1    0    0  502  503 -0.00000000000E+00 -0.00000000000E+00 -0.29534616921E+03  0.29534616921E+03  0.00000000000E+00 0.  1.
         -6    2    1    2    0  503  0.95171557454E+02 -0.37199952371E+02 -0.17570452839E+03  0.26692014184E+03  0.17301103728E+03 0.  0.
        -24    2    3    3    0    0  0.26107677737E+02  0.41874864417E+02 -0.62212579353E+02  0.11224254609E+03  0.79327605640E+02 0.  0.
          6    2    1    2  501    0 -0.95171557454E+02  0.37199952371E+02  0.58931096595E+02  0.20699876479E+03  0.17010041938E+03 0.  0.
         24    2    5    5    0    0 -0.57571988650E+02 -0.25068693301E+02  0.83138322705E+02  0.13019256970E+03  0.78071449593E+02 0.  0.
          5    1    5    5  501    0 -0.37599568804E+02  0.62268645672E+02 -0.24207226110E+02  0.76806195089E+02  0.47000000000E+01 0. -1.
        -13    1    6    6    0    0 -0.33145373316E+02  0.91789507432E+01  0.81083668792E+02  0.88076275203E+02  0.00000000000E+00 0.  1.
         14    1    6    6    0    0 -0.24426615335E+02 -0.34247644044E+02  0.20546539128E+01  0.42116294495E+02  0.00000000000E+00 0. -1.
         -5    1    3    3    0  503  0.69063879717E+02 -0.79074816788E+02 -0.11349194904E+03  0.15467759575E+03  0.47000000000E+01 0.  1.
         13    1    4    4    0    0  0.43854922701E+02 -0.27115125748E+01 -0.19784494410E+02  0.48187475184E+02  0.00000000000E+00 0. -1.
        -14    1    4    4    0    0 -0.17747244964E+02  0.44586376992E+02 -0.42428084943E+02  0.64055070908E+02  0.00000000000E+00 0.  1.
</event>
<event>
12    1  0.8461994E-002  0.2246961E+03  0.7818608E-02  0.1130719E+00
         21   -1    0    0  503  502  0.00000000000E+00  0.00000000000E+00  0.42257732584E+02  0.42257732584E+02  0.00000000000E+00 0.  1.
         21   -1    0    0  501  503 -0.00000000000E+00 -0.00000000000E+00 -0.12615644950E+04  0.12615644950E+04  0.00000000000E+00 0.  1.
          6    2    1    2  501    0  0.14068774447E+03  0.24707797492E+02 -0.44843900122E+03  0.50087426631E+03  0.17138837805E+03 0.  0.
         24    2    3    3    0    0  0.16461977426E+03 -0.26835690508E+01 -0.38827859243E+03  0.43041581190E+03  0.85968797679E+02 0.  0.
         -6    2    1    2    0  502 -0.14068774447E+03 -0.24707797492E+02 -0.77086776122E+03  0.80294796131E+03  0.17344972347E+03 0.  0.
        -24    2    5    5    0    0 -0.11606763488E+03 -0.17168953603E+02 -0.30190645188E+03  0.33325680360E+03  0.78397210575E+02 0.  0.
          5    1    3    3  501    0 -0.23932029795E+02  0.27391366543E+02 -0.60160408794E+02  0.70458454407E+02  0.47000000000E+01 0. -1.
        -13    1    4    4    0    0  0.72138518580E+01  0.24361948287E+02 -0.66308870971E+02  0.71009932773E+02  0.00000000000E+00 0.  1.
         14    1    4    4    0    0  0.15740592240E+03 -0.27045517337E+02 -0.32196972146E+03  0.35940587913E+03  0.00000000000E+00 0. -1.
         -5    1    5    5    0  502 -0.24620109581E+02 -0.75388438891E+01 -0.46896130934E+03  0.46969115770E+03  0.47000000000E+01 0.  1.
         11    1    6    6    0    0  0.17645359202E+01 -0.37440614012E+01  0.36337063620E+01  0.55077585926E+01  0.00000000000E+00 0. -1.
        -12    1    6    6    0    0 -0.11783217080E+03 -0.13424892202E+02 -0.30554015824E+03  0.32774904501E+03  0.00000000000E+00 0.  1.
</event>
<event>
12    1  0.8461994E-002  0.1751567E+03  0.7818608E-02  0.1172861E+00
         21   -1    0    0  501  502  0.00000000000E+00  0.00000000000E+00  0.98520712489E+02  0.98520712489E+02  0.00000000000E+00 0.  1.
         21   -1    0    0  502  503 -0.00000000000E+00 -0.00000000000E+00 -0.39680236136E+03  0.39680236136E+03  0.00000000000E+00 0.  1.
         -6    2    1    2    0  503 -0.28289707439E+02  0.10901974086E+02 -0.26576541571E+03  0.31829407765E+03  0.17251290704E+03 0.  0.
        -24    2    3    3    0    0  0.24968332199E+02  0.55734353362E+02 -0.19463989830E+03  0.21865828968E+03  0.78721165383E+02 0.  0.
          6    2    1    2  501    0  0.28289707439E+02 -0.10901974086E+02 -0.32516233165E+02  0.17702899620E+03  0.17135576877E+03 0.  0.
         24    2    5    5    0    0 -0.26438517591E+02  0.46006875931E+02 -0.10469103201E+02  0.94919546287E+02  0.78003142886E+02 0.  0.
          5    1    5    5  501    0  0.54728225029E+02 -0.56908850017E+02 -0.22047129964E+02  0.82109449911E+02  0.47000000000E+01 0. -1.
        -11    1    6    6    0    0  0.70607582437E+00 -0.17239357708E+02  0.13639613122E+02  0.21993931967E+02  0.00000000000E+00 0.  1.
         12    1    6    6    0    0 -0.27144593415E+02  0.63246233639E+02 -0.24108716322E+02  0.72925614320E+02  0.00000000000E+00 0. -1.
         -5    1    3    3    0  503 -0.53258039638E+02 -0.44832379276E+02 -0.71125517408E+02  0.99635787969E+02  0.47000000000E+01 0.  1.
         11    1    4    4    0    0 -0.27279978484E+02  0.20112513692E+02 -0.46099855968E+02  0.57218066669E+02  0.00000000000E+00 0. -1.
        -12    1    4    4    0    0  0.52248310683E+02  0.35621839670E+02 -0.14854004233E+03  0.16144022301E+03  0.00000000000E+00 0.  1.
</event>
<event>
12    1  0.8461994E-002  0.2058441E+03  0.7818608E-02  0.1146201E+00
         21   -1    0    0  501  502  0.00000000000E+00  0.00000000000E+00  0.16186154079E+03  0.16186154079E+03  0.00000000000E+00 0. -1.
         21   -1    0    0  502  503 -0.00000000000E+00 -0.00000000000E+00 -0.30057103584E+03  0.30057103584E+03  0.00000000000E+00 0. -1.
         -6    2    1    2    0  503  0.78928117749E+02  0.80596626782E+02 -0.15961265596E+03  0.25552984467E+03  0.16460205817E+03 0.  0.
        -24    2    3    3    0    0  0.11332734180E+03  0.60384500529E+02 -0.96559527773E+02  0.18076605907E+03  0.82844742776E+02 0.  0.
          6    2    1    2  501    0 -0.78928117749E+02 -0.80596626782E+02  0.20903160900E+02  0.20690273196E+03  0.17218110912E+03 0.  0.
         24    2    5    5    0    0 -0.11402415184E+03 -0.68608069947E+02 -0.11543259784E+02  0.15740205197E+03  0.83268149104E+02 0.  0.
          5    1    5    5  501    0  0.35096034089E+02 -0.11988556835E+02  0.32446420685E+02  0.49500679986E+02  0.47000000000E+01 0. -1.
        -11    1    6    6    0    0 -0.34648511339E+02 -0.12068256405E+02  0.33827368969E+02  0.49904439102E+02  0.00000000000E+00 0.  1.
         12    1    6    6    0    0 -0.79375640499E+02 -0.56539813542E+02 -0.45370628754E+02  0.10749761287E+03  0.00000000000E+00 0. -1.
         -5    1    3    3    0  503 -0.34399224049E+02  0.20212126253E+02 -0.63053128183E+02  0.74763785595E+02  0.47000000000E+01 0.  1.
         11    1    4    4    0    0  0.13473420677E+02  0.24644082062E+02 -0.63889732408E+02  0.69790842899E+02  0.00000000000E+00 0. -1.
        -12    1    4    4    0    0  0.99853921121E+02  0.35740418467E+02 -0.32669795365E+02  0.11097521617E+03  0.00000000000E+00 0.  1.
</event>
<event>
12    1  0.8461994E-002  0.2621227E+03  0.7818608E-02  0.1105883E+00
         21   -1    0    0  501  502  0.00000000000E+00  0.00000000000E+00  0.38027006663E+03  0.38027006663E+03  0.00000000000E+00 0.  1.
         21   -1    0    0  502  503 -0.00000000000E+00 -0.00000000000E+00 -0.25787915249E+03  0.25787915249E+03  0.00000000000E+00 0.  1.
         -6    2    1    2    0  503 -0.14441977268E+03  0.13349949044E+03 -0.11341753093E+03  0.28560781087E+03  0.17328906664E+03 0.  0.
        -24    2    3    3    0    0 -0.20034223730E+01  0.28611445765E+02 -0.57899079111E+01  0.78509491254E+02  0.72853199335E+02 0.  0.
          6    2    1    2  501    0  0.14441977268E+03 -0.13349949044E+03  0.23580844506E+03  0.35254140825E+03  0.17320691984E+03 0.  0.
         24    2    5    5    0    0  0.53594482700E+02 -0.13913509669E+03  0.13212068933E+03  0.21450433335E+03  0.79531684077E+02 0.  0.
          5    1    5    5  501    0  0.90825289982E+02  0.56356062480E+01  0.10368775574E+03  0.13803707490E+03  0.47000000000E+01 0. -1.
        -13    1    6    6    0    0  0.23464273041E+02 -0.29746570736E+02  0.82268196627E+02  0.90573101725E+02  0.00000000000E+00 0.  1.
         14    1    6    6    0    0  0.30130209659E+02 -0.10938852595E+03  0.49852492701E+02  0.12393123163E+03  0.00000000000E+00 0. -1.
         -5    1    3    3    0  503 -0.14241635031E+03  0.10488804467E+03 -0.10762762302E+03  0.20709831962E+03  0.47000000000E+01 0.  1.
         11    1    4    4    0    0  0.29470133836E+01 -0.16148099266E+02 -0.24708836736E+02  0.29664332297E+02  0.00000000000E+00 0. -1.
        -12    1    4    4    0    0 -0.49504357566E+01  0.44759545031E+02  0.18918928825E+02  0.48845158956E+02  0.00000000000E+00 0.  1.
</event>
<event>
12    1  0.8461994E-002  0.1923872E+03  0.7818608E-02  0.1156432E+00
         21   -1    0    0  501  502  0.00000000000E+00  0.00000000000E+00  0.29668818586E+03  0.29668818586E+03  0.00000000000E+00 0. -1.
         21   -1    0    0  502  503 -0.00000000000E+00 -0.00000000000E+00 -0.14087305802E+03  0.14087305802E+03  0.00000000000E+00 0. -1.
         -6    2    1    2    0  503  0.68541388385E+02 -0.52306888806E+02  0.32788585211E+01  0.19241513602E+03  0.17198517703E+03 0.  0.
        -24    2    3    3    0    0  0.56839682429E+02 -0.83951979121E+02 -0.42516890861E+02  0.13533902609E+03  0.78932133370E+02 0.  0.
          6    2    1    2  501    0 -0.68541388385E+02  0.52306888806E+02  0.15253626932E+03  0.24514610785E+03  0.17145077486E+03 0.  0.
         24    2    5    5    0    0 -0.37960518997E+02  0.43649607294E+02  0.12957375518E+02  0.10191728502E+03  0.82903257991E+02 0.  0.
          5    1    5    5  501    0 -0.30580869389E+02  0.86572815118E+01  0.13957889380E+03  0.14322882284E+03  0.47000000000E+01 0. -1.
        -11    1    6    6    0    0  0.23074931334E+02 -0.38206765721E+01 -0.69227980874E+00  0.23399343514E+02  0.00000000000E+00 0.  1.
         12    1    6    6    0    0 -0.61035450330E+02  0.47470283867E+02  0.13649655327E+02  0.78517941504E+02  0.00000000000E+00 0. -1.
         -5    1    3    3    0  503  0.11701705957E+02  0.31645090314E+02  0.45795749382E+02  0.57076109930E+02  0.47000000000E+01 0.  1.
         13    1    4    4    0    0  0.50304705859E+02 -0.29234316251E+02 -0.53623360348E+02  0.79124417554E+02  0.00000000000E+00 0. -1.
        -14    1    4    4    0    0  0.65349765696E+01 -0.54717662869E+02  0.11106469487E+02  0.56214608538E+02  0.00000000000E+00 0.  1.
</event>
<event>
12    1  0.8461994E-002  0.2820463E+03  0.7818608E-02  0.1094844E+00
         21   -1    0    0  501  502  0.00000000000E+00  0.00000000000E+00  0.11342334808E+03  0.11342334808E+03  0.00000000000E+00 0. -1.
         21   -1    0    0  502  503 -0.00000000000E+00 -0.00000000000E+00 -0.13767307861E+04  0.13767307861E+04  0.00000000000E+00 0.  1.
         -6    2    1    2    0  503  0.17606263726E+03 -0.13277217438E+03 -0.11565157149E+04  0.11904111516E+04  0.17585109757E+03 0.  0.
        -24    2    3    3    0    0  0.47125903630E+02 -0.74846297279E+01 -0.27888930799E+03  0.29454740625E+03  0.81866097644E+02 0.  0.
          6    2    1    2  501    0 -0.17606263726E+03  0.13277217438E+03 -0.10679172316E+03  0.29974298262E+03  0.17266986119E+03 0.  0.
         24    2    5    5    0    0 -0.10624162795E+03  0.76937952051E+02 -0.13567975603E+03  0.20567363497E+03  0.81767450432E+02 0.  0.
          5    1    5    5  501    0 -0.69821009308E+02  0.55834222326E+02  0.28888032869E+02  0.94069347646E+02  0.47000000000E+01 0. -1.
        -13    1    6    6    0    0 -0.10897991603E+03  0.89917113511E+02 -0.12305358499E+03  0.18736033246E+03  0.00000000000E+00 0.  1.
         14    1    6    6    0    0  0.27382880772E+01 -0.12979161460E+02 -0.12626171040E+02  0.18313302513E+02  0.00000000000E+00 0. -1.
         -5    1    3    3    0  503  0.12893673363E+03 -0.12528754465E+03 -0.87762640688E+03  0.89586374532E+03  0.47000000000E+01 0.  1.
         13    1    4    4    0    0 -0.98578296777E+01  0.23984555538E+02 -0.12133548782E+03  0.12407552666E+03  0.00000000000E+00 0. -1.
        -14    1    4    4    0    0  0.56983733308E+02 -0.31469185266E+02 -0.15755382016E+03  0.17047187959E+03  0.00000000000E+00 0.  1.
</event>
<event>
12    1  0.8461994E-002  0.2275444E+03  0.7818608E-02  0.1128473E+00
         21   -1    0    0  503  502  0.00000000000E+00  0.00000000000E+00  0.87841207699E+03  0.87841207699E+03  0.00000000000E+00 0.  1.
         21   -1    0    0  501  503 -0.00000000000E+00 -0.00000000000E+00 -0.13041587095E+03  0.13041587095E+03  0.00000000000E+00 0. -1.
          6    2    1    2  501    0  0.19440169376E+02 -0.14842617655E+03  0.42388153945E+00  0.22754479057E+03  0.17137153197E+03 0.  0.
         24    2    3    3    0    0  0.32143174475E+02 -0.97145725869E+01  0.10889208773E+02  0.87781102559E+02  0.80370333537E+02 0.  0.
         -6    2    1    2    0  502 -0.19440169376E+02  0.14842617655E+03  0.74757232450E+03  0.78128315736E+03  0.17067730238E+03 0.  0.
        -24    2    5    5    0    0  0.49358303984E+02  0.10357173757E+03  0.46029005865E+03  0.48245487740E+03  0.87934200622E+02 0.  0.
          5    1    3    3  501    0 -0.12703005099E+02 -0.13871160396E+03 -0.10465327234E+02  0.13976368801E+03  0.47000000000E+01 0. -1.
        -11    1    4    4    0    0  0.44763905029E+02  0.29182616574E+01 -0.22297686825E+02  0.50095012549E+02  0.00000000000E+00 0.  1.
         12    1    4    4    0    0 -0.12620730554E+02 -0.12632834244E+02  0.33186895599E+02  0.37686090010E+02  0.00000000000E+00 0. -1.
         -5    1    5    5    0  502 -0.68798473360E+02  0.44854438975E+02  0.28728226585E+03  0.29882827996E+03  0.47000000000E+01 0.  1.
         11    1    6    6    0    0  0.27126112474E+02  0.12882333972E+02  0.25696990219E+03  0.25871859450E+03  0.00000000000E+00 0. -1.
        -12    1    6    6    0    0  0.22232191511E+02  0.90689403600E+02  0.20332015646E+03  0.22373628290E+03  0.00000000000E+00 0.  1.
</event>
<event>
12    1  0.8461994E-002  0.1794792E+03  0.7818608E-02  0.1168821E+00
         21   -1    0    0  501  502  0.00000000000E+00  0.00000000000E+00  0.72872326229E+03  0.72872326229E+03  0.00000000000E+00 0. -1.
         21   -1    0    0  502  503 -0.00000000000E+00 -0.00000000000E+00 -0.50966555802E+02  0.50966555802E+02  0.00000000000E+00 0. -1.
         -6    2    1    2    0  503 -0.39284653048E+02 -0.14056646153E+02  0.19327907549E+03  0.26376045254E+03  0.17456202919E+03 0.  0.
        -24    2    3    3    0    0 -0.25187868936E+02 -0.25561218983E+02  0.21652449179E+03  0.23386874972E+03  0.80770860419E+02 0.  0.
          6    2    1    2  501    0  0.39284653048E+02  0.14056646153E+02  0.48447763099E+03  0.51592936555E+03  0.17240551626E+03 0.  0.
         24    2    5    5    0    0 -0.18486978005E+02  0.20971434180E+02  0.11675020650E+03  0.14359762587E+03  0.78791484505E+02 0.  0.
          5    1    5    5  501    0  0.57771631053E+02 -0.69147880272E+01  0.36772742449E+03  0.37233173968E+03  0.47000000000E+01 0. -1.
        -13    1    6    6    0    0 -0.41443633456E+02  0.10092060535E+02  0.10898247084E+03  0.11703248861E+03  0.00000000000E+00 0.  1.
         14    1    6    6    0    0  0.22956655451E+02  0.10879373645E+02  0.77677356606E+01  0.26565137261E+02  0.00000000000E+00 0. -1.
         -5    1    3    3    0  503 -0.14096784112E+02  0.11504572830E+02 -0.23245416301E+02  0.29891702817E+02  0.47000000000E+01 0.  1.
         11    1    4    4    0    0 -0.53888871218E+02 -0.14926198985E+02  0.11575970034E+03  0.12855780832E+03  0.00000000000E+00 0. -1.
        -12    1    4    4    0    0  0.28701002282E+02 -0.10635019999E+02  0.10076479145E+03  0.10531094140E+03  0.00000000000E+00 0.  1.
</event>
<event>
12    1  0.8461994E-002  0.2042411E+03  0.7818608E-02  0.1146305E+00
         21   -1    0    0  501  502  0.00000000000E+00  0.00000000000E+00  0.30278242806E+02  0.30278242806E+02  0.00000000000E+00 0.  1.
         21   -1    0    0  502  503 -0.00000000000E+00 -0.00000000000E+00 -0.14284759300E+04  0.14284759300E+04  0.00000000000E+00 0. -1.
         -6    2    1    2    0  503 -0.70293167878E+02  0.86334172082E+02 -0.84156127303E+03  0.86599064072E+03  0.17122994724E+03 0.  0.
        -24    2    3    3    0    0 -0.17709338320E+01  0.90815623413E+02 -0.35986810407E+03  0.37940480144E+03  0.78691405930E+02 0.  0.
          6    2    1    2  501    0  0.70293167878E+02 -0.86334172082E+02 -0.55663641417E+03  0.59276353209E+03  0.17067451092E+03 0.  0.
         24    2    5    5    0    0  0.10139005155E+02 -0.10126557178E+03 -0.26817249127E+03  0.29767880730E+03  0.79615776006E+02 0.  0.
          5    1    5    5  501    0  0.60154162723E+02  0.14931399695E+02 -0.28846392290E+03  0.29508472479E+03  0.47000000000E+01 0. -1.
        -13    1    6    6    0    0  0.29889722747E+02 -0.71134244931E+01 -0.43304499794E+02  0.53096855239E+02  0.00000000000E+00 0.  1.
         14    1    6    6    0    0 -0.19750717592E+02 -0.94152147284E+02 -0.22486799148E+03  0.24458195206E+03  0.00000000000E+00 0. -1.
         -5    1    3    3    0  503 -0.68522234046E+02 -0.44814513309E+01 -0.48169316896E+03  0.48658583928E+03  0.47000000000E+01 0.  1.
         11    1    4    4    0    0  0.33762165842E+02  0.16338194153E+02 -0.12145827238E+03  0.12711778932E+03  0.00000000000E+00 0. -1.
        -12    1    4    4    0    0 -0.35533099674E+02  0.74477429260E+02 -0.23840983169E+03  0.25228701212E+03  0.00000000000E+00 0.  1.
</event>
<event>
12    1  0.8461994E-002  0.2067757E+03  0.7818608E-02  0.1144192E+00
         21   -1    0    0  503  502  0.00000000000E+00  0.00000000000E+00  0.17780584289E+03  0.17780584289E+03  0.00000000000E+00 0. -1.
         21   -1    0    0  501  503 -0.00000000000E+00 -0.00000000000E+00 -0.35021341205E+03  0.35021341205E+03  0.00000000000E+00 0.  1.
          6    2    1    2  501    0 -0.11198111976E+03 -0.24588559662E+02 -0.23414506827E+03  0.31222373458E+03  0.17180040451E+03 0.  0.
         24    2    3    3    0    0 -0.29821026955E+02  0.47372722643E+02 -0.10125070021E+03  0.14014320093E+03  0.79088203756E+02 0.  0.
         -6    2    1    2    0  502  0.11198111976E+03  0.24588559662E+02  0.61737499112E+02  0.21579552036E+03  0.17208085123E+03 0.  0.
        -24    2    5    5    0    0  0.82766582985E+02  0.76753743965E+01  0.10784791247E+03  0.15845613412E+03  0.81042924332E+02 0.  0.
          5    1    3    3  501    0 -0.82160092805E+02 -0.71961282306E+02 -0.13289436806E+03  0.17208053365E+03  0.47000000000E+01 0. -1.
        -13    1    4    4    0    0 -0.31204832066E+02 -0.14577066653E+02 -0.43043600313E+02  0.55126980186E+02  0.00000000000E+00 0.  1.
         14    1    4    4    0    0  0.13838051109E+01  0.61949789296E+02 -0.58207099898E+02  0.85016220740E+02  0.00000000000E+00 0. -1.
         -5    1    5    5    0  502  0.29214536775E+02  0.16913185266E+02 -0.46110413355E+02  0.57339386242E+02  0.47000000000E+01 0.  1.
         13    1    6    6    0    0  0.48001881180E+02  0.36906732878E+02  0.92415976934E+02  0.11048529459E+03  0.00000000000E+00 0. -1.
        -14    1    6    6    0    0  0.34764701805E+02 -0.29231358481E+02  0.15431935533E+02  0.47970839523E+02  0.00000000000E+00 0.  1.
</event>
<event>
12    1  0.8461994E-002  0.5944880E+03  0.7818608E-02  0.9917017E-01
         21   -1    0    0  503  502  0.00000000000E+00  0.00000000000E+00  0.19992422231E+04  0.19992422231E+04  0.00000000000E+00 0.  1.
         21   -1    0    0  501  503 -0.00000000000E+00 -0.00000000000E+00 -0.18411553670E+03  0.18411553670E+03  0.00000000000E+00 0. -1.
          6    2    1    2  501    0 -0.42532483403E+03  0.37736378659E+03  0.11263043079E+04  0.12734719435E+04  0.17281422119E+03 0.  0.
         24    2    3    3    0    0 -0.38097734133E+03  0.34343301280E+03  0.10886447768E+04  0.12059565542E+04  0.78062740982E+02 0.  0.
         -6    2    1    2    0  502  0.42532483403E+03 -0.37736378659E+03  0.68882237845E+03  0.90988581624E+03  0.17352604322E+03 0.  0.
        -24    2    5    5    0    0  0.34325685594E+03 -0.26875001075E+03  0.43067348945E+03  0.61800391509E+03  0.79983417794E+02 0.  0.
          5    1    3    3  501    0 -0.44347492701E+02  0.33930773785E+02  0.37659531085E+02  0.67515389357E+02  0.47000000000E+01 0. -1.
        -13    1    4    4    0    0 -0.28250046997E+03  0.26202409984E+03  0.73380480619E+03  0.82881399482E+03  0.00000000000E+00 0.  1.
         14    1    4    4    0    0 -0.98476871357E+02  0.81408912959E+02  0.35483997064E+03  0.37714255934E+03  0.00000000000E+00 0. -1.
         -5    1    5    5    0  502  0.82067978091E+02 -0.10861377584E+03  0.25814888900E+03  0.29188190115E+03  0.47000000000E+01 0.  1.
         11    1    6    6    0    0  0.22266065995E+02 -0.50109042324E+02  0.51754423083E+02  0.75400358926E+02  0.00000000000E+00 0. -1.
        -12    1    6    6    0    0  0.32099078995E+03 -0.21864096842E+03  0.37891906637E+03  0.54260355616E+03  0.00000000000E+00 0.  1.
</event>
<event>
12    1  0.8461994E-002  0.1817022E+03  0.7818608E-02  0.1166338E+00
         21   -1    0    0  501  502  0.00000000000E+00  0.00000000000E+00  0.26652329965E+03  0.26652329965E+03  0.00000000000E+00 0.  1.
         21   -1    0    0  502  503 -0.00000000000E+00 -0.00000000000E+00 -0.12499482423E+03  0.12499482423E+03  0.00000000000E+00 0.  1.
         -6    2    1    2    0  503  0.69790994030E+01  0.56775217875E+02  0.92837812041E+02  0.20340521704E+03  0.17170524098E+03 0.  0.
        -24    2    3    3    0    0  0.16384055893E+02  0.79363506361E+02  0.12063031020E+03  0.16607966363E+03  0.80397633686E+02 0.  0.
          6    2    1    2  501    0 -0.69790994030E+01 -0.56775217875E+02  0.48690663371E+02  0.18811290684E+03  0.17246318978E+03 0.  0.
         24    2    5    5    0    0 -0.27616587226E+02  0.15065146546E+02 -0.20009277719E+02  0.86482617215E+02  0.78033565567E+02 0.  0.
          5    1    5    5  501    0  0.20637487823E+02 -0.71840364420E+02  0.68699941091E+02  0.10163028963E+03  0.47000000000E+01 0. -1.
        -11    1    6    6    0    0  0.21978559177E+02 -0.78645484222E+01 -0.21623441235E+02  0.31819512822E+02  0.00000000000E+00 0.  1.
         12    1    6    6    0    0 -0.49595146403E+02  0.22929694968E+02  0.16141635159E+01  0.54663104393E+02  0.00000000000E+00 0. -1.
         -5    1    3    3    0  503 -0.94049564899E+01 -0.22588288487E+02 -0.27792498161E+02  0.37325553410E+02  0.47000000000E+01 0.  1.
         13    1    4    4    0    0  0.17658744926E+02  0.60037191644E+02  0.23199096671E+02  0.66741993821E+02  0.00000000000E+00 0. -1.
        -14    1    4    4    0    0 -0.12746890334E+01  0.19326314717E+02  0.97431213531E+02  0.99337669808E+02  0.00000000000E+00 0.  1.
</event>
<event>
12    1  0.8461994E-002  0.2135066E+03  0.7818608E-02  0.1138895E+00
         21   -1    0    0  501  502  0.00000000000E+00  0.00000000000E+00  0.31410934610E+03  0.31410934610E+03  0.00000000000E+00 0. -1.
         21   -1    0    0  502  503 -0.00000000000E+00 -0.00000000000E+00 -0.17860997034E+03  0.17860997034E+03  0.00000000000E+00 0. -1.
         -6    2    1    2    0  503  0.55430390680E+02 -0.11406488631E+03  0.17489468398E+03  0.27599495462E+03  0.17176069980E+03 0.  0.
        -24    2    3    3    0    0 -0.26912023665E+02 -0.63790473233E+02  0.53731992060E+02  0.12104245312E+03  0.83490520378E+02 0.  0.
          6    2    1    2  501    0 -0.55430390680E+02  0.11406488631E+03 -0.39395308221E+02  0.21672436181E+03  0.17127209987E+03 0.  0.
         24    2    5    5    0    0 -0.19795014234E+02  0.14384363133E+03 -0.26399632807E+02  0.16827200078E+03  0.80843631608E+02 0.  0.
          5    1    5    5  501    0 -0.35635376445E+02 -0.29778745027E+02 -0.12995675414E+02  0.48452361029E+02  0.47000000000E+01 0. -1.
        -13    1    6    6    0    0  0.64725978720E+01  0.13399718256E+02 -0.31789873012E+02  0.35100470063E+02  0.00000000000E+00 0.  1.
         14    1    6    6    0    0 -0.26267612106E+02  0.13044391308E+03  0.53902402050E+01  0.13317153072E+03  0.00000000000E+00 0. -1.
         -5    1    3    3    0  503  0.82342414345E+02 -0.50274413074E+02  0.12116269192E+03  0.15495250150E+03  0.47000000000E+01 0.  1.
         13    1    4    4    0    0  0.91188293807E+01 -0.48990199276E+02  0.63660744810E+02  0.80844808765E+02  0.00000000000E+00 0. -1.
        -14    1    4    4    0    0 -0.36030853046E+02 -0.14800273956E+02 -0.99287527501E+01  0.40197644353E+02  0.00000000000E+00 0.  1.
</event>
<event>
12    1  0.8461994E-002  0.1822550E+03  0.7818608E-02  0.1165753E+00
         21   -1    0    0  501  502  0.00000000000E+00  0.00000000000E+00  0.52241724106E+03  0.52241724106E+03  0.00000000000E+00 0.  1.
         21   -1    0    0  502  503 -0.00000000000E+00 -0.00000000000E+00 -0.64158495376E+02  0.64158495376E+02  0.00000000000E+00 0.  1.
         -6    2    1    2    0  503  0.21621207838E+02  0.53856553987E+02  0.26099619923E+03  0.31833300428E+03  0.17276828576E+03 0.  0.
        -24    2    3    3    0    0  0.36556384781E+02  0.77493510833E+02  0.10284087529E+03  0.15765642935E+03  0.83292800384E+02 0.  0.
          6    2    1    2  501    0 -0.21621207838E+02 -0.53856553987E+02  0.19726254645E+03  0.26824273216E+03  0.17226040197E+03 0.  0.
         24    2    5    5    0    0 -0.16485594471E+02 -0.10103035442E+03  0.16742168184E+03  0.21199053956E+03  0.80193902337E+02 0.  0.
          5    1    5    5  501    0 -0.51356133666E+01  0.47173800432E+02  0.29840864614E+02  0.56252192604E+02  0.47000000000E+01 0. -1.
        -13    1    6    6    0    0 -0.29793581384E+02 -0.22677128955E+02  0.15474569743E+02  0.40513849213E+02  0.00000000000E+00 0.  1.
         14    1    6    6    0    0  0.13307986913E+02 -0.78353225463E+02  0.15194711210E+03  0.17147669034E+03  0.00000000000E+00 0. -1.
         -5    1    3    3    0  503 -0.14935176943E+02 -0.23636956847E+02  0.15815532394E+03  0.16067657493E+03  0.47000000000E+01 0.  1.
         11    1    4    4    0    0  0.15988901945E+02 -0.13583516212E+02  0.34052249063E+01  0.21254469054E+02  0.00000000000E+00 0. -1.
        -12    1    4    4    0    0  0.20567482835E+02  0.91077027046E+02  0.99435650383E+02  0.13640196030E+03  0.00000000000E+00 0.  1.
</event>
<event>
12    1  0.8461994E-002  0.2707651E+03  0.7818608E-02  0.1101001E+00
         21   -1    0    0  501  502  0.00000000000E+00  0.00000000000E+00  0.89023728939E+02  0.89023728939E+02  0.00000000000E+00 0.  1.
         21   -1    0    0  502  503 -0.00000000000E+00 -0.00000000000E+00 -0.83615370081E+03  0.83615370081E+03  0.00000000000E+00 0. -1.
         -6    2    1    2    0  503  0.20150330511E+03  0.50617454269E+02 -0.43830762019E+03  0.51519640284E+03  0.17363195251E+03 0.  0.
        -24    2    3    3    0    0  0.87842467658E+02 -0.24817018289E+02 -0.13306901749E+03  0.18082858112E+03  0.81605323441E+02 0.  0.
          6    2    1    2  501    0 -0.20150330511E+03 -0.50617454269E+02 -0.30882235169E+03  0.40998102691E+03  0.17189383026E+03 0.  0.
         24    2    5    5    0    0 -0.77270881765E+02 -0.42663480273E+02 -0.23921845308E+03  0.26727940319E+03  0.80136442123E+02 0.  0.
          5    1    5    5  501    0 -0.12423242335E+03 -0.79539739959E+01 -0.69603898604E+02  0.14270162373E+03  0.47000000000E+01 0. -1.
        -11    1    6    6    0    0 -0.11709544955E+02 -0.30153972056E+02 -0.19782232925E+02  0.37917175703E+02  0.00000000000E+00 0.  1.
         12    1    6    6    0    0 -0.65561336810E+02 -0.12509508217E+02 -0.21943622016E+03  0.22936222748E+03  0.00000000000E+00 0. -1.
         -5    1    3    3    0  503  0.11366083746E+03  0.75434472558E+02 -0.30523860270E+03  0.33436782172E+03  0.47000000000E+01 0.  1.
         13    1    4    4    0    0  0.53412272476E+02 -0.30078158171E+02 -0.13250176033E+03  0.14599411954E+03  0.00000000000E+00 0. -1.
        -14    1    4    4    0    0  0.34430195182E+02  0.52611398820E+01 -0.56725716216E+00  0.34834461583E+02  0.00000000000E+00 0.  1.
</event>
<event>
12    1  0.8461994E-002  0.1952211E+03  0.7818608E-02  0.1154240E+00
         21   -1    0    0  503  502  0.00000000000E+00  0.00000000000E+00  0.60732950426E+03  0.60732950426E+03  0.00000000000E+00 0. -1.
         21   -1    0    0  501  503 -0.00000000000E+00 -0.00000000000E+00 -0.12671288001E+03  0.12671288001E+03  0.00000000000E+00 0. -1.
          6    2    1    2  501    0  0.54474090666E+01 -0.90472068280E+02 -0.21093667596E+02  0.19635738253E+03  0.17290578203E+03 0.  0.
         24    2    3    3    0    0  0.49563282072E+02 -0.85862497497E+02 -0.57511487954E+02  0.13877434655E+03  0.78242319793E+02 0.  0.
         -6    2    1    2    0  502 -0.54474090666E+01  0.90472068280E+02  0.50171029185E+03  0.53768500173E+03  0.17081298175E+03 0.  0.
        -24    2    5    5    0    0  0.30488014459E+02 -0.61710085043E+01  0.24803101230E+03  0.26381184527E+03  0.84319074195E+02 0.  0.
          5    1    3    3  501    0 -0.44115873006E+02 -0.46095707831E+01  0.36417820358E+02  0.57583035987E+02  0.47000000000E+01 0. -1.
        -13    1    4    4    0    0  0.63304679398E+02 -0.57650473998E+02 -0.16603609432E+02  0.87216623599E+02  0.00000000000E+00 0.  1.
         14    1    4    4    0    0 -0.13741397326E+02 -0.28212023499E+02 -0.40907878522E+02  0.51557722947E+02  0.00000000000E+00 0. -1.
         -5    1    5    5    0  502 -0.35935423526E+02  0.96643076784E+02  0.25367927955E+03  0.27387315646E+03  0.47000000000E+01 0.  1.
         11    1    6    6    0    0 -0.62609771478E+01 -0.35196586682E+02  0.16162902343E+03  0.16553531576E+03  0.00000000000E+00 0. -1.
        -12    1    6    6    0    0  0.36748991607E+02  0.29025578178E+02  0.86401988866E+02  0.98276529511E+02  0.00000000000E+00 0.  1.
</event>
<event>
12    1  0.8461994E-002  0.1993445E+03  0.7818608E-02  0.1150315E+00
         21   -1    0    0  501  502  0.00000000000E+00  0.00000000000E+00  0.11276590570E+04  0.11276590570E+04  0.00000000000E+00 0.  1.
         21   -1    0    0  502  503 -0.00000000000E+00 -0.00000000000E+00 -0.35632402532E+02  0.35632402532E+02  0.00000000000E+00 0.  1.
         -6    2    1    2    0  503  0.98835540759E+02 -0.19431543826E+02  0.48343359585E+03  0.52288242249E+03  0.17190676875E+03 0.  0.
        -24    2    3    3    0    0  0.12394227654E+03  0.36984797651E+01  0.27903184186E+03  0.31559635637E+03  0.79793011704E+02 0.  0.
          6    2    1    2  501    0 -0.98835540759E+02  0.19431543826E+02  0.60859305863E+03  0.64040903705E+03  0.17202376205E+03 0.  0.
         24    2    5    5    0    0 -0.12711884252E+03  0.13434646249E+01  0.56633829499E+03  0.58623636112E+03  0.82298248487E+02 0.  0.
          5    1    5    5  501    0  0.28283301759E+02  0.18088079201E+02  0.42254763645E+02  0.54172675937E+02  0.47000000000E+01 0. -1.
        -13    1    6    6    0    0 -0.10686735930E+03 -0.21595117789E+02  0.51546966269E+03  0.52687375598E+03  0.00000000000E+00 0.  1.
         14    1    6    6    0    0 -0.20251483217E+02  0.22938582413E+02  0.50868632303E+02  0.59362605132E+02  0.00000000000E+00 0. -1.
         -5    1    3    3    0  503 -0.25106735784E+02 -0.23130023591E+02  0.20440175399E+03  0.20728606612E+03  0.47000000000E+01 0.  1.
         13    1    4    4    0    0  0.13155380893E+03  0.13479357429E+00  0.27743021511E+03  0.30704062772E+03  0.00000000000E+00 0. -1.
        -14    1    4    4    0    0 -0.76115323846E+01  0.35636861908E+01  0.16016267431E+01  0.85557286500E+01  0.00000000000E+00 0.  1.
</event>
<event>
12    1  0.8461994E-002  0.2833875E+03  0.7818608E-02  0.1094441E+00
         21   -1    0    0  503  502  0.00000000000E+00  0.00000000000E+00  0.20463017548E+03  0.20463017548E+03  0.00000000000E+00 0. -1.
         21   -1    0    0  501  503 -0.00000000000E+00 -0.00000000000E+00 -0.90162538169E+03  0.90162538169E+03  0.00000000000E+00 0.  1.
          6    2    1    2  501    0  0.10215958527E+03 -0.19585841149E+03 -0.76543981897E+03  0.81471968241E+03  0.17050790661E+03 0.  0.
         24    2    3    3    0    0  0.26713043149E+02 -0.41624097052E+02 -0.39668305017E+03  0.40792237537E+03  0.81222348600E+02 0.  0.
         -6    2    1    2    0  502 -0.10215958527E+03  0.19585841149E+03  0.68444612765E+02  0.29153587476E+03  0.17751451502E+03 0.  0.
        -24    2    5    5    0    0 -0.10140116746E+03  0.14302230205E+03  0.11246218544E+03  0.22260209232E+03  0.78526254862E+02 0.  0.
          5    1    3    3  501    0  0.75446542121E+02 -0.15423431444E+03 -0.36875676881E+03  0.40679730703E+03  0.47000000000E+01 0. -1.
        -13    1    4    4    0    0 -0.21933907274E+02 -0.30864751948E+02 -0.25364404420E+03  0.25645473355E+03  0.00000000000E+00 0.  1.
         14    1    4    4    0    0  0.48646950423E+02 -0.10759345104E+02 -0.14303900596E+03  0.15146764182E+03  0.00000000000E+00 0. -1.
         -5    1    5    5    0  502 -0.75841780535E+00  0.52836109435E+02 -0.44017572674E+02  0.68933782443E+02  0.47000000000E+01 0.  1.
         13    1    6    6    0    0 -0.57596627290E+00  0.39331990491E+02  0.53527482758E+02  0.66426866730E+02  0.00000000000E+00 0. -1.
        -14    1    6    6    0    0 -0.10082520119E+03  0.10369031156E+03  0.58934702681E+02  0.15617522559E+03  0.00000000000E+00 0.  1.
</event>
<event>
12    1  0.8461994E-002  0.2127622E+03  0.7818608E-02  0.1139636E+00
         21   -1    0    0  503  502  0.00000000000E+00  0.00000000000E+00  0.36488451187E+02  0.36488451187E+02  0.00000000000E+00 0. -1.
         21   -1    0    0  501  503 -0.00000000000E+00 -0.00000000000E+00 -0.12482097128E+04  0.12482097128E+04  0.00000000000E+00 0. -1.
          6    2    1    2  501    0  0.11935760232E+03  0.34162383425E+02 -0.67393263909E+03  0.70635195044E+03  0.17127337850E+03 0.  0.
         24    2    3    3    0    0  0.10721588753E+03  0.81655011264E+02 -0.57652322819E+03  0.59720226300E+03  0.78158319324E+02 0.  0.
         -6    2    1    2    0  502 -0.11935760232E+03 -0.34162383425E+02 -0.53778862249E+03  0.57834621351E+03  0.17278435849E+03 0.  0.
        -24    2    5    5    0    0 -0.12072430140E+03 -0.62359290891E+02 -0.52296355908E+03  0.54611570061E+03  0.79299660884E+02 0.  0.
          5    1    3    3  501    0  0.12141714785E+02 -0.47492627839E+02 -0.97409410902E+02  0.10914968744E+03  0.47000000000E+01 0. -1.
        -11    1    4    4    0    0 -0.74794229056E+01  0.26711953040E+02 -0.80945228313E+02  0.85566349629E+02  0.00000000000E+00 0.  1.
         12    1    4    4    0    0  0.11469531044E+03  0.54943058224E+02 -0.49557799988E+03  0.51163591337E+03  0.00000000000E+00 0. -1.
         -5    1    5    5    0  502  0.13666990850E+01  0.28196907466E+02 -0.14825063404E+02  0.32230512903E+02  0.47000000000E+01 0.  1.
         13    1    6    6    0    0 -0.44230215187E+02 -0.15865233770E+02 -0.69455350487E+02  0.83857398537E+02  0.00000000000E+00 0. -1.
        -14    1    6    6    0    0 -0.76494086215E+02 -0.46494057121E+02 -0.45350820859E+03  0.46225830207E+03  0.00000000000E+00 0.  1.
</event>
<event>
12    1  0.8461994E-002  0.2930520E+03  0.7818608E-02  0.1088822E+00
         21   -1    0    0  501  502  0.00000000000E+00  0.00000000000E+00  0.48362762428E+03  0.48362762428E+03  0.00000000000E+00 0.  1.
         21   -1    0    0  502  503 -0.00000000000E+00 -0.00000000000E+00 -0.20792214938E+03  0.20792214938E+03  0.00000000000E+00 0. -1.
         -6    2    1    2    0  503  0.12557334103E+03  0.20142112963E+03  0.50932758744E+01  0.29266327527E+03  0.17113361971E+03 0.  0.
        -24    2    3    3    0    0  0.37833255518E+02  0.23565728649E+02 -0.17818363345E+02  0.92968759886E+02  0.79617821199E+02 0.  0.
          6    2    1    2  501    0 -0.12557334103E+03 -0.20142112963E+03  0.27061219902E+03  0.39888649839E+03  0.17187303716E+03 0.  0.
         24    2    5    5    0    0 -0.12125577086E+03 -0.11704276469E+03  0.24906554619E+03  0.31156698093E+03  0.81476171817E+02 0.  0.
          5    1    5    5  501    0 -0.43175701713E+01 -0.84378364936E+02  0.21546652833E+02  0.87319517462E+02  0.47000000000E+01 0. -1.
        -13    1    6    6    0    0  0.32621953217E+01 -0.40308740012E+02  0.45049981664E+02  0.60538725520E+02  0.00000000000E+00 0.  1.
         14    1    6    6    0    0 -0.12451796618E+03 -0.76734024677E+02  0.20401556453E+03  0.25102825541E+03  0.00000000000E+00 0. -1.
         -5    1    3    3    0  503  0.87740085514E+02  0.17785540098E+03  0.22911639219E+02  0.19969451538E+03  0.47000000000E+01 0.  1.
         11    1    4    4    0    0  0.57255763467E+02  0.19492230900E+02  0.73388359322E+01  0.60926414866E+02  0.00000000000E+00 0. -1.
        -12    1    4    4    0    0 -0.19422507948E+02  0.40734977492E+01 -0.25157199277E+02  0.32042345020E+02  0.00000000000E+00 0.  1.
</event>
<event>
12    1  0.8461994E-002  0.2389454E+03  0.7818608E-02  0.1120588E+00
         21   -1    0    0  501  502  0.00000000000E+00  0.00000000000E+00  0.22391831709E+03  0.22391831709E+03  0.00000000000E+00 0.  1.
         21   -1    0    0  502  503 -0.00000000000E+00 -0.00000000000E+00 -0.34253529267E+03  0.34253529267E+03  0.00000000000E+00 0.  1.
         -6    2    1    2    0  503  0.12990649405E+03 -0.10322542506E+03 -0.20301937638E+03  0.31354705264E+03  0.17194098249E+03 0.  0.
        -24    2    3    3    0    0  0.13660204378E+03 -0.25510744032E+02 -0.12974673713E+03  0.20642389130E+03  0.80409518567E+02 0.  0.
          6    2    1    2  501    0 -0.12990649405E+03  0.10322542506E+03  0.84402400794E+02  0.25290655712E+03  0.17119221887E+03 0.  0.
         24    2    5    5    0    0 -0.90699340274E+02  0.72329202821E+02  0.12605753831E+03  0.18772206558E+03  0.76754068504E+02 0.  0.
          5    1    5    5  501    0 -0.39207153780E+02  0.30896222241E+02 -0.41655137521E+02  0.65184491547E+02  0.47000000000E+01 0. -1.
        -13    1    6    6    0    0 -0.83402189280E+01  0.53475995541E+02  0.56991195806E+02  0.78595405401E+02  0.00000000000E+00 0.  1.
         14    1    6    6    0    0 -0.82359121347E+02  0.18853207280E+02  0.69066342509E+02  0.10912666018E+03  0.00000000000E+00 0. -1.
         -5    1    3    3    0  503 -0.66955497297E+01 -0.77714681030E+02 -0.73272639242E+02  0.10712316134E+03  0.47000000000E+01 0.  1.
         11    1    4    4    0    0  0.82367273894E+02 -0.13793114146E+02 -0.12553669764E+03  0.15077824864E+03  0.00000000000E+00 0. -1.
        -12    1    4    4    0    0  0.54234769890E+02 -0.11717629886E+02 -0.42100394908E+01  0.55645642666E+02  0.00000000000E+00 0.  1.
</event>
<event>
12    1  0.8461994E-002  0.2489142E+03  0.7818608E-02  0.1114144E+00
         21   -1    0    0  501  502  0.00000000000E+00  0.00000000000E+00  0.10815076441E+04  0.10815076441E+04  0.00000000000E+00 0.  1.
         21   -1    0    0  502  503 -0.00000000000E+00 -0.00000000000E+00 -0.81901402178E+02  0.81901402178E+02  0.00000000000E+00 0.  1.
         -6    2    1    2    0  503 -0.17600451169E+03  0.22155997878E+02  0.17884280035E+03  0.30573141338E+03  0.17325840099E+03 0.  0.
        -24    2    3    3    0    0 -0.10815472128E+03  0.19120440227E+02  0.19293726368E+03  0.23620765797E+03  0.80661236027E+02 0.  0.
          6    2    1    2  501    0  0.17600451169E+03 -0.22155997878E+02  0.82076344155E+03  0.85767763287E+03  0.17461334019E+03 0.  0.
         24    2    5    5    0    0  0.16645234089E+03 -0.27719550156E+02  0.82428057791E+03  0.84516135031E+03  0.79902951678E+02 0.  0.
          5    1    5    5  501    0  0.95521707975E+01  0.55635522782E+01 -0.35171363672E+01  0.12516282560E+02  0.47000000000E+01 0. -1.
        -13    1    6    6    0    0  0.13971130619E+03 -0.43376340439E+02  0.54952056245E+03  0.56865948031E+03  0.00000000000E+00 0.  1.
         14    1    6    6    0    0  0.26741034699E+02  0.15656790283E+02  0.27476001546E+03  0.27650187000E+03  0.00000000000E+00 0. -1.
         -5    1    3    3    0  503 -0.67849790413E+02  0.30355576511E+01 -0.14094463334E+02  0.69523755408E+02  0.47000000000E+01 0.  1.
         11    1    4    4    0    0  0.56421104336E+01 -0.11787443472E+02  0.45915890615E+02  0.47739357397E+02  0.00000000000E+00 0. -1.
        -12    1    4    4    0    0 -0.11379683171E+03  0.30907883698E+02  0.14702137307E+03  0.18846830057E+03  0.00000000000E+00 0.  1.
</event>
<event>
12    1  0.8461994E-002  0.2238496E+03  0.7818608E-02  0.1131263E+00
         21   -1    0    0  503  502  0.00000000000E+00  0.00000000000E+00  0.22603131646E+03  0.22603131646E+03  0.00000000000E+00 0. -1.
         21   -1    0    0  501  503 -0.00000000000E+00 -0.00000000000E+00 -0.30330340678E+03  0.30330340678E+03  0.00000000000E+00 0.  1.
          6    2    1    2  501    0 -0.12486712805E+03  0.67923466202E+02 -0.17684285748E+03  0.28433879939E+03  0.17137607671E+03 0.  0.
         24    2    3    3    0    0 -0.12099251242E+03 -0.90796040972E+01 -0.11993987855E+03  0.18839858627E+03  0.79917617404E+02 0.  0.
         -6    2    1    2    0  502  0.12486712805E+03 -0.67923466202E+02  0.99570767154E+02  0.24499592386E+03  0.17292561438E+03 0.  0.
        -24    2    5    5    0    0  0.38040130917E+02  0.28808124442E+02  0.52913418419E+02  0.10681153165E+03  0.79573323735E+02 0.  0.
          5    1    3    3  501    0 -0.38746156358E+01  0.77003070299E+02 -0.56902978928E+02  0.95940213116E+02  0.47000000000E+01 0. -1.
        -11    1    4    4    0    0 -0.23709035707E+02  0.16933757610E+02 -0.70359626153E+02  0.76153447154E+02  0.00000000000E+00 0.  1.
         12    1    4    4    0    0 -0.97283476710E+02 -0.26013361707E+02 -0.49580252394E+02  0.11224513912E+03  0.00000000000E+00 0. -1.
         -5    1    5    5    0  502  0.86826997136E+02 -0.96731590644E+02  0.46657348735E+02  0.13818439221E+03  0.47000000000E+01 0.  1.
         11    1    6    6    0    0 -0.13305134418E+02 -0.29249040119E+01  0.43673041073E+02  0.45748400868E+02  0.00000000000E+00 0. -1.
        -12    1    6    6    0    0  0.51345265335E+02  0.31733028454E+02  0.92403773458E+01  0.61063130780E+02  0.00000000000E+00 0.  1.
</event>
<event>
12    1  0.8461994E-002  0.2116824E+03  0.7818608E-02  0.1140498E+00
         21   -1    0    0  501  502  0.00000000000E+00  0.00000000000E+00  0.24213060029E+03  0.24213060029E+03  0.00000000000E+00 0.  1.
         21   -1    0    0  502  503 -0.00000000000E+00 -0.00000000000E+00 -0.26901541171E+03  0.26901541171E+03  0.00000000000E+00 0.  1.
         -6    2    1    2    0  503  0.99430462617E+02 -0.68479062390E+02 -0.15715311015E+03  0.26259163129E+03  0.17228309817E+03 0.  0.
        -24    2    3    3    0    0  0.10881005415E+03  0.16525094959E+01 -0.75592177717E+02  0.15451439127E+03  0.79486861214E+02 0.  0.
          6    2    1    2  501    0 -0.99430462617E+02  0.68479062390E+02  0.13026829872E+03  0.24855438070E+03  0.17387826671E+03 0.  0.
         24    2    5    5    0    0 -0.13789814063E+03  0.62865638203E+02  0.10936345940E+03  0.20416547342E+03  0.82189954545E+02 0.  0.
          5    1    5    5  501    0  0.38467678015E+02  0.56134241872E+01  0.20904839322E+02  0.44388907286E+02  0.47000000000E+01 0. -1.
        -11    1    6    6    0    0 -0.15451063623E+02  0.23227357823E+02 -0.89972026200E+01  0.29312031208E+02  0.00000000000E+00 0.  1.
         12    1    6    6    0    0 -0.12244707701E+03  0.39638280380E+02  0.11836066202E+03  0.17485344221E+03  0.00000000000E+00 0. -1.
         -5    1    3    3    0  503 -0.93795915346E+01 -0.70131571886E+02 -0.81560932429E+02  0.10807724002E+03  0.47000000000E+01 0.  1.
         13    1    4    4    0    0  0.67507934240E+02 -0.36989829271E+02 -0.33206790283E+02  0.83834715815E+02  0.00000000000E+00 0. -1.
        -14    1    4    4    0    0  0.41302119912E+02  0.38642338767E+02 -0.42385387435E+02  0.70679675456E+02  0.00000000000E+00 0.  1.
</event>
<event>
12    1  0.8461994E-002  0.1941666E+03  0.7818608E-02  0.1155280E+00
         21   -1    0    0  503  502  0.00000000000E+00  0.00000000000E+00  0.26172646334E+02  0.26172646334E+02  0.00000000000E+00 0. -1.
         21   -1    0    0  501  503 -0.00000000000E+00 -0.00000000000E+00 -0.15662931532E+04  0.15662931532E+04  0.00000000000E+00 0. -1.
          6    2    1    2  501    0  0.77688680351E+02 -0.42626329636E+02 -0.10066726694E+04  0.10247799304E+04  0.17009264369E+03 0.  0.
         24    2    3    3    0    0 -0.23267942049E+02 -0.14788453162E+02 -0.52448195688E+03  0.53132561621E+03  0.80408282352E+02 0.  0.
         -6    2    1    2    0  502 -0.77688680351E+02  0.42626329636E+02 -0.53344783740E+03  0.56768586905E+03  0.17276607208E+03 0.  0.
        -24    2    5    5    0    0 -0.20729617119E+02 -0.31643082124E+02 -0.14528688384E+03  0.16837233775E+03  0.76223118756E+02 0.  0.
          5    1    3    3  501    0  0.10095662240E+03 -0.27837876474E+02 -0.48219071255E+03  0.49345431424E+03  0.47000000000E+01 0. -1.
        -13    1    4    4    0    0 -0.18462133812E+02  0.30754458468E+02 -0.30602714723E+03  0.30812221916E+03  0.00000000000E+00 0.  1.
         14    1    4    4    0    0 -0.48058082371E+01 -0.45542911630E+02 -0.21845480965E+03  0.22320339705E+03  0.00000000000E+00 0. -1.
         -5    1    5    5    0  502 -0.56959063232E+02  0.74269411761E+02 -0.38816095356E+03  0.39931353130E+03  0.47000000000E+01 0.  1.
         11    1    6    6    0    0 -0.11428243152E+02  0.24601872773E+02 -0.35624154535E+02  0.44776525901E+02  0.00000000000E+00 0. -1.
        -12    1    6    6    0    0 -0.93013739675E+01 -0.56244954897E+02 -0.10966272930E+03  0.12359581185E+03  0.00000000000E+00 0.  1.
</event>
<event>
12    1  0.8461994E-002  0.1795959E+03  0.7818608E-02  0.1169840E+00
         21   -1    0    0  501  502  0.00000000000E+00  0.00000000000E+00  0.28999385028E+02  0.28999385028E+02  0.00000000000E+00 0.  1.
         21   -1    0    0  502  503 -0.00000000000E+00 -0.00000000000E+00 -0.10871157478E+04  0.10871157478E+04  0.00000000000E+00 0.  1.
         -6    2    1    2    0  503 -0.28718843257E+02  0.50016814920E+02 -0.60581957226E+03  0.63187978177E+03  0.17008307012E+03 0.  0.
        -24    2    3    3    0    0 -0.83464138427E+02  0.42594866400E+02 -0.44843073975E+03  0.46501017021E+03  0.79773084421E+02 0.  0.
          6    2    1    2  501    0  0.28718843257E+02 -0.50016814920E+02 -0.45229679048E+03  0.48423535103E+03  0.16304917900E+03 0.  0.
         24    2    5    5    0    0  0.17248737923E+02  0.34567629211E+02 -0.20925412346E+03  0.22659622454E+03  0.77885305682E+02 0.  0.
          5    1    5    5  501    0  0.11470105334E+02 -0.84584444131E+02 -0.24304266702E+03  0.25763912649E+03  0.47000000000E+01 0. -1.
        -13    1    6    6    0    0 -0.27636970075E+02  0.14826454811E+02 -0.42742105794E+02  0.53014276236E+02  0.00000000000E+00 0.  1.
         14    1    6    6    0    0  0.44885707998E+02  0.19741174400E+02 -0.16651201767E+03  0.17358194831E+03  0.00000000000E+00 0. -1.
         -5    1    3    3    0  503  0.54745295170E+02  0.74219485202E+01 -0.15738883251E+03  0.16686961156E+03  0.47000000000E+01 0.  1.
         11    1    4    4    0    0 -0.16767337343E+02 -0.22102910198E+02 -0.14652486441E+03  0.14912819362E+03  0.00000000000E+00 0. -1.
        -12    1    4    4    0    0 -0.66696801084E+02  0.64697776597E+02 -0.30190587534E+03  0.31588197659E+03  0.00000000000E+00 0.  1.
</event>
<event>
12    1  0.8461994E-002  0.3250426E+03  0.7818608E-02  0.1073523E+00
         21   -1    0    0  503  502  0.00000000000E+00  0.00000000000E+00  0.16396957264E+04  0.16396957264E+04  0.00000000000E+00 0.  1.
         21   -1    0    0  501  503 -0.00000000000E+00 -0.00000000000E+00 -0.97821026516E+02  0.97821026516E+02  0.00000000000E+00 0. -1.
          6    2    1    2  501    0  0.26402282435E+03 -0.74539454089E+02  0.26230748051E+03  0.41768158753E+03  0.17432301120E+03 0.  0.
         24    2    3    3    0    0  0.24222868599E+03 -0.94482185874E+01  0.18887558671E+03  0.31705263328E+03  0.78002434975E+02 0.  0.
         -6    2    1    2    0  502 -0.26402282435E+03  0.74539454089E+02  0.12795672193E+04  0.13198351654E+04  0.17148881278E+03 0.  0.
        -24    2    5    5    0    0 -0.86467627386E+02  0.73521342773E+02  0.42075331766E+03  0.44284583120E+03  0.78721264302E+02 0.  0.
          5    1    3    3  501    0  0.21794138357E+02 -0.65091235502E+02  0.73431893806E+02  0.10062895425E+03  0.47000000000E+01 0. -1.
        -11    1    4    4    0    0  0.14997551299E+03  0.14276654621E+02  0.15447722521E+03  0.21577694611E+03  0.00000000000E+00 0.  1.
         12    1    4    4    0    0  0.92253173003E+02 -0.23724873209E+02  0.34398361499E+02  0.10127568717E+03  0.00000000000E+00 0. -1.
         -5    1    5    5    0  502 -0.17755519696E+03  0.10181113162E+01  0.85881390168E+03  0.87698933417E+03  0.47000000000E+01 0.  1.
         13    1    6    6    0    0  0.22324597977E+01  0.31209962060E+02  0.47560077064E+02  0.56929838739E+02  0.00000000000E+00 0. -1.
        -14    1    6    6    0    0 -0.88700087184E+02  0.42311380713E+02  0.37319324060E+03  0.38591599246E+03  0.00000000000E+00 0.  1.
</event>
<event>
12    1  0.8461994E-002  0.1906120E+03  0.7818608E-02  0.1158073E+00
         21   -1    0    0  501  502  0.00000000000E+00  0.00000000000E+00  0.20909842235E+03  0.20909842235E+03  0.00000000000E+00 0.  1.
         21   -1    0    0  502  503 -0.00000000000E+00 -0.00000000000E+00 -0.19202288410E+03  0.19202288410E+03  0.00000000000E+00 0.  1.
         -6    2    1    2    0  503  0.48320378967E+02 -0.67499774649E+02 -0.54405784476E+02  0.19822443673E+03  0.17158630287E+03 0.  0.
        -24    2    3    3    0    0  0.85226270408E+00 -0.47546010503E+02  0.31289302252E+02  0.98138910031E+02  0.79942953161E+02 0.  0.
          6    2    1    2  501    0 -0.48320378967E+02  0.67499774649E+02  0.71481322724E+02  0.20289686972E+03  0.17078197107E+03 0.  0.
         24    2    5    5    0    0 -0.94068423132E+02  0.58649450088E+02  0.75425452534E+02  0.15589838091E+03  0.79540430319E+02 0.  0.
          5    1    5    5  501    0  0.45748044166E+02  0.88503245611E+01 -0.39441298108E+01  0.46998488803E+02  0.47000000000E+01 0. -1.
        -11    1    6    6    0    0  0.97514922480E+01  0.18766748738E+02 -0.63759436813E+00  0.21158662194E+02  0.00000000000E+00 0.  1.
         12    1    6    6    0    0 -0.10381991538E+03  0.39882701350E+02  0.76063046903E+02  0.13473971872E+03  0.00000000000E+00 0. -1.
         -5    1    3    3    0  503  0.47468116262E+02 -0.19953764146E+02 -0.85695086728E+02  0.10008552670E+03  0.47000000000E+01 0.  1.
         13    1    4    4    0    0 -0.94477488717E+01  0.35170582179E+01 -0.21641620974E+02  0.23874451107E+02  0.00000000000E+00 0. -1.
        -14    1    4    4    0    0  0.10300011576E+02 -0.51063068721E+02  0.52930923227E+02  0.74264458924E+02  0.00000000000E+00 0.  1.
</event>
<event>
12    1  0.8461994E-002  0.1730823E+03  0.7818608E-02  0.1174866E+00
         21   -1    0    0  503  502  0.00000000000E+00  0.00000000000E+00  0.22837773702E+03  0.22837773702E+03  0.00000000000E+00 0.  1.
         21   -1    0    0  501  503 -0.00000000000E+00 -0.00000000000E+00 -0.22410751198E+03  0.22410751198E+03  0.00000000000E+00 0.  1.
          6    2    1    2  501    0 -0.14085502074E+01 -0.18411519391E+02 -0.14400457534E+03  0.22515507021E+03  0.17209450852E+03 0.  0.
         24    2    3    3    0    0 -0.58275987263E+02 -0.16215221317E+02 -0.13431146539E+03  0.16723464632E+03  0.79175962903E+02 0.  0.
         -6    2    1    2    0  502  0.14085502074E+01  0.18411519391E+02  0.14827480038E+03  0.22733017880E+03  0.17132608005E+03 0.  0.
        -24    2    5    5    0    0 -0.64513146682E+02 -0.38464131590E+01  0.79997248168E+02  0.12973407325E+03  0.79086212823E+02 0.  0.
          5    1    3    3  501    0  0.56867437056E+02 -0.21962980745E+01 -0.96931099471E+01  0.57920423885E+02  0.47000000000E+01 0. -1.
        -13    1    4    4    0    0  0.11883742714E+02 -0.26063577510E+02 -0.34652600975E+02  0.44959272323E+02  0.00000000000E+00 0.  1.
         14    1    4    4    0    0 -0.70159729977E+02  0.98483561936E+01 -0.99658864417E+02  0.12227537400E+03  0.00000000000E+00 0. -1.
         -5    1    5    5    0  502  0.65921696890E+02  0.22257932550E+02  0.68277552211E+02  0.97596105548E+02  0.47000000000E+01 0.  1.
         13    1    6    6    0    0 -0.21533287619E+02  0.94417139110E+01 -0.12681146080E+02  0.26714039440E+02  0.00000000000E+00 0. -1.
        -14    1    6    6    0    0 -0.42979859063E+02 -0.13288127070E+02  0.92678394248E+02  0.10302003381E+03  0.00000000000E+00 0.  1.
</event>
<event>
12    1  0.8461994E-002  0.1841406E+03  0.7818608E-02  0.1164047E+00
         21   -1    0    0  503  502  0.00000000000E+00  0.00000000000E+00  0.62979270645E+02  0.62979270645E+02  0.00000000000E+00 0. -1.
         21   -1    0    0  501  503 -0.00000000000E+00 -0.00000000000E+00 -0.58246179091E+03  0.58246179091E+03  0.00000000000E+00 0. -1.
          6    2    1    2  501    0 -0.57795083720E+02 -0.26358716378E+02 -0.35140089089E+03  0.39672453318E+03  0.17283725142E+03 0.  0.
         24    2    3    3    0    0 -0.76649480310E+01 -0.75550050552E+02 -0.18119930958E+03  0.21254123822E+03  0.81080371148E+02 0.  0.
         -6    2    1    2    0  502  0.57795083720E+02  0.26358716378E+02 -0.16808162938E+03  0.24871652837E+03  0.17196925226E+03 0.  0.
        -24    2    5    5    0    0  0.60352620087E+02 -0.38329371696E+02 -0.14774136001E+03  0.18069516196E+03  0.75575476264E+02 0.  0.
          5    1    3    3  501    0 -0.50130135689E+02  0.49191334174E+02 -0.17020158131E+03  0.18418329496E+03  0.47000000000E+01 0. -1.
        -13    1    4    4    0    0  0.19980739149E+02 -0.46080402216E+02 -0.15834244337E+03  0.16611731631E+03  0.00000000000E+00 0.  1.
         14    1    4    4    0    0 -0.27645687180E+02 -0.29469648336E+02 -0.22856866210E+02  0.46423921912E+02  0.00000000000E+00 0. -1.
         -5    1    5    5    0  502 -0.25575363672E+01  0.64688088073E+02 -0.20340269365E+02  0.68021366413E+02  0.47000000000E+01 0.  1.
         13    1    6    6    0    0  0.44741524373E+02 -0.25141950598E+02 -0.26530323354E+02  0.57773521101E+02  0.00000000000E+00 0. -1.
        -14    1    6    6    0    0  0.15611095714E+02 -0.13187421098E+02 -0.12121103666E+03  0.12292164086E+03  0.00000000000E+00 0.  1.
</event>
<event>
12    1  0.8461994E-002  0.1903417E+03  0.7818608E-02  0.1158204E+00
         21   -1    0    0  503  502  0.00000000000E+00  0.00000000000E+00  0.19046264330E+03  0.19046264330E+03  0.00000000000E+00 0.  1.
         21   -1    0    0  501  503 -0.00000000000E+00 -0.00000000000E+00 -0.81501156161E+03  0.81501156161E+03  0.00000000000E+00 0.  1.
          6    2    1    2  501    0 -0.55977090636E+02 -0.60421688453E+02 -0.75248621763E+03  0.77613186867E+03  0.17135038582E+03 0.  0.
         24    2    3    3    0    0 -0.41354515912E+02  0.79028087271E+01 -0.61376449913E+03  0.62073604571E+03  0.82666363693E+02 0.  0.
         -6    2    1    2    0  502  0.55977090636E+02  0.60421688453E+02  0.12793729933E+03  0.22934233624E+03  0.17159760931E+03 0.  0.
        -24    2    5    5    0    0  0.64337314741E+02  0.10428057340E+03  0.99026589330E+02  0.17594370060E+03  0.78333851765E+02 0.  0.
          5    1    3    3  501    0 -0.14622574725E+02 -0.68324497180E+02 -0.13872171851E+03  0.15539582296E+03  0.47000000000E+01 0. -1.
        -13    1    4    4    0    0  0.17083397880E+02 -0.15001852610E+02 -0.76193860902E+02  0.79513536609E+02  0.00000000000E+00 0.  1.
         14    1    4    4    0    0 -0.58437913791E+02  0.22904661337E+02 -0.53757063822E+03  0.54122250910E+03  0.00000000000E+00 0. -1.
         -5    1    5    5    0  502 -0.83602241043E+01 -0.43858884942E+02  0.28910709998E+02  0.53398635639E+02  0.47000000000E+01 0.  1.
         13    1    6    6    0    0  0.66394263708E+02  0.84925045354E+02  0.10965347099E+03  0.15376717882E+03  0.00000000000E+00 0. -1.
        -14    1    6    6    0    0 -0.20569489670E+01  0.19355528041E+02 -0.10626881658E+02  0.22176521787E+02  0.00000000000E+00 0.  1.
</event>
<event>
12    1  0.8461994E-002  0.2454605E+03  0.7818608E-02  0.1117652E+00
         21   -1    0    0  501  502  0.00000000000E+00  0.00000000000E+00  0.67095346199E+03  0.67095346199E+03  0.00000000000E+00 0.  1.
         21   -1    0    0  502  503 -0.00000000000E+00 -0.00000000000E+00 -0.14389528499E+03  0.14389528499E+03  0.00000000000E+00 0.  1.
         -6    2    1    2    0  503  0.85398586264E+02  0.15338618404E+03  0.36413265910E+01  0.23673450315E+03  0.15877570889E+03 0.  0.
        -24    2    3    3    0    0  0.10636050454E+03  0.14191032256E+03  0.34530405588E+02  0.19739848129E+03  0.79515501201E+02 0.  0.
          6    2    1    2  501    0 -0.85398586264E+02 -0.15338618404E+03  0.52341685040E+03  0.57811424383E+03  0.17155360572E+03 0.  0.
         24    2    5    5    0    0 -0.38652414245E+02 -0.44706737803E+02  0.10572343796E+03  0.14396415062E+03  0.77817284693E+02 0.  0.
          5    1    5    5  501    0 -0.46746172019E+02 -0.10867944624E+03  0.41769341245E+03  0.43415009321E+03  0.47000000000E+01 0. -1.
        -11    1    6    6    0    0 -0.19149956773E+02 -0.64753099150E+02  0.59819124076E+02  0.90210932260E+02  0.00000000000E+00 0.  1.
         12    1    6    6    0    0 -0.19502457471E+02  0.20046361347E+02  0.45904313882E+02  0.53753218357E+02  0.00000000000E+00 0. -1.
         -5    1    3    3    0  503 -0.20961918274E+02  0.11475861481E+02 -0.30889078997E+02  0.39336021860E+02  0.47000000000E+01 0.  1.
         11    1    4    4    0    0  0.15737029578E+02  0.96203721642E+01 -0.20769566125E+02  0.27777338561E+02  0.00000000000E+00 0. -1.
        -12    1    4    4    0    0  0.90623474960E+02  0.13228995040E+03  0.55299971713E+02  0.16962114273E+03  0.00000000000E+00 0.  1.
</event>
<event>
12    1  0.8461994E-002  0.1920417E+03  0.7818608E-02  0.1156796E+00
         21   -1    0    0  503  502  0.00000000000E+00  0.00000000000E+00  0.56369123546E+02  0.56369123546E+02  0.00000000000E+00 0.  1.
         21   -1    0    0  501  503 -0.00000000000E+00 -0.00000000000E+00 -0.69826065414E+03  0.69826065414E+03  0.00000000000E+00 0.  1.
          6    2    1    2  501    0 -0.81881670236E+02 -0.38015660678E+02 -0.22414779879E+03  0.29516481248E+03  0.16949994822E+03 0.  0.
         24    2    3    3    0    0 -0.18860828560E+02 -0.27867623359E+02 -0.21369424095E+03  0.23031131590E+03  0.79029983742E+02 0.  0.
         -6    2    1    2    0  502  0.81881670236E+02  0.38015660678E+02 -0.41774373180E+03  0.45946496521E+03  0.16866662507E+03 0.  0.
        -24    2    5    5    0    0  0.10098380587E+03 -0.20114458833E+02 -0.28350651529E+03  0.31186509164E+03  0.79256360431E+02 0.  0.
          5    1    3    3  501    0 -0.63020841677E+02 -0.10148037319E+02 -0.10453557839E+02  0.64853496579E+02  0.47000000000E+01 0. -1.
        -11    1    4    4    0    0 -0.33875609001E+01 -0.27132361264E+02 -0.15338073347E+02  0.31351189620E+02  0.00000000000E+00 0.  1.
         12    1    4    4    0    0 -0.15473267660E+02 -0.73526209511E+00 -0.19835616761E+03  0.19896012628E+03  0.00000000000E+00 0. -1.
         -5    1    5    5    0  502 -0.19102135632E+02  0.58130119511E+02 -0.13423721651E+03  0.14759987356E+03  0.47000000000E+01 0.  1.
         11    1    6    6    0    0  0.28486559880E+02 -0.30459161462E+02 -0.40767718171E+02  0.58320249104E+02  0.00000000000E+00 0. -1.
        -12    1    6    6    0    0  0.72497245989E+02  0.10344702629E+02 -0.24273879712E+03  0.25354484254E+03  0.00000000000E+00 0.  1.
</event>
<event>
12    1  0.8461994E-002  0.5487635E+03  0.7818608E-02  0.1001822E+00
         21   -1    0    0  503  502  0.00000000000E+00  0.00000000000E+00  0.98494137396E+03  0.98494137396E+03  0.00000000000E+00 0. -1.
         21   -1    0    0  501  503 -0.00000000000E+00 -0.00000000000E+00 -0.30765007960E+03  0.30765007960E+03  0.00000000000E+00 0.  1.
          6    2    1    2  501    0 -0.49360921243E+03  0.16444830093E+03  0.28298577269E+03  0.61743202073E+03  0.17449370876E+03 0.  0.
         24    2    3    3    0    0 -0.22162780026E+03  0.29050756857E+02  0.79868115481E+02  0.25193885228E+03  0.84447860233E+02 0.  0.
         -6    2    1    2    0  502  0.49360921243E+03 -0.16444830093E+03  0.39430552166E+03  0.67515943283E+03  0.17225015835E+03 0.  0.
        -24    2    5    5    0    0  0.16188971281E+03 -0.19868435343E+02  0.17876986424E+03  0.25394823452E+03  0.76993555695E+02 0.  0.
          5    1    3    3  501    0 -0.27198141217E+03  0.13539754408E+03  0.20311765721E+03  0.36549316845E+03  0.47000000000E+01 0. -1.
        -11    1    4    4    0    0 -0.16214802012E+03  0.56286135266E+02  0.43397523543E+02  0.17704082722E+03  0.00000000000E+00 0.  1.
         12    1    4    4    0    0 -0.59479780133E+02 -0.27235378409E+02  0.36470591938E+02  0.74898025061E+02  0.00000000000E+00 0. -1.
         -5    1    5    5    0  502  0.33171949963E+03 -0.14457986559E+03  0.21553565742E+03  0.42121119831E+03  0.47000000000E+01 0.  1.
         13    1    6    6    0    0  0.38056923632E+02  0.26246970593E+02  0.30729923487E+02  0.55511810448E+02  0.00000000000E+00 0. -1.
        -14    1    6    6    0    0  0.12383278917E+03 -0.46115405937E+02  0.14803994076E+03  0.19843642407E+03  0.00000000000E+00 0.  1.
</event>
<event>
12    1  0.8461994E-002  0.2323366E+03  0.7818608E-02  0.1126040E+00
         21   -1    0    0  503  502  0.00000000000E+00  0.00000000000E+00  0.45241788715E+02  0.45241788715E+02  0.00000000000E+00 0.  1.
         21   -1    0    0  501  503 -0.00000000000E+00 -0.00000000000E+00 -0.11646656010E+04  0.11646656010E+04  0.00000000000E+00 0.  1.
          6    2    1    2  501    0 -0.15514384900E+03  0.10565346992E+02 -0.53096484230E+03  0.57724299039E+03  0.16463464324E+03 0.  0.
         24    2    3    3    0    0 -0.16518388014E+03  0.30605079219E+02 -0.36460619172E+03  0.40931537588E+03  0.79868747067E+02 0.  0.
         -6    2    1    2    0  502  0.15514384900E+03 -0.10565346992E+02 -0.58845897000E+03  0.63266439934E+03  0.17262399132E+03 0.  0.
        -24    2    5    5    0    0  0.50012903775E+02 -0.62331016548E+02 -0.33404543367E+03  0.35252061901E+03  0.79359869613E+02 0.  0.
          5    1    3    3  501    0  0.10040031132E+02 -0.20039732227E+02 -0.16635865057E+03  0.16792761451E+03  0.47000000000E+01 0. -1.
        -11    1    4    4    0    0 -0.40424354181E+02  0.97535187447E+01 -0.18513909456E+03  0.18975179544E+03  0.00000000000E+00 0.  1.
         12    1    4    4    0    0 -0.12475952596E+03  0.20851560474E+02 -0.17946709716E+03  0.21956358044E+03  0.00000000000E+00 0. -1.
         -5    1    5    5    0  502  0.10513094523E+03  0.51765669555E+02 -0.25441353633E+03  0.28014378033E+03  0.47000000000E+01 0.  1.
         11    1    6    6    0    0  0.50966219152E+02 -0.72015102885E+02 -0.33064427067E+03  0.34221245486E+03  0.00000000000E+00 0. -1.
        -12    1    6    6    0    0 -0.95331537733E+00  0.96840863377E+01 -0.34011630068E+01  0.10308164153E+02  0.00000000000E+00 0.  1.
</event>
<event>
12    1  0.8461994E-002  0.1895405E+03  0.7818608E-02  0.1159423E+00
         21   -1    0    0  501  502  0.00000000000E+00  0.00000000000E+00  0.19101424905E+03  0.19101424905E+03  0.00000000000E+00 0. -1.
         21   -1    0    0  502  503 -0.00000000000E+00 -0.00000000000E+00 -0.18782749584E+03  0.18782749584E+03  0.00000000000E+00 0. -1.
         -6    2    1    2    0  503 -0.75764254261E+02 -0.28133233334E+02  0.21749923927E+02  0.19078436510E+03  0.17144653316E+03 0.  0.
        -24    2    3    3    0    0  0.20160645847E+02 -0.19837716910E+02  0.37192413450E+02  0.93157716399E+02  0.80592169926E+02 0.  0.
          6    2    1    2  501    0  0.75764254261E+02  0.28133233334E+02 -0.18563170721E+02  0.18805737979E+03  0.16878769429E+03 0.  0.
         24    2    5    5    0    0 -0.83475735051E+01 -0.24095846106E+02  0.53250074118E+01  0.86099489639E+02  0.82063844835E+02 0.  0.
          5    1    5    5  501    0  0.84111827766E+02  0.52229079440E+02 -0.23888178133E+02  0.10195789015E+03  0.47000000000E+01 0. -1.
        -11    1    6    6    0    0 -0.29417401243E+02  0.16970243553E+02  0.17722807005E+02  0.38307578236E+02  0.00000000000E+00 0.  1.
         12    1    6    6    0    0  0.21069827738E+02 -0.41066089659E+02 -0.12397799594E+02  0.47791911403E+02  0.00000000000E+00 0. -1.
         -5    1    3    3    0  503 -0.95924900108E+02 -0.82955164235E+01 -0.15442489523E+02  0.97626648699E+02  0.47000000000E+01 0.  1.
         13    1    4    4    0    0 -0.25024181008E+02 -0.21387023255E+02 -0.24753343866E+01  0.33011235651E+02  0.00000000000E+00 0. -1.
        -14    1    4    4    0    0  0.45184826855E+02  0.15493063451E+01  0.39667747836E+02  0.60146480749E+02  0.00000000000E+00 0.  1.
</event>
<event>
12    1  0.8461994E-002  0.1797196E+03  0.7818608E-02  0.1168161E+00
         21   -1    0    0  503  502  0.00000000000E+00  0.00000000000E+00  0.10321636839E+03  0.10321636839E+03  0.00000000000E+00 0.  1.
         21   -1    0    0  501  503 -0.00000000000E+00 -0.00000000000E+00 -0.33783113759E+03  0.33783113759E+03  0.00000000000E+00 0.  1.
          6    2    1    2  501    0  0.26067944943E+02  0.40529898968E+02 -0.56797423706E+02  0.18848094365E+03  0.17313840797E+03 0.  0.
         24    2    3    3    0    0  0.71002765061E+02 -0.31924212502E+01 -0.64007594151E+02  0.12519701281E+03  0.80782025894E+02 0.  0.
         -6    2    1    2    0  502 -0.26067944943E+02 -0.40529898968E+02 -0.17781734550E+03  0.25256656234E+03  0.17276761730E+03 0.  0.
        -24    2    5    5    0    0  0.40421108562E+02 -0.42220230953E+02 -0.55642386359E+02  0.11338156998E+03  0.79642271009E+02 0.  0.
          5    1    3    3  501    0 -0.44934820118E+02  0.43722320219E+02  0.72101704455E+01  0.63283930837E+02  0.47000000000E+01 0. -1.
        -13    1    4    4    0    0  0.77446535083E+02 -0.13104452560E+02 -0.75326946893E+02  0.10882941423E+03  0.00000000000E+00 0.  1.
         14    1    4    4    0    0 -0.64437700221E+01  0.99120313102E+01  0.11319352741E+02  0.16367598580E+02  0.00000000000E+00 0. -1.
         -5    1    5    5    0  502 -0.66489053505E+02  0.16903319844E+01 -0.12217495914E+03  0.13918499236E+03  0.47000000000E+01 0.  1.
         11    1    6    6    0    0  0.49303870647E+02  0.60635661953E+01 -0.29119423994E+02  0.57581067631E+02  0.00000000000E+00 0. -1.
        -12    1    6    6    0    0 -0.88827620856E+01 -0.48283797148E+02 -0.26522962365E+02  0.55800502345E+02  0.00000000000E+00 0.  1.
</event>
<event>
12    1  0.8461994E-002  0.1870433E+03  0.7818608E-02  0.1161258E+00
         21   -1    0    0  501  502  0.00000000000E+00  0.00000000000E+00  0.24477792459E+03  0.24477792459E+03  0.00000000000E+00 0.  1.
         21   -1    0    0  502  503 -0.00000000000E+00 -0.00000000000E+00 -0.16454840392E+03  0.16454840392E+03  0.00000000000E+00 0.  1.
         -6    2    1    2    0  503 -0.65623626418E+02  0.25109187913E+02 -0.34616446227E+02  0.19021960939E+03  0.17334436762E+03 0.  0.
        -24    2    3    3    0    0  0.18650606713E+02  0.65525676490E+02 -0.15404372668E+02  0.94685151267E+02  0.63925924029E+02 0.  0.
          6    2    1    2  501    0  0.65623626418E+02 -0.25109187913E+02  0.11484596689E+03  0.21910671912E+03  0.17286187142E+03 0.  0.
         24    2    5    5    0    0  0.54295454268E+02 -0.62259449305E+02  0.19429191391E+02  0.11598096844E+03  0.79056031903E+02 0.  0.
          5    1    5    5  501    0  0.11328172150E+02  0.37150261393E+02  0.95416775501E+02  0.10312575068E+03  0.47000000000E+01 0. -1.
        -13    1    6    6    0    0  0.68536198602E+02 -0.22752675374E+02  0.95851386258E+01  0.72847578120E+02  0.00000000000E+00 0.  1.
         14    1    6    6    0    0 -0.14240744334E+02 -0.39506773932E+02  0.98440527653E+01  0.43133390320E+02  0.00000000000E+00 0. -1.
         -5    1    3    3    0  503 -0.84274233131E+02 -0.40416488577E+02 -0.19212073559E+02  0.95534458125E+02  0.47000000000E+01 0.  1.
         11    1    4    4    0    0  0.25950002912E+02  0.18209170885E+02  0.17860932216E+02  0.36386665896E+02  0.00000000000E+00 0. -1.
        -12    1    4    4    0    0 -0.72993961993E+01  0.47316505605E+02 -0.33265304884E+02  0.58298485371E+02  0.00000000000E+00 0.  1.
</event>
<event>
12    1  0.8461994E-002  0.3345029E+03  0.7818608E-02  0.1069170E+00
         21   -1    0    0  503  502  0.00000000000E+00  0.00000000000E+00  0.34926764198E+03  0.34926764198E+03  0.00000000000E+00 0. -1.
         21   -1    0    0  501  503 -0.00000000000E+00 -0.00000000000E+00 -0.33326986306E+03  0.33326986306E+03  0.00000000000E+00 0.  1.
          6    2    1    2  501    0 -0.27267475779E+03  0.90521950306E+02 -0.59342680269E+02  0.33972595948E+03  0.17130798820E+03 0.  0.
         24    2    3    3    0    0 -0.10579106808E+03  0.17309051848E+02 -0.81449203652E+02  0.15609294838E+03  0.78991660292E+02 0.  0.
         -6    2    1    2    0  502  0.27267475779E+03 -0.90521950306E+02  0.75340459191E+02  0.34281154556E+03  0.17116607126E+03 0.  0.
        -24    2    5    5    0    0  0.17954934562E+03 -0.91424410890E+02 -0.72269501457E+01  0.21826186105E+03  0.83603951814E+02 0.  0.
          5    1    3    3  501    0 -0.16688368971E+03  0.73212898457E+02  0.22106523383E+02  0.18363301111E+03  0.47000000000E+01 0. -1.
        -13    1    4    4    0    0 -0.10097358384E+03  0.43254856324E+01 -0.33949836618E+02  0.10661597379E+03  0.00000000000E+00 0.  1.
         14    1    4    4    0    0 -0.48174842403E+01  0.12983566216E+02 -0.47499367034E+02  0.49476974591E+02  0.00000000000E+00 0. -1.
         -5    1    5    5    0  502  0.93125412169E+02  0.90246058403E+00  0.82567409336E+02  0.12454968451E+03  0.47000000000E+01 0.  1.
         11    1    6    6    0    0  0.27907867358E+02 -0.37462772571E+02  0.26645219414E+02  0.53779885708E+02  0.00000000000E+00 0. -1.
        -12    1    6    6    0    0  0.15164147827E+03 -0.53961638319E+02 -0.33872169560E+02  0.16448197534E+03  0.00000000000E+00 0.  1.
</event>
<event>
12    1  0.8461994E-002  0.1740979E+03  0.7818608E-02  0.1174020E+00
         21   -1    0    0  503  502  0.00000000000E+00  0.00000000000E+00  0.19247319996E+02  0.19247319996E+02  0.00000000000E+00 0.  1.
         21   -1    0    0  501  503 -0.00000000000E+00 -0.00000000000E+00 -0.15638976517E+04  0.15638976517E+04  0.00000000000E+00 0.  1.
          6    2    1    2  501    0 -0.74670913131E+00  0.21216392926E+02 -0.80808322628E+03  0.82662481159E+03  0.17279868527E+03 0.  0.
         24    2    3    3    0    0  0.27946458892E+02 -0.19303967820E+02 -0.20612126514E+03  0.22260039967E+03  0.76885071724E+02 0.  0.
         -6    2    1    2    0  502  0.74670913131E+00 -0.21216392926E+02 -0.73656710544E+03  0.75652016013E+03  0.17129202829E+03 0.  0.
        -24    2    5    5    0    0  0.40385068345E+02  0.22118078349E+02 -0.60811247277E+03  0.61519868767E+03  0.80922695463E+02 0.  0.
          5    1    3    3  501    0 -0.28693168023E+02  0.40520360747E+02 -0.60196196115E+03  0.60402441192E+03  0.47000000000E+01 0. -1.
        -13    1    4    4    0    0 -0.21929227786E+02  0.81505777598E+01 -0.33713683714E+02  0.41035782174E+02  0.00000000000E+00 0.  1.
         14    1    4    4    0    0  0.49875686678E+02 -0.27454545580E+02 -0.17240758142E+03  0.18156461750E+03  0.00000000000E+00 0. -1.
         -5    1    5    5    0  502 -0.39638359214E+02 -0.43334471275E+02 -0.12845463267E+03  0.14132147246E+03  0.47000000000E+01 0.  1.
         11    1    6    6    0    0  0.76311012578E+01  0.94232330390E+01 -0.91086035823E+01  0.15165674615E+02  0.00000000000E+00 0. -1.
        -12    1    6    6    0    0  0.32753967087E+02  0.12694845310E+02 -0.59900386918E+03  0.60003301305E+03  0.00000000000E+00 0.  1.
</event>
<event>
12    1  0.8461994E-002  0.1801946E+03  0.7818608E-02  0.1167782E+00
         21   -1    0    0  503  502  0.00000000000E+00  0.00000000000E+00  0.91363550695E+02  0.91363550695E+02  0.00000000000E+00 0. -1.
         21   -1    0    0  501  503 -0.00000000000E+00 -0.00000000000E+00 -0.39305896896E+03  0.39305896896E+03  0.00000000000E+00 0.  1.
          6    2    1    2  501    0  0.49141010331E+02  0.20719855867E+02 -0.22690381894E+03  0.28932284997E+03  0.17140075013E+03 0.  0.
         24    2    3    3    0    0 -0.17827140765E+01  0.42097592642E+02 -0.21453271440E+03  0.23253053038E+03  0.79188235474E+02 0.  0.
         -6    2    1    2    0  502 -0.49141010331E+02 -0.20719855867E+02 -0.74791599325E+02  0.19509966968E+03  0.17212189418E+03 0.  0.
        -24    2    5    5    0    0 -0.51845974707E+02 -0.66775014900E+02 -0.89833578960E+02  0.14634779118E+03  0.78744500546E+02 0.  0.
          5    1    3    3  501    0  0.50923724407E+02 -0.21377736775E+02 -0.12371104541E+02  0.56792319592E+02  0.47000000000E+01 0. -1.
        -11    1    4    4    0    0 -0.29975398707E+02 -0.88793708261E+01 -0.67959075489E+02  0.74805104741E+02  0.00000000000E+00 0.  1.
         12    1    4    4    0    0  0.28192684631E+02  0.50976963468E+02 -0.14657363891E+03  0.15772542564E+03  0.00000000000E+00 0. -1.
         -5    1    5    5    0  502  0.27049643762E+01  0.46055159033E+02  0.15041979635E+02  0.48751878499E+02  0.47000000000E+01 0.  1.
         11    1    6    6    0    0 -0.47552911408E+02  0.33462950057E+00 -0.29211258105E+02  0.55809398495E+02  0.00000000000E+00 0. -1.
        -12    1    6    6    0    0 -0.42930632984E+01 -0.67109644401E+02 -0.60622320855E+02  0.90538392685E+02  0.00000000000E+00 0.  1.
</event>
<event>
12    1  0.8461994E-002  0.2087518E+03  0.7818608E-02  0.1143105E+00
         21   -1    0    0  501  502  0.00000000000E+00  0.00000000000E+00  0.21845711191E+03  0.21845711191E+03  0.00000000000E+00 0.  1.
         21   -1    0    0  502  503 -0.00000000000E+00 -0.00000000000E+00 -0.23804932322E+03  0.23804932322E+03  0.00000000000E+00 0. -1.
         -6    2    1    2    0  503  0.39329325644E+02 -0.10847800193E+03 -0.10465632129E+03  0.23108856959E+03  0.17068892362E+03 0.  0.
        -24    2    3    3    0    0  0.63899235987E+02 -0.90906782965E+02 -0.13195100122E+03  0.19010664939E+03  0.79889397738E+02 0.  0.
          6    2    1    2  501    0 -0.39329325644E+02  0.10847800193E+03  0.85064109983E+02  0.22541786555E+03  0.17396275044E+03 0.  0.
         24    2    5    5    0    0 -0.49339189737E+02  0.10758003604E+03  0.23210575219E+01  0.14193429559E+03  0.78307963564E+02 0.  0.
          5    1    5    5  501    0  0.10009864093E+02  0.89796588990E+00  0.82743052462E+02  0.83483569956E+02  0.47000000000E+01 0. -1.
        -11    1    6    6    0    0 -0.46474389930E+02  0.93752583689E+02  0.31701770532E+02  0.10933626170E+03  0.00000000000E+00 0.  1.
         12    1    6    6    0    0 -0.28647998072E+01  0.13827452356E+02 -0.29380713010E+02  0.32598033891E+02  0.00000000000E+00 0. -1.
         -5    1    3    3    0  503 -0.24569910343E+02 -0.17571218969E+02  0.27294679929E+02  0.40981920194E+02  0.47000000000E+01 0.  1.
         13    1    4    4    0    0 -0.84730903066E+01 -0.46233045140E+02 -0.72253640067E+02  0.86196729783E+02  0.00000000000E+00 0. -1.
        -14    1    4    4    0    0  0.72372326294E+02 -0.44673737825E+02 -0.59697361153E+02  0.10390991961E+03  0.00000000000E+00 0.  1.
</event>
<event>
12    1  0.8461994E-002  0.2632510E+03  0.7818608E-02  0.1105235E+00
         21   -1    0    0  501  502  0.00000000000E+00  0.00000000000E+00  0.44520706708E+02  0.44520706708E+02  0.00000000000E+00 0. -1.
         21   -1    0    0  502  503 -0.00000000000E+00 -0.00000000000E+00 -0.19628811048E+04  0.19628811048E+04  0.00000000000E+00 0. -1.
         -6    2    1    2    0  503 -0.87738121382E+02  0.18001074795E+03 -0.14167673558E+04  0.14410172947E+04  0.17087789782E+03 0.  0.
        -24    2    3    3    0    0 -0.86846569467E+02  0.19180226518E+03 -0.10429179365E+04  0.10669513740E+04  0.79855974545E+02 0.  0.
          6    2    1    2  501    0  0.87738121382E+02 -0.18001074795E+03 -0.50159304231E+03  0.56638451679E+03  0.17056961464E+03 0.  0.
         24    2    5    5    0    0 -0.19917135320E+02 -0.10836198869E+03 -0.26775038827E+03  0.29912495035E+03  0.75142881463E+02 0.  0.
          5    1    5    5  501    0  0.10765525670E+03 -0.71648759257E+02 -0.23384265405E+03  0.26725956643E+03  0.47000000000E+01 0. -1.
        -11    1    6    6    0    0 -0.38936232656E+02 -0.57110262780E+02 -0.92021883623E+02  0.11508970151E+03  0.00000000000E+00 0.  1.
         12    1    6    6    0    0  0.19019097337E+02 -0.51251725911E+02 -0.17572850464E+03  0.18403524884E+03  0.00000000000E+00 0. -1.
         -5    1    3    3    0  503 -0.89155191556E+00 -0.11791517228E+02 -0.37384941925E+03  0.37406592068E+03  0.47000000000E+01 0.  1.
         11    1    4    4    0    0 -0.98892304830E+02  0.13733302640E+03 -0.76639308223E+03  0.78485565844E+03  0.00000000000E+00 0. -1.
        -12    1    4    4    0    0  0.12045735363E+02  0.54469238775E+02 -0.27652485430E+03  0.28209571560E+03  0.00000000000E+00 0.  1.
</event>
<event>
12    1  0.8461994E-002  0.1952425E+03  0.7818608E-02  0.1154156E+00
         21   -1    0    0  503  502  0.00000000000E+00  0.00000000000E+00  0.20323368043E+03  0.20323368043E+03  0.00000000000E+00 0.  1.
         21   -1    0    0  501  503 -0.00000000000E+00 -0.00000000000E+00 -0.21199983429E+03  0.21199983429E+03  0.00000000000E+00 0.  1.
          6    2    1    2  501    0  0.88771213242E+02 -0.28869513282E+02 -0.76971891264E+02  0.20842038526E+03  0.16970741837E+03 0.  0.
         24    2    3    3    0    0  0.86353177605E+01  0.27630192054E+02 -0.86623462071E+00  0.84210323591E+02  0.79073586052E+02 0.  0.
         -6    2    1    2    0  502 -0.88771213242E+02  0.28869513282E+02  0.68205737404E+02  0.20681312946E+03  0.17148140075E+03 0.  0.
        -24    2    5    5    0    0 -0.10423289180E+03 -0.33718565556E+02  0.36114505713E+02  0.13464479660E+03  0.69451611437E+02 0.  0.
          5    1    3    3  501    0  0.80135895481E+02 -0.56499705336E+02 -0.76105656644E+02  0.12421006167E+03  0.47000000000E+01 0. -1.
        -11    1    4    4    0    0  0.14902004047E+02 -0.17621540644E+02  0.23073670066E+02  0.32634072219E+02  0.00000000000E+00 0.  1.
         12    1    4    4    0    0 -0.62666862870E+01  0.45251732698E+02 -0.23939904686E+02  0.51576251372E+02  0.00000000000E+00 0. -1.
         -5    1    5    5    0  502  0.15461678562E+02  0.62588078838E+02  0.32091231690E+02  0.72168332862E+02  0.47000000000E+01 0.  1.
         13    1    6    6    0    0 -0.84832023136E+01 -0.65443589415E+01  0.33400314262E+02  0.35076692379E+02  0.00000000000E+00 0. -1.
        -14    1    6    6    0    0 -0.95749689490E+02 -0.27174206615E+02  0.27141914510E+01  0.99568104220E+02  0.00000000000E+00 0.  1.
</event>
<event>
12    1  0.8461994E-002  0.1900529E+03  0.7818608E-02  0.1158773E+00
         21   -1    0    0  501  502  0.00000000000E+00  0.00000000000E+00  0.23295414175E+03  0.23295414175E+03  0.00000000000E+00 0.  1.
         21   -1    0    0  502  503 -0.00000000000E+00 -0.00000000000E+00 -0.20138684622E+03  0.20138684622E+03  0.00000000000E+00 0.  1.
         -6    2    1    2    0  503 -0.66953609797E+02  0.42825753744E+02 -0.89778075924E+02  0.21019085857E+03  0.17263621596E+03 0.  0.
        -24    2    3    3    0    0 -0.86898958401E+01  0.84875804446E+02 -0.65592543549E+02  0.13423101981E+03  0.80225734271E+02 0.  0.
          6    2    1    2  501    0  0.66953609797E+02 -0.42825753744E+02  0.12134537145E+03  0.22415012941E+03  0.17088519624E+03 0.  0.
         24    2    5    5    0    0  0.46210005877E+02 -0.28316995963E+01  0.14605770907E+03  0.17254963424E+03  0.79354513002E+02 0.  0.
          5    1    5    5  501    0  0.20743603919E+02 -0.39994054148E+02 -0.24712337618E+02  0.51600495165E+02  0.47000000000E+01 0. -1.
        -13    1    6    6    0    0  0.29134190465E+02  0.29902232452E+02  0.31815413936E+02  0.52489666826E+02  0.00000000000E+00 0.  1.
         14    1    6    6    0    0  0.17075815413E+02 -0.32733932048E+02  0.11424229513E+03  0.12005996742E+03  0.00000000000E+00 0. -1.
         -5    1    3    3    0  503 -0.58263713956E+02 -0.42050050703E+02 -0.24185532375E+02  0.75959838759E+02  0.47000000000E+01 0.  1.
         13    1    4    4    0    0 -0.18972152959E+02  0.86830394862E+02 -0.25024580674E+02  0.92334661411E+02  0.00000000000E+00 0. -1.
        -14    1    4    4    0    0  0.10282257119E+02 -0.19545904160E+01 -0.40567962875E+02  0.41896358398E+02  0.00000000000E+00 0.  1.
</event>
<event>
12    1  0.8461994E-002  0.1820198E+03  0.7818608E-02  0.1166006E+00
         21   -1    0    0  501  502  0.00000000000E+00  0.00000000000E+00  0.24938348360E+03  0.24938348360E+03  0.00000000000E+00 0.  1.
         21   -1    0    0  502  503 -0.00000000000E+00 -0.00000000000E+00 -0.18925423516E+03  0.18925423516E+03  0.00000000000E+00 0.  1.
         -6    2    1    2    0  503 -0.55268300740E+02  0.11799084228E+02 -0.90093657473E+02  0.20309624645E+03  0.17302431837E+03 0.  0.
        -24    2    3    3    0    0 -0.46857722281E+02  0.72271875559E+02 -0.37991087603E+02  0.12269435525E+03  0.78687431892E+02 0.  0.
          6    2    1    2  501    0  0.55268300740E+02 -0.11799084228E+02  0.15022290591E+03  0.23554147231E+03  0.17239216996E+03 0.  0.
         24    2    5    5    0    0 -0.10314318544E+02  0.22184697020E+02  0.21808746930E+02  0.87324524679E+02  0.80940751286E+02 0.  0.
          5    1    5    5  501    0  0.65582619284E+02 -0.33983781248E+02  0.12841415898E+03  0.14821694763E+03  0.47000000000E+01 0. -1.
        -13    1    6    6    0    0 -0.15923316986E+02 -0.27842181288E+02  0.18145620060E+02  0.36851086959E+02  0.00000000000E+00 0.  1.
         14    1    6    6    0    0  0.56089984422E+01  0.50026878308E+02  0.36631268700E+01  0.50473437720E+02  0.00000000000E+00 0. -1.
         -5    1    3    3    0  503 -0.84105784591E+01 -0.60472791331E+02 -0.52102569869E+02  0.80401891199E+02  0.47000000000E+01 0.  1.
         11    1    4    4    0    0 -0.36952469863E+02  0.44601930826E+02  0.16981446209E+02  0.60358816901E+02  0.00000000000E+00 0. -1.
        -12    1    4    4    0    0 -0.99052524185E+01  0.27669944733E+02 -0.54972533812E+02  0.62335538345E+02  0.00000000000E+00 0.  1.
</event>
<event>
12    1  0.8461994E-002  0.1888252E+03  0.7818608E-02  0.1160159E+00
         21   -1    0    0  503  502  0.00000000000E+00  0.00000000000E+00  0.14381531868E+03  0.14381531868E+03  0.00000000000E+00 0. -1.
         21   -1    0    0  501  503 -0.00000000000E+00 -0.00000000000E+00 -0.41235127746E+03  0.41235127746E+03  0.00000000000E+00 0. -1.
          6    2    1    2  501    0  0.47679126640E+02  0.62959567988E+02 -0.31120320992E+03  0.36258081792E+03  0.16846425538E+03 0.  0.
         24    2    3    3    0    0  0.17029422227E+02 -0.22032975363E+02 -0.21058908719E+03  0.22727217629E+03  0.80804859066E+02 0.  0.
         -6    2    1    2    0  502 -0.47679126640E+02 -0.62959567988E+02  0.42667251139E+02  0.19358577823E+03  0.17151604267E+03 0.  0.
        -24    2    5    5    0    0 -0.10616106211E+02  0.33274324879E+01 -0.34309418185E+02  0.85349317016E+02  0.77353708514E+02 0.  0.
          5    1    3    3  501    0  0.30649704413E+02  0.84992543352E+02 -0.10061412273E+03  0.13530864162E+03  0.47000000000E+01 0. -1.
        -13    1    4    4    0    0  0.44390959786E+02 -0.33526568835E+02 -0.13054185420E+03  0.14190054202E+03  0.00000000000E+00 0.  1.
         14    1    4    4    0    0 -0.27361537559E+02  0.11493593472E+02 -0.80047232992E+02  0.85371634271E+02  0.00000000000E+00 0. -1.
         -5    1    5    5    0  502 -0.37063020429E+02 -0.66287000476E+02  0.76976669324E+02  0.10823646121E+03  0.47000000000E+01 0.  1.
         11    1    6    6    0    0  0.19544678121E+02 -0.28284166126E+02 -0.17003943803E+02  0.38355216088E+02  0.00000000000E+00 0. -1.
        -12    1    6    6    0    0 -0.30160784332E+02  0.31611598614E+02 -0.17305474382E+02  0.46994100928E+02  0.00000000000E+00 0.  1.
</event>
<event>
12    1  0.8461994E-002  0.3002414E+03  0.7818608E-02  0.1085236E+00
         21   -1    0    0  503  502  0.00000000000E+00  0.00000000000E+00  0.73591650157E+03  0.73591650157E+03  0.00000000000E+00 0.  1.
         21   -1    0    0  501  503 -0.00000000000E+00 -0.00000000000E+00 -0.24204948721E+03  0.24204948721E+03  0.00000000000E+00 0. -1.
          6    2    1    2  501    0  0.41242175966E+02  0.24109819811E+03 -0.97461762929E+02  0.31478078319E+03  0.17250764627E+03 0.  0.
         24    2    3    3    0    0  0.31983493991E+02  0.25136186139E+03 -0.11689000867E+03  0.29047825845E+03  0.80675989317E+02 0.  0.
         -6    2    1    2    0  502 -0.41242175966E+02 -0.24109819811E+03  0.59132877730E+03  0.66318520560E+03  0.17411385889E+03 0.  0.
        -24    2    5    5    0    0 -0.50177626398E+02 -0.15973583647E+03  0.52859036273E+03  0.55994822178E+03  0.78108308508E+02 0.  0.
          5    1    3    3  501    0  0.92586819752E+01 -0.10263663284E+02  0.19428245746E+02  0.24302524739E+02  0.47000000000E+01 0. -1.
        -13    1    4    4    0    0  0.34646408053E+02  0.44911051483E+02 -0.43030964508E+02  0.71197191256E+02  0.00000000000E+00 0.  1.
         14    1    4    4    0    0 -0.26629140615E+01  0.20645080991E+03 -0.73859044167E+02  0.21928106719E+03  0.00000000000E+00 0. -1.
         -5    1    5    5    0  502  0.89354504311E+01 -0.81362361636E+02  0.62738414561E+02  0.10323698381E+03  0.47000000000E+01 0.  1.
         11    1    6    6    0    0  0.38867566534E+00 -0.69113336511E+02  0.31485551711E+03  0.32235198309E+03  0.00000000000E+00 0. -1.
        -12    1    6    6    0    0 -0.50566302063E+02 -0.90622499960E+02  0.21373484563E+03  0.23759623869E+03  0.00000000000E+00 0.  1.
</event>
<event>
12    1  0.8461994E-002  0.2005988E+03  0.7818608E-02  0.1149777E+00
         21   -1    0    0  501  502  0.00000000000E+00  0.00000000000E+00  0.12086636671E+03  0.12086636671E+03  0.00000000000E+00 0. -1.
         21   -1    0    0  502  503 -0.00000000000E+00 -0.00000000000E+00 -0.33682605370E+03  0.33682605370E+03  0.00000000000E+00 0. -1.
         -6    2    1    2    0  503 -0.95012855139E+02 -0.36488846414E+02 -0.73092751430E+02  0.21350037270E+03  0.17286115896E+03 0.  0.
        -24    2    3    3    0    0 -0.50629285854E+02  0.42240427606E+01 -0.10820570163E+03  0.14362584344E+03  0.79616216417E+02 0.  0.
          6    2    1    2  501    0  0.95012855139E+02  0.36488846414E+02 -0.14286693557E+03  0.24419204771E+03  0.16988206595E+03 0.  0.
         24    2    5    5    0    0  0.68880720067E+02 -0.38276965444E+02 -0.11437085029E+03  0.15988942626E+03  0.79210211176E+02 0.  0.
          5    1    5    5  501    0  0.26132135072E+02  0.74765811858E+02 -0.28496085282E+02  0.84302621446E+02  0.47000000000E+01 0. -1.
        -11    1    6    6    0    0  0.41415124605E+01 -0.43264423944E+02 -0.27491184921E+02  0.51426916620E+02  0.00000000000E+00 0.  1.
         12    1    6    6    0    0  0.64739207606E+02  0.49874584998E+01 -0.86879665366E+02  0.10846250964E+03  0.00000000000E+00 0. -1.
         -5    1    3    3    0  503 -0.44383569285E+02 -0.40712889175E+02  0.35112950198E+02  0.69874529258E+02  0.47000000000E+01 0.  1.
         11    1    4    4    0    0  0.81006675303E+01  0.14247264073E+02 -0.72145914590E+02  0.73984041117E+02  0.00000000000E+00 0. -1.
        -12    1    4    4    0    0 -0.58729953384E+02 -0.10023221313E+02 -0.36059787039E+02  0.69641802326E+02  0.00000000000E+00 0.  1.
</event>
<event>
12    1  0.8461994E-002  0.2001073E+03  0.7818608E-02  0.1149869E+00
         21   -1    0    0  503  502  0.00000000000E+00  0.00000000000E+00  0.41412688492E+02  0.41412688492E+02  0.00000000000E+00 0. -1.
         21   -1    0    0  501  503 -0.00000000000E+00 -0.00000000000E+00 -0.11169004415E+04  0.11169004415E+04  0.00000000000E+00 0.  1.
          6    2    1    2  501    0 -0.89171149118E+02  0.45030424278E+02 -0.75470234464E+03  0.78078073832E+03  0.17338886753E+03 0.  0.
         24    2    3    3    0    0 -0.55858702420E+02  0.34268659893E+02 -0.21564654637E+03  0.24056894807E+03  0.84115694893E+02 0.  0.
         -6    2    1    2    0  502  0.89171149118E+02 -0.45030424278E+02 -0.32078540839E+03  0.37753239169E+03  0.17218651398E+03 0.  0.
        -24    2    5    5    0    0  0.89982726933E+02  0.18127130207E+02 -0.13856558363E+03  0.18461870664E+03  0.80362689583E+02 0.  0.
          5    1    3    3  501    0 -0.33312446698E+02  0.10761764385E+02 -0.53905579827E+03  0.54021179025E+03  0.47000000000E+01 0. -1.
        -11    1    4    4    0    0  0.11410198520E+01  0.36113181191E+02 -0.14674379413E+03  0.15112645334E+03  0.00000000000E+00 0.  1.
         12    1    4    4    0    0 -0.56999722272E+02 -0.18445212980E+01 -0.68902752231E+02  0.89442494727E+02  0.00000000000E+00 0. -1.
         -5    1    5    5    0  502 -0.81157781526E+00 -0.63157554485E+02 -0.18221982476E+03  0.19291368506E+03  0.47000000000E+01 0.  1.
         11    1    6    6    0    0  0.54845643635E+02  0.14313104990E+02 -0.18756526201E+02  0.59705249981E+02  0.00000000000E+00 0. -1.
        -12    1    6    6    0    0  0.35137083298E+02  0.38140252170E+01 -0.11980905743E+03  0.12491345666E+03  0.00000000000E+00 0.  1.
</event>
<event>
12    1  0.8461994E-002  0.3169411E+03  0.7818608E-02  0.1078557E+00
         21   -1    0    0  501  502  0.00000000000E+00  0.00000000000E+00  0.12127874042E+04  0.12127874042E+04  0.00000000000E+00 0.  1.
         21   -1    0    0  502  503 -0.00000000000E+00 -0.00000000000E+00 -0.79699659382E+02  0.79699659382E+02  0.00000000000E+00 0. -1.
         -6    2    1    2    0  503 -0.12844208443E+03  0.21723411857E+03  0.60240055982E+03  0.68068944253E+03  0.19173849737E+03 0.  0.
        -24    2    3    3    0    0 -0.45239568013E+02  0.13059094004E+02  0.24573621951E+03  0.26135468241E+03  0.75517031110E+02 0.  0.
          6    2    1    2  501    0  0.12844208443E+03 -0.21723411857E+03  0.53068718503E+03  0.61179762109E+03  0.17023339709E+03 0.  0.
         24    2    5    5    0    0  0.41765270864E+02 -0.31672832597E+02  0.21523807361E+03  0.23566454256E+03  0.80391803776E+02 0.  0.
          5    1    5    5  501    0  0.86676813568E+02 -0.18556128598E+03  0.31544911142E+03  0.37613307852E+03  0.47000000000E+01 0. -1.
        -13    1    6    6    0    0  0.16910842584E+02  0.85997971012E+01  0.16705065341E+03  0.16812451907E+03  0.00000000000E+00 0.  1.
         14    1    6    6    0    0  0.24854428280E+02 -0.40272629698E+02  0.48187420198E+02  0.67540023491E+02  0.00000000000E+00 0. -1.
         -5    1    3    3    0  503 -0.83202516419E+02  0.20417502457E+03  0.35666434030E+03  0.41933476011E+03  0.47000000000E+01 0.  1.
         11    1    4    4    0    0 -0.61571535480E+02 -0.27469708715E+01  0.13635604535E+03  0.14963813329E+03  0.00000000000E+00 0. -1.
        -12    1    4    4    0    0  0.16331967467E+02  0.15806064876E+02  0.10938017416E+03  0.11171654913E+03  0.00000000000E+00 0.  1.
</event>
<event>
12    1  0.8461994E-002  0.2237023E+03  0.7818608E-02  0.1131515E+00
         21   -1    0    0  501  502  0.00000000000E+00  0.00000000000E+00  0.54623736962E+03  0.54623736962E+03  0.00000000000E+00 0. -1.
         21   -1    0    0  502  503 -0.00000000000E+00 -0.00000000000E+00 -0.13232878918E+03  0.13232878918E+03  0.00000000000E+00 0. -1.
         -6    2    1    2    0  503 -0.87151262800E+02  0.11324811157E+03  0.17530188536E+02  0.22438815873E+03  0.17211118757E+03 0.  0.
        -24    2    3    3    0    0 -0.97807309981E+02  0.87965018330E+02  0.67200344217E+02  0.16744959086E+03  0.78862949998E+02 0.  0.
          6    2    1    2  501    0  0.87151262800E+02 -0.11324811157E+03  0.39637839190E+03  0.45417800008E+03  0.16953273668E+03 0.  0.
         24    2    5    5    0    0 -0.10831330654E+02 -0.31432999750E+02  0.21734886610E+03  0.23425082519E+03  0.80793368003E+02 0.  0.
          5    1    5    5  501    0  0.97982593454E+02 -0.81815111819E+02  0.17902952580E+03  0.21992717488E+03  0.47000000000E+01 0. -1.
        -11    1    6    6    0    0  0.31169805806E+01 -0.48185919882E+02  0.68466764901E+02  0.83781240973E+02  0.00000000000E+00 0.  1.
         12    1    6    6    0    0 -0.13948311235E+02  0.16752920133E+02  0.14888210120E+03  0.15046958422E+03  0.00000000000E+00 0. -1.
         -5    1    3    3    0  503  0.10656047181E+02  0.25283093239E+02 -0.49670155681E+02  0.56938567866E+02  0.47000000000E+01 0.  1.
         11    1    4    4    0    0 -0.20982874216E+02  0.25325285958E+02 -0.17331246194E+02  0.37175572811E+02  0.00000000000E+00 0. -1.
        -12    1    4    4    0    0 -0.76824435765E+02  0.62639732372E+02  0.84531590412E+02  0.13027401805E+03  0.00000000000E+00 0.  1.
</event>
<event>
12    1  0.8461994E-002  0.2030232E+03  0.7818608E-02  0.1147421E+00
         21   -1    0    0  501  502  0.00000000000E+00  0.00000000000E+00  0.45440841673E+02  0.45440841673E+02  0.00000000000E+00 0.  1.
         21   -1    0    0  502  503 -0.00000000000E+00 -0.00000000000E+00 -0.91226536228E+03  0.91226536228E+03  0.00000000000E+00 0.  1.
         -6    2    1    2    0  503  0.12116187331E+02  0.10660994221E+03 -0.48371738561E+03  0.52459596209E+03  0.17235409052E+03 0.  0.
        -24    2    3    3    0    0  0.41082576923E+01  0.28360212282E+02 -0.69468047078E+02  0.10291865460E+03  0.70322546016E+02 0.  0.
          6    2    1    2  501    0 -0.12116187331E+02 -0.10660994221E+03 -0.38310713499E+03  0.43311024186E+03  0.17117512364E+03 0.  0.
         24    2    5    5    0    0 -0.62684483927E+02 -0.10713489636E+03 -0.31341426161E+03  0.34687443261E+03  0.81768833156E+02 0.  0.
          5    1    5    5  501    0  0.50568296595E+02  0.52495414949E+00 -0.69692873379E+02  0.86235809251E+02  0.47000000000E+01 0. -1.
        -11    1    6    6    0    0 -0.35874228313E+02 -0.60921010145E+02 -0.77149391689E+02  0.10464396004E+03  0.00000000000E+00 0.  1.
         12    1    6    6    0    0 -0.26810255614E+02 -0.46213886214E+02 -0.23626486992E+03  0.24223047257E+03  0.00000000000E+00 0. -1.
         -5    1    3    3    0  503  0.80079296392E+01  0.78249729928E+02 -0.41424933854E+03  0.42167730749E+03  0.47000000000E+01 0.  1.
         11    1    4    4    0    0 -0.31530468494E+02  0.78416153693E+01 -0.43454545735E+02  0.54258261307E+02  0.00000000000E+00 0. -1.
        -12    1    4    4    0    0  0.35638726186E+02  0.20518596913E+02 -0.26013501342E+02  0.48660393294E+02  0.00000000000E+00 0.  1.
</event>
<event>
12    1  0.8461994E-002  0.2497113E+03  0.7818608E-02  0.1113669E+00
         21   -1    0    0  503  502  0.00000000000E+00  0.00000000000E+00  0.98203587775E+03  0.98203587775E+03  0.00000000000E+00 0. -1.
         21   -1    0    0  501  503 -0.00000000000E+00 -0.00000000000E+00 -0.77545245183E+02  0.77545245183E+02  0.00000000000E+00 0.  1.
          6    2    1    2  501    0 -0.16596789866E+03 -0.70442339248E+02  0.68091782261E+03  0.72526190557E+03  0.17276655920E+03 0.  0.
         24    2    3    3    0    0 -0.69376695923E+01 -0.11265341456E+02  0.24607970416E+03  0.25846557945E+03  0.77937127108E+02 0.  0.
         -6    2    1    2    0  502  0.16596789866E+03  0.70442339248E+02  0.22357280996E+03  0.33431921736E+03  0.17110543885E+03 0.  0.
        -24    2    5    5    0    0  0.62554963817E+02  0.35939535287E+01  0.17422144137E+03  0.20157664941E+03  0.79711949877E+02 0.  0.
          5    1    3    3  501    0 -0.15903022907E+03 -0.59176997792E+02  0.43483811845E+03  0.46679632612E+03  0.47000000000E+01 0. -1.
        -13    1    4    4    0    0 -0.19779487474E+02 -0.70345414902E+01  0.24386220407E+03  0.24476414662E+03  0.00000000000E+00 0.  1.
         14    1    4    4    0    0  0.12841817882E+02 -0.42307999661E+01  0.22175000952E+01  0.13701432828E+02  0.00000000000E+00 0. -1.
         -5    1    5    5    0  502  0.10341293484E+03  0.66848385720E+02  0.49351368584E+02  0.13274256795E+03  0.47000000000E+01 0.  1.
         11    1    6    6    0    0  0.77318810327E+02  0.19095092153E+02  0.13020676971E+03  0.15263231589E+03  0.00000000000E+00 0. -1.
        -12    1    6    6    0    0 -0.14763846510E+02 -0.15501138624E+02  0.44014671658E+02  0.48944333518E+02  0.00000000000E+00 0.  1.
</event>
<event>
12    1  0.8461994E-002  0.1891239E+03  0.7818608E-02  0.1159353E+00
         21   -1    0    0  503  502  0.00000000000E+00  0.00000000000E+00  0.45380057381E+03  0.45380057381E+03  0.00000000000E+00 0.  1.
         21   -1    0    0  501  503 -0.00000000000E+00 -0.00000000000E+00 -0.20182907489E+03  0.20182907489E+03  0.00000000000E+00 0.  1.
          6    2    1    2  501    0  0.59525425988E+02  0.54079687595E+02 -0.13006913152E+03  0.22953394927E+03  0.17117232821E+03 0.  0.
         24    2    3    3    0    0  0.22948922047E+02  0.55546087061E+02 -0.60105612825E+01  0.10010207600E+03  0.79826549230E+02 0.  0.
         -6    2    1    2    0  502 -0.59525425988E+02 -0.54079687595E+02  0.38204063045E+03  0.42609569943E+03  0.17068864287E+03 0.  0.
        -24    2    5    5    0    0 -0.10287507487E+03 -0.40850111033E+02  0.21788724247E+03  0.25573537969E+03  0.75324108991E+02 0.  0.
          5    1    3    3  501    0  0.36576503941E+02 -0.14663994665E+01 -0.12405857024E+03  0.12943187327E+03  0.47000000000E+01 0. -1.
        -13    1    4    4    0    0  0.16531007645E+02  0.59487383439E+02 -0.34436171166E+02  0.70695635557E+02  0.00000000000E+00 0.  1.
         14    1    4    4    0    0  0.64179144027E+01 -0.39412963778E+01  0.28425609883E+02  0.29406440445E+02  0.00000000000E+00 0. -1.
         -5    1    5    5    0  502  0.43349648879E+02 -0.13229576562E+02  0.16415338798E+03  0.17036031973E+03  0.47000000000E+01 0.  1.
         13    1    6    6    0    0 -0.49086788492E+02 -0.89015215101E+00  0.33196147402E+02  0.59264571016E+02  0.00000000000E+00 0. -1.
        -14    1    6    6    0    0 -0.53788286375E+02 -0.39959958882E+02  0.18469109507E+03  0.19647080868E+03  0.00000000000E+00 0.  1.
</event>
<event>
12    1  0.8461994E-002  0.2426636E+03  0.7818608E-02  0.1118459E+00
         21   -1    0    0  501  502  0.00000000000E+00  0.00000000000E+00  0.11250622867E+03  0.11250622867E+03  0.00000000000E+00 0. -1.
         21   -1    0    0  502  503 -0.00000000000E+00 -0.00000000000E+00 -0.52029978817E+03  0.52029978817E+03  0.00000000000E+00 0. -1.
         -6    2    1    2    0  503  0.16041091716E+03  0.50793239810E+02 -0.18095371878E+03  0.30062847000E+03  0.17123554853E+03 0.  0.
        -24    2    3    3    0    0  0.55044576576E+01  0.72048116722E+01 -0.36018295434E+02  0.84008228094E+02  0.75351552181E+02 0.  0.
          6    2    1    2  501    0 -0.16041091716E+03 -0.50793239810E+02 -0.22683984072E+03  0.33217754684E+03  0.17485420707E+03 0.  0.
         24    2    5    5    0    0 -0.18190882336E+03 -0.13103509264E+02 -0.19411795563E+03  0.27762951733E+03  0.78318875258E+02 0.  0.
          5    1    5    5  501    0  0.21497906199E+02 -0.37689730546E+02 -0.32721885085E+02  0.54548029507E+02  0.47000000000E+01 0. -1.
        -11    1    6    6    0    0 -0.30434349274E+02  0.15293504280E+02 -0.76569272147E+02  0.83803307369E+02  0.00000000000E+00 0.  1.
         12    1    6    6    0    0 -0.15147447409E+03 -0.28397013543E+02 -0.11754868348E+03  0.19382620996E+03  0.00000000000E+00 0. -1.
         -5    1    3    3    0  503  0.15490645951E+03  0.43588428137E+02 -0.14493542334E+03  0.21662024191E+03  0.47000000000E+01 0.  1.
         11    1    4    4    0    0  0.21533109355E+02 -0.99730164143E+01 -0.50925708339E+02  0.56183303790E+02  0.00000000000E+00 0. -1.
        -12    1    4    4    0    0 -0.16028651697E+02  0.17177828087E+02  0.14907412905E+02  0.27824924304E+02  0.00000000000E+00 0.  1.
</event>
<event>
12    1  0.8461994E-002  0.2018799E+03  0.7818608E-02  0.1148544E+00
         21   -1    0    0  501  502  0.00000000000E+00  0.00000000000E+00  0.91958642262E+02  0.91958642262E+02  0.00000000000E+00 0.  1.
         21   -1    0    0  502  503 -0.00000000000E+00 -0.00000000000E+00 -0.99223258236E+03  0.99223258236E+03  0.00000000000E+00 0. -1.
         -6    2    1    2    0  503 -0.10368196240E+03 -0.36086322085E+01 -0.85394144195E+03  0.87706276448E+03  0.17105594113E+03 0.  0.
        -24    2    3    3    0    0 -0.70416889437E+02  0.10060596604E+01 -0.82349433814E+03  0.83148890585E+03  0.90946825797E+02 0.  0.
          6    2    1    2  501    0  0.10368196240E+03  0.36086322085E+01 -0.46332498146E+02  0.20712846014E+03  0.17318350691E+03 0.  0.
         24    2    5    5    0    0  0.73733331636E+02  0.51734035854E+02  0.17653765515E+02  0.12151708883E+03  0.79634997217E+02 0.  0.
          5    1    5    5  501    0  0.29948630759E+02 -0.48125403645E+02 -0.63986263662E+02  0.85611371311E+02  0.47000000000E+01 0. -1.
        -13    1    6    6    0    0  0.74704058146E+02  0.14763910865E+02 -0.79102722986E+01  0.76558747216E+02  0.00000000000E+00 0.  1.
         14    1    6    6    0    0 -0.97072650923E+00  0.36970124989E+02  0.25564037814E+02  0.44958341618E+02  0.00000000000E+00 0. -1.
         -5    1    3    3    0  503 -0.33265072958E+02 -0.46146918689E+01 -0.30447103812E+02  0.45573858631E+02  0.47000000000E+01 0.  1.
         11    1    4    4    0    0 -0.61342718002E+02 -0.39862256599E+02 -0.52000006421E+03  0.52512093401E+03  0.00000000000E+00 0. -1.
        -12    1    4    4    0    0 -0.90741714347E+01  0.40868316259E+02 -0.30349427393E+03  0.30636797184E+03  0.00000000000E+00 0.  1.
</event>
<event>
12    1  0.8461994E-002  0.1791315E+03  0.7818608E-02  0.1168777E+00
         21   -1    0    0  501  502  0.00000000000E+00  0.00000000000E+00  0.75506623617E+03  0.75506623617E+03  0.00000000000E+00 0. -1.
         21   -1    0    0  502  503 -0.00000000000E+00 -0.00000000000E+00 -0.10499439228E+03  0.10499439228E+03  0.00000000000E+00 0. -1.
         -6    2    1    2    0  503 -0.23702167353E+02 -0.42826884587E+02 -0.72747013228E+01  0.17874384044E+03  0.17175710883E+03 0.  0.
        -24    2    3    3    0    0  0.23535530765E+02  0.30579369760E+02  0.12205608871E+02  0.89181288073E+02  0.79468900780E+02 0.  0.
          6    2    1    2  501    0  0.23702167353E+02  0.42826884587E+02  0.65734654522E+03  0.68131678802E+03  0.17231410373E+03 0.  0.
         24    2    5    5    0    0 -0.31048405316E+02 -0.22384819683E+02  0.25503701243E+03  0.27006839379E+03  0.80174659284E+02 0.  0.
          5    1    5    5  501    0  0.54750572668E+02  0.65211704270E+02  0.40230953279E+03  0.41124839423E+03  0.47000000000E+01 0. -1.
        -11    1    6    6    0    0  0.13143301818E+02  0.13685573180E+02  0.17618206436E+02  0.25892904317E+02  0.00000000000E+00 0.  1.
         12    1    6    6    0    0 -0.44191707134E+02 -0.36070392864E+02  0.23741880599E+03  0.24417548947E+03  0.00000000000E+00 0. -1.
         -5    1    3    3    0  503 -0.47237698118E+02 -0.73406254347E+02 -0.19480310194E+02  0.89562552364E+02  0.47000000000E+01 0.  1.
         11    1    4    4    0    0 -0.16847322659E+02 -0.91121889039E+01  0.24639930728E+02  0.31208820126E+02  0.00000000000E+00 0. -1.
        -12    1    4    4    0    0  0.40382853424E+02  0.39691558664E+02 -0.12434321857E+02  0.57972467947E+02  0.00000000000E+00 0.  1.
</event>
<event>
12    1  0.8461994E-002  0.1898587E+03  0.7818608E-02  0.1158756E+00
         21   -1    0    0  501  502  0.00000000000E+00  0.00000000000E+00  0.42985820112E+03  0.42985820112E+03  0.00000000000E+00 0.  1.
         21   -1    0    0  502  503 -0.00000000000E+00 -0.00000000000E+00 -0.18294435620E+03  0.18294435620E+03  0.00000000000E+00 0.  1.
         -6    2    1    2    0  503  0.26567600518E+02  0.75918775097E+02 -0.10230129468E+03  0.21566610096E+03  0.17197911037E+03 0.  0.
        -24    2    3    3    0    0 -0.33074214188E+02  0.51961824455E+02 -0.79013942739E+01  0.10136600148E+03  0.80116785882E+02 0.  0.
          6    2    1    2  501    0 -0.26567600518E+02 -0.75918775097E+02  0.34921513959E+03  0.39713645635E+03  0.17116265198E+03 0.  0.
         24    2    5    5    0    0 -0.39949626061E+02  0.69503874653E+01  0.10009949146E+03  0.13421617783E+03  0.79685592761E+02 0.  0.
          5    1    5    5  501    0  0.13382025543E+02 -0.82869162562E+02  0.24911564814E+03  0.26292027852E+03  0.47000000000E+01 0. -1.
        -13    1    6    6    0    0  0.12570500146E+01  0.20094909177E+02  0.86594556897E+02  0.88904459021E+02  0.00000000000E+00 0.  1.
         14    1    6    6    0    0 -0.41206676075E+02 -0.13144521712E+02  0.13504934560E+02  0.45311718812E+02  0.00000000000E+00 0. -1.
         -5    1    3    3    0  503  0.59641814705E+02  0.23956950642E+02 -0.94399900402E+02  0.11430009948E+03  0.47000000000E+01 0.  1.
         13    1    4    4    0    0 -0.35250024058E+02  0.12644720016E+02 -0.36814056487E+02  0.52514073308E+02  0.00000000000E+00 0. -1.
        -14    1    4    4    0    0  0.21758098707E+01  0.39317104439E+02  0.28912662213E+02  0.48851928174E+02  0.00000000000E+00 0.  1.
</event>
<event>
12    1  0.8461994E-002  0.2746425E+03  0.7818608E-02  0.1098881E+00
         21   -1    0    0  503  502  0.00000000000E+00  0.00000000000E+00  0.46159194395E+03  0.46159194395E+03  0.00000000000E+00 0.  1.
         21   -1    0    0  501  503 -0.00000000000E+00 -0.00000000000E+00 -0.19999991202E+03  0.19999991202E+03  0.00000000000E+00 0.  1.
          6    2    1    2  501    0 -0.18729094948E+03 -0.99058693898E+02 -0.12875858759E+02  0.27331212601E+03  0.17217202413E+03 0.  0.
         24    2    3    3    0    0 -0.85837793116E+02 -0.42549501181E+02 -0.72172744527E+02  0.14283514544E+03  0.77552478632E+02 0.  0.
         -6    2    1    2    0  502  0.18729094948E+03  0.99058693898E+02  0.27446789068E+03  0.38827972995E+03  0.17475125488E+03 0.  0.
        -24    2    5    5    0    0  0.94812648192E+02 -0.20350548638E+02  0.10845420834E+03  0.16379490611E+03  0.75252062252E+02 0.  0.
          5    1    3    3  501    0 -0.10145315637E+03 -0.56509192717E+02  0.59296885768E+02  0.13047698058E+03  0.47000000000E+01 0. -1.
        -11    1    4    4    0    0 -0.63480838626E+02 -0.22830199921E+02 -0.30181686111E+01  0.67528840082E+02  0.00000000000E+00 0.  1.
         12    1    4    4    0    0 -0.22356954490E+02 -0.19719301260E+02 -0.69154575916E+02  0.75306305356E+02  0.00000000000E+00 0. -1.
         -5    1    5    5    0  502  0.92478301292E+02  0.11940924254E+03  0.16601368234E+03  0.22448482385E+03  0.47000000000E+01 0.  1.
         11    1    6    6    0    0  0.50248984566E+01 -0.31829561203E+02  0.27954766062E+02  0.42659577078E+02  0.00000000000E+00 0. -1.
        -12    1    6    6    0    0  0.89787749735E+02  0.11479012566E+02  0.80499442276E+02  0.12113532903E+03  0.00000000000E+00 0.  1.
</event>
<event>
12    1  0.8461994E-002  0.1785678E+03  0.7818608E-02  0.1169796E+00
         21   -1    0    0  501  502  0.00000000000E+00  0.00000000000E+00  0.11637457140E+04  0.11637457140E+04  0.00000000000E+00 0.  1.
         21   -1    0    0  502  503 -0.00000000000E+00 -0.00000000000E+00 -0.22949139628E+03  0.22949139628E+03  0.00000000000E+00 0.  1.
         -6    2    1    2    0  503 -0.36330316248E+01  0.39871274007E+02 -0.18756153996E+03  0.25729816701E+03  0.17152287913E+03 0.  0.
        -24    2    3    3    0    0  0.12114812253E+02  0.59897018701E+02 -0.38281346275E+02  0.10578681013E+03  0.77401332030E+02 0.  0.
          6    2    1    2  501    0  0.36330316248E+01 -0.39871274007E+02  0.11218158577E+04  0.11359389433E+04  0.17402168509E+03 0.  0.
         24    2    5    5    0    0 -0.82465027713E+01  0.41878390273E+02  0.51056554517E+03  0.51911387448E+03  0.83547796973E+02 0.  0.
          5    1    5    5  501    0  0.11879534396E+02 -0.81749664280E+02  0.61125031250E+03  0.61682506879E+03  0.47000000000E+01 0. -1.
        -13    1    6    6    0    0  0.14429456791E+02  0.26503018032E+02  0.46477119212E+03  0.46574980431E+03  0.00000000000E+00 0.  1.
         14    1    6    6    0    0 -0.22675959563E+02  0.15375372241E+02  0.45794353049E+02  0.53364070167E+02  0.00000000000E+00 0. -1.
         -5    1    3    3    0  503 -0.15747843877E+02 -0.20025744694E+02 -0.14928019368E+03  0.15151135688E+03  0.47000000000E+01 0.  1.
         13    1    4    4    0    0  0.31030302887E+01 -0.17071610573E+02  0.35680235946E+01  0.17714386156E+02  0.00000000000E+00 0. -1.
        -14    1    4    4    0    0  0.90117819638E+01  0.76968629274E+02 -0.41849369869E+02  0.88072423976E+02  0.00000000000E+00 0.  1.
</event>
<event>
12    1  0.8461994E-002  0.1947054E+03  0.7818608E-02  0.1154471E+00
         21   -1    0    0  503  502  0.00000000000E+00  0.00000000000E+00  0.12113090117E+04  0.12113090117E+04  0.00000000000E+00 0. -1.
         21   -1    0    0  501  503 -0.00000000000E+00 -0.00000000000E+00 -0.39052900494E+02  0.39052900494E+02  0.00000000000E+00 0. -1.
          6    2    1    2  501    0 -0.80455938260E+02 -0.43044827184E+02  0.30405308805E+03  0.36059414857E+03  0.17103755284E+03 0.  0.
         24    2    3    3    0    0 -0.15780799092E+01 -0.65147417589E+02  0.22253877593E+03  0.24493553834E+03  0.78887481851E+02 0.  0.
         -6    2    1    2    0  502  0.80455938260E+02  0.43044827184E+02  0.86820302320E+03  0.88976776367E+03  0.17200049018E+03 0.  0.
        -24    2    5    5    0    0 -0.40995580039E+01  0.65724203842E+01  0.61771608170E+03  0.62284892532E+03  0.79420545763E+02 0.  0.
          5    1    3    3  501    0 -0.78877858351E+02  0.22102590405E+02  0.81514312123E+02  0.11565861023E+03  0.47000000000E+01 0. -1.
        -11    1    4    4    0    0  0.46054253763E+01 -0.72493307263E+02  0.22376091039E+03  0.23525610419E+03  0.00000000000E+00 0.  1.
         12    1    4    4    0    0 -0.61835052856E+01  0.73458896739E+01 -0.12221344602E+01  0.96794341444E+01  0.00000000000E+00 0. -1.
         -5    1    5    5    0  502  0.84555496264E+02  0.36472406800E+02  0.25048694149E+03  0.26691883835E+03  0.47000000000E+01 0.  1.
         11    1    6    6    0    0 -0.95572762546E-01 -0.34404412952E+02  0.38363329805E+03  0.38517292239E+03  0.00000000000E+00 0. -1.
        -12    1    6    6    0    0 -0.40039852414E+01  0.40976833336E+02  0.23408278365E+03  0.23767600293E+03  0.00000000000E+00 0.  1.
</event>
<event>
12    1  0.8461994E-002  0.1766226E+03  0.7818608E-02  0.1171144E+00
         21   -1    0    0  503  502  0.00000000000E+00  0.00000000000E+00  0.25669154507E+03  0.25669154507E+03  0.00000000000E+00 0. -1.
         21   -1    0    0  501  503 -0.00000000000E+00 -0.00000000000E+00 -0.12174108125E+03  0.12174108125E+03  0.00000000000E+00 0. -1.
          6    2    1    2  501    0 -0.31855344498E+02  0.28564710794E+02  0.76885527841E+02  0.19263159854E+03  0.17136173052E+03 0.  0.
         24    2    3    3    0    0 -0.51451553354E+01 -0.15311840667E+02 -0.19277385806E+02  0.83507898389E+02  0.79630561983E+02 0.  0.
         -6    2    1    2    0  502  0.31855344498E+02 -0.28564710794E+02  0.58064935979E+02  0.18580102778E+03  0.17123019435E+03 0.  0.
        -24    2    5    5    0    0  0.29009878495E+02 -0.83911796513E+02  0.45960112888E+02  0.12887991292E+03  0.81332265021E+02 0.  0.
          5    1    3    3  501    0 -0.26710189162E+02  0.43876551461E+02  0.96162913647E+02  0.10912370015E+03  0.47000000000E+01 0. -1.
        -13    1    4    4    0    0 -0.28312560942E+02 -0.38757694879E+02 -0.79299650495E+01  0.48648169186E+02  0.00000000000E+00 0.  1.
         14    1    4    4    0    0  0.23167405607E+02  0.23445854212E+02 -0.11347420756E+02  0.34859729203E+02  0.00000000000E+00 0. -1.
         -5    1    5    5    0  502  0.28454660023E+01  0.55347085718E+02  0.12104823091E+02  0.56921114855E+02  0.47000000000E+01 0.  1.
         11    1    6    6    0    0 -0.14085952815E+02 -0.44535431785E+02 -0.10271501345E+02  0.47825960428E+02  0.00000000000E+00 0. -1.
        -12    1    6    6    0    0  0.43095831311E+02 -0.39376364728E+02  0.56231614233E+02  0.81053952493E+02  0.00000000000E+00 0.  1.
</event>
<event>
12    1  0.8461994E-002  0.3249098E+03  0.7818608E-02  0.1073532E+00
         21   -1    0    0  503  502  0.00000000000E+00  0.00000000000E+00  0.37975101213E+02  0.37975101213E+02  0.00000000000E+00 0. -1.
         21   -1    0    0  501  503 -0.00000000000E+00 -0.00000000000E+00 -0.35381030490E+04  0.35381030490E+04  0.00000000000E+00 0. -1.
          6    2    1    2  501    0 -0.26914170679E+03  0.56203562370E+02 -0.25850114769E+04  0.26053504055E+04  0.17311932586E+03 0.  0.
         24    2    3    3    0    0 -0.10185015155E+03 -0.36004659311E+02 -0.11506868564E+04  0.11583541970E+04  0.77681498630E+02 0.  0.
         -6    2    1    2    0  502  0.26914170679E+03 -0.56203562370E+02 -0.91511647091E+03  0.97072774473E+03  0.17110844604E+03 0.  0.
        -24    2    5    5    0    0  0.28101677305E+03 -0.67618701310E+02 -0.88704516804E+03  0.93784293608E+03  0.95694969032E+02 0.  0.
          5    1    3    3  501    0 -0.16729155524E+03  0.92208221680E+02 -0.14343246204E+04  0.14469962085E+04  0.47000000000E+01 0. -1.
        -11    1    4    4    0    0 -0.44311563109E+02 -0.19183426504E+02 -0.19873873133E+03  0.20452041905E+03  0.00000000000E+00 0.  1.
         12    1    4    4    0    0 -0.57538588444E+02 -0.16821232807E+02 -0.95194812510E+03  0.95383377792E+03  0.00000000000E+00 0. -1.
         -5    1    5    5    0  502 -0.11875066260E+02  0.11415138940E+02 -0.28071302863E+02  0.32884808653E+02  0.47000000000E+01 0.  1.
         11    1    6    6    0    0  0.20494359170E+03 -0.88727523537E+02 -0.60285561034E+03  0.64289138751E+03  0.00000000000E+00 0. -1.
        -12    1    6    6    0    0  0.76073181356E+02  0.21108822228E+02 -0.28418955770E+03  0.29495154857E+03  0.00000000000E+00 0.  1.
</event>
<event>
12    1  0.8461994E-002  0.3152557E+03  0.7818608E-02  0.1078466E+00
         21   -1    0    0  501  502  0.00000000000E+00  0.00000000000E+00  0.90614811628E+03  0.90614811628E+03  0.00000000000E+00 0. -1.
         21   -1    0    0  502  503 -0.00000000000E+00 -0.00000000000E+00 -0.42558328638E+03  0.42558328638E+03  0.00000000000E+00 0.  1.
         -6    2    1    2    0  503  0.21418355486E+03  0.14360802294E+03 -0.33451687153E+03  0.45966043722E+03  0.18135137380E+03 0.  0.
        -24    2    3    3    0    0  0.69324407272E+02  0.12249540532E+02 -0.18303241887E+03  0.21225620739E+03  0.81215186573E+02 0.  0.
          6    2    1    2  501    0 -0.21418355486E+03 -0.14360802294E+03  0.81508170143E+03  0.87207096544E+03  0.17219677502E+03 0.  0.
         24    2    5    5    0    0 -0.45213674272E+02 -0.85904523539E+02  0.42321861631E+03  0.44142112872E+03  0.79465414985E+02 0.  0.
          5    1    5    5  501    0 -0.16896988059E+03 -0.57703499403E+02  0.39186308512E+03  0.43064983672E+03  0.47000000000E+01 0. -1.
        -11    1    6    6    0    0 -0.65129043389E+02 -0.69780830945E+02  0.27727031362E+03  0.29324048744E+03  0.00000000000E+00 0.  1.
         12    1    6    6    0    0  0.19915369117E+02 -0.16123692594E+02  0.14594830269E+03  0.14818064128E+03  0.00000000000E+00 0. -1.
         -5    1    3    3    0  503  0.14485914759E+03  0.13135848241E+03 -0.15148445266E+03  0.24740422983E+03  0.47000000000E+01 0.  1.
         11    1    4    4    0    0  0.80571638122E+02  0.13167408795E+02 -0.18362504871E+03  0.20095603508E+03  0.00000000000E+00 0. -1.
        -12    1    4    4    0    0 -0.11247230850E+02 -0.91786826282E+00  0.59262983800E+00  0.11300172302E+02  0.00000000000E+00 0.  1.
</event>
<event>
12    1  0.8461994E-002  0.1917995E+03  0.7818608E-02  0.1156983E+00
         21   -1    0    0  501  502  0.00000000000E+00  0.00000000000E+00  0.86740514332E+03  0.86740514332E+03  0.00000000000E+00 0. -1.
         21   -1    0    0  502  503 -0.00000000000E+00 -0.00000000000E+00 -0.33511001326E+03  0.33511001326E+03  0.00000000000E+00 0. -1.
         -6    2    1    2    0  503  0.14777666560E+02  0.90178449505E+02 -0.29595825118E+03  0.35234416993E+03  0.16794223847E+03 0.  0.
        -24    2    3    3    0    0 -0.41906928857E+02  0.74562838228E+01 -0.15537674412E+03  0.17959767885E+03  0.79382660468E+02 0.  0.
          6    2    1    2  501    0 -0.14777666560E+02 -0.90178449505E+02  0.82825338123E+03  0.85017098665E+03  0.16863128665E+03 0.  0.
         24    2    5    5    0    0 -0.38723030770E+02 -0.12169482912E+03  0.61405453411E+03  0.63229510740E+03  0.80156268842E+02 0.  0.
          5    1    5    5  501    0  0.23945364210E+02  0.31516379614E+02  0.21419884712E+03  0.21787587925E+03  0.47000000000E+01 0. -1.
        -13    1    6    6    0    0 -0.40123733130E+02 -0.20600231529E+02  0.12472106570E+03  0.13262589388E+03  0.00000000000E+00 0.  1.
         14    1    6    6    0    0  0.14007023594E+01 -0.10109459759E+03  0.48933346842E+03  0.49966921352E+03  0.00000000000E+00 0. -1.
         -5    1    3    3    0  503  0.56684595417E+02  0.82722165682E+02 -0.14058150706E+03  0.17274649108E+03  0.47000000000E+01 0.  1.
         11    1    4    4    0    0  0.14712907701E+02 -0.68915907999E+01 -0.91946415437E+02  0.93370803726E+02  0.00000000000E+00 0. -1.
        -12    1    4    4    0    0 -0.56619836558E+02  0.14347874623E+02 -0.63430328679E+02  0.86226875128E+02  0.00000000000E+00 0.  1.
</event>
<event>
12    1  0.8461994E-002  0.1905874E+03  0.7818608E-02  0.1157974E+00
         21   -1    0    0  503  502  0.00000000000E+00  0.00000000000E+00  0.14631525023E+04  0.14631525023E+04  0.00000000000E+00 0.  1.
         21   -1    0    0  501  503 -0.00000000000E+00 -0.00000000000E+00 -0.36507081758E+02  0.36507081758E+02  0.00000000000E+00 0. -1.
          6    2    1    2  501    0  0.21313081145E+01 -0.81756053128E+02  0.28850509628E+03  0.34567216316E+03  0.17194609361E+03 0.  0.
         24    2    3    3    0    0  0.11551470020E+02  0.24940882500E+02  0.13258428512E+03  0.15644646492E+03  0.78367210265E+02 0.  0.
         -6    2    1    2    0  502 -0.21313081145E+01  0.81756053128E+02  0.11381403242E+04  0.11539874209E+04  0.17214811989E+03 0.  0.
        -24    2    5    5    0    0  0.48985279258E+02  0.89528973597E+02  0.63610460634E+03  0.64927435799E+03  0.80703946887E+02 0.  0.
          5    1    3    3  501    0 -0.94201619056E+01 -0.10669693563E+03  0.15592081116E+03  0.18922569824E+03  0.47000000000E+01 0. -1.
        -11    1    4    4    0    0  0.32031751021E+02 -0.17350671958E+01  0.11313827644E+03  0.11759810001E+03  0.00000000000E+00 0.  1.
         12    1    4    4    0    0 -0.20480281001E+02  0.26675949696E+02  0.19446008684E+02  0.38848364905E+02  0.00000000000E+00 0. -1.
         -5    1    5    5    0  502 -0.51116587373E+02 -0.77729204691E+01  0.50203571788E+03  0.50471306286E+03  0.47000000000E+01 0.  1.
         13    1    6    6    0    0  0.32452385024E+02 -0.71673817360E+00  0.93660450475E+02  0.99125935004E+02  0.00000000000E+00 0. -1.
        -14    1    6    6    0    0  0.16532894234E+02  0.90245711771E+02  0.54244415586E+03  0.55014842299E+03  0.00000000000E+00 0.  1.
</event>
<event>
12    1  0.8461994E-002  0.2021039E+03  0.7818608E-02  0.1148312E+00
         21   -1    0    0  503  502  0.00000000000E+00  0.00000000000E+00  0.10145395009E+03  0.10145395009E+03  0.00000000000E+00 0.  1.
         21   -1    0    0  501  503 -0.00000000000E+00 -0.00000000000E+00 -0.48680620562E+03  0.48680620562E+03  0.00000000000E+00 0.  1.
          6    2    1    2  501    0  0.70071439040E+01 -0.10465700626E+03 -0.31666998303E+03  0.37480465677E+03  0.17086972685E+03 0.  0.
         24    2    3    3    0    0 -0.19161629583E+02 -0.38177219858E+02 -0.28061295685E+03  0.29463879219E+03  0.79017201572E+02 0.  0.
         -6    2    1    2    0  502 -0.70071439040E+01  0.10465700626E+03 -0.68682272494E+02  0.21345549895E+03  0.17275360040E+03 0.  0.
        -24    2    5    5    0    0  0.22793145201E+02  0.79504928945E+01  0.12468091805E+02  0.83656891155E+02  0.79121958513E+02 0.  0.
          5    1    3    3  501    0  0.26168773487E+02 -0.66479786407E+02 -0.36057026180E+02  0.80165864578E+02  0.47000000000E+01 0. -1.
        -11    1    4    4    0    0  0.16723333641E+02 -0.43582773064E+02 -0.99239204483E+02  0.10967017691E+03  0.00000000000E+00 0.  1.
         12    1    4    4    0    0 -0.35884963225E+02  0.54055532059E+01 -0.18137375237E+03  0.18496861528E+03  0.00000000000E+00 0. -1.
         -5    1    5    5    0  502 -0.29800289105E+02  0.96706513370E+02 -0.81150364299E+02  0.12979860779E+03  0.47000000000E+01 0.  1.
         13    1    6    6    0    0 -0.12490046534E+01  0.34355037347E+02  0.28364034726E+02  0.44568453750E+02  0.00000000000E+00 0. -1.
        -14    1    6    6    0    0  0.24042149854E+02 -0.26404544453E+02 -0.15895942921E+02  0.39088437404E+02  0.00000000000E+00 0.  1.
</event>
<event>
12    1  0.8461994E-002  0.1861411E+03  0.7818608E-02  0.1162660E+00
         21   -1    0    0  501  502  0.00000000000E+00  0.00000000000E+00  0.31629004355E+02  0.31629004355E+02  0.00000000000E+00 0. -1.
         21   -1    0    0  502  503 -0.00000000000E+00 -0.00000000000E+00 -0.19705637075E+04  0.19705637075E+04  0.00000000000E+00 0. -1.
         -6    2    1    2    0  503  0.23787505312E+02  0.62447701811E+02 -0.16388466224E+04  0.16490619132E+04  0.17064987816E+03 0.  0.
        -24    2    3    3    0    0 -0.36463588313E+02  0.65714041959E+02 -0.12929823795E+04  0.12979422359E+04  0.84868636533E+02 0.  0.
          6    2    1    2  501    0 -0.23787505312E+02 -0.62447701811E+02 -0.30008808075E+03  0.35313079867E+03  0.17373239159E+03 0.  0.
         24    2    5    5    0    0  0.23927880240E+02 -0.43933175984E+01 -0.24829038645E+03  0.26174064231E+03  0.79171984566E+02 0.  0.
          5    1    5    5  501    0 -0.47715385552E+02 -0.58054384213E+02 -0.51797694302E+02  0.91390156361E+02  0.47000000000E+01 0. -1.
        -11    1    6    6    0    0  0.49634711941E+02  0.10127303280E+02 -0.12309475051E+03  0.13311079785E+03  0.00000000000E+00 0.  1.
         12    1    6    6    0    0 -0.25706831702E+02 -0.14520620878E+02 -0.12519563594E+03  0.12862984446E+03  0.00000000000E+00 0. -1.
         -5    1    3    3    0  503  0.60251093625E+02 -0.32663401471E+01 -0.34586424292E+03  0.35111967730E+03  0.47000000000E+01 0.  1.
         11    1    4    4    0    0 -0.16378827722E+01  0.63596868111E+02 -0.47820084124E+03  0.48241402224E+03  0.00000000000E+00 0. -1.
        -12    1    4    4    0    0 -0.34825705541E+02  0.21171738477E+01 -0.81478153822E+03  0.81552821363E+03  0.00000000000E+00 0.  1.
</event>
<event>
12    1  0.8461994E-002  0.1750897E+03  0.7818608E-02  0.1173325E+00
         21   -1    0    0  503  502  0.00000000000E+00  0.00000000000E+00  0.35767289888E+03  0.35767289888E+03  0.00000000000E+00 0. -1.
         21   -1    0    0  501  503 -0.00000000000E+00 -0.00000000000E+00 -0.10333696298E+03  0.10333696298E+03  0.00000000000E+00 0. -1.
          6    2    1    2  501    0 -0.26636583666E+02  0.14003049004E+02  0.29285456722E+02  0.17752190269E+03  0.17248418765E+03 0.  0.
         24    2    3    3    0    0  0.74049051630E+01 -0.17486895315E+02  0.76132889033E+02  0.11143702191E+03  0.79128812265E+02 0.  0.
         -6    2    1    2    0  502  0.26636583666E+02 -0.14003049004E+02  0.22505047918E+03  0.28348795917E+03  0.16974130860E+03 0.  0.
        -24    2    5    5    0    0  0.15733152611E+02 -0.73100001449E+02  0.17301078437E+03  0.20385408175E+03  0.77669896585E+02 0.  0.
          5    1    3    3  501    0 -0.34041488829E+02  0.31489944318E+02 -0.46847432311E+02  0.66084880789E+02  0.47000000000E+01 0. -1.
        -11    1    4    4    0    0 -0.57390382786E+01 -0.33662634600E+02  0.17543835675E+01  0.34193382259E+02  0.00000000000E+00 0.  1.
         12    1    4    4    0    0  0.13143943442E+02  0.16175739285E+02  0.74378505465E+02  0.77243639647E+02  0.00000000000E+00 0. -1.
         -5    1    5    5    0  502  0.10903431055E+02  0.59096952445E+02  0.52039694801E+02  0.79633877415E+02  0.47000000000E+01 0.  1.
         11    1    6    6    0    0  0.41250862038E+02 -0.35548579607E+02  0.54937547134E+02  0.77352887574E+02  0.00000000000E+00 0. -1.
        -12    1    6    6    0    0 -0.25517709427E+02 -0.37551421842E+02  0.11807323724E+03  0.12650119418E+03  0.00000000000E+00 0.  1.
</event>
<event>
12    1  0.8461994E-002  0.2330832E+03  0.7818608E-02  0.1124500E+00
         21   -1    0    0  503  502  0.00000000000E+00  0.00000000000E+00  0.24682558543E+03  0.24682558543E+03  0.00000000000E+00 0.  1.
         21   -1    0    0  501  503 -0.00000000000E+00 -0.00000000000E+00 -0.76435776499E+03  0.76435776499E+03  0.00000000000E+00 0.  1.
          6    2    1    2  501    0  0.15171069695E+03  0.43162443225E+02 -0.68541037831E+03  0.72393628339E+03  0.17151449976E+03 0.  0.
         24    2    3    3    0    0  0.78894840769E+02 -0.12639273535E+02 -0.19721433413E+03  0.22717331369E+03  0.79561760485E+02 0.  0.
         -6    2    1    2    0  502 -0.15171069695E+03 -0.43162443225E+02  0.16787819875E+03  0.28724706704E+03  0.17160610663E+03 0.  0.
        -24    2    5    5    0    0 -0.38949477424E+02 -0.73972851415E+02  0.77132567491E+02  0.13918885729E+03  0.80218828753E+02 0.  0.
          5    1    3    3  501    0  0.72815856184E+02  0.55801716760E+02 -0.48819604418E+03  0.49676296969E+03  0.47000000000E+01 0. -1.
        -13    1    4    4    0    0  0.90008755084E+02 -0.19838597230E+02 -0.19193404357E+03  0.21291740890E+03  0.00000000000E+00 0.  1.
         14    1    4    4    0    0 -0.11113914314E+02  0.71993236951E+01 -0.52802905639E+01  0.14255904794E+02  0.00000000000E+00 0. -1.
         -5    1    5    5    0  502 -0.11276121953E+03  0.30810408190E+02  0.90745631262E+02  0.14805820975E+03  0.47000000000E+01 0.  1.
         13    1    6    6    0    0 -0.27717827765E+02 -0.23995181661E+02 -0.10101194077E+02  0.38027369627E+02  0.00000000000E+00 0. -1.
        -14    1    6    6    0    0 -0.11231649659E+02 -0.49977669754E+02  0.87233761567E+02  0.10116148766E+03  0.00000000000E+00 0.  1.
</event>
<event>
12    1  0.8461994E-002  0.2118051E+03  0.7818608E-02  0.1140394E+00
         21   -1    0    0  503  502  0.00000000000E+00  0.00000000000E+00  0.11457381225E+03  0.11457381225E+03  0.00000000000E+00 0. -1.
         21   -1    0    0  501  503 -0.00000000000E+00 -0.00000000000E+00 -0.11755940386E+04  0.11755940386E+04  0.00000000000E+00 0. -1.
          6    2    1    2  501    0  0.16294425467E+02 -0.11967244585E+03 -0.10586393849E+04  0.10796197213E+04  0.17399538166E+03 0.  0.
         24    2    3    3    0    0  0.60720684776E+02 -0.12894951556E+03 -0.74915724910E+03  0.76679223067E+03  0.80117176741E+02 0.  0.
         -6    2    1    2    0  502 -0.16294425467E+02  0.11967244585E+03 -0.23808414196E+01  0.21054812948E+03  0.17244664052E+03 0.  0.
        -24    2    5    5    0    0 -0.42841797397E+02  0.14434287163E+03 -0.17575352645E+02  0.17097091336E+03  0.79068805496E+02 0.  0.
          5    1    3    3  501    0 -0.44426259309E+02  0.92770697177E+01 -0.30948213581E+03  0.31282749068E+03  0.47000000000E+01 0. -1.
        -11    1    4    4    0    0  0.26984995829E+02 -0.58707557061E+02 -0.16077578775E+03  0.17327325582E+03  0.00000000000E+00 0.  1.
         12    1    4    4    0    0  0.33735688947E+02 -0.70241958504E+02 -0.58838146135E+03  0.59351897485E+03  0.00000000000E+00 0. -1.
         -5    1    5    5    0  502  0.26547371930E+02 -0.24670425779E+02  0.15194511226E+02  0.39577216121E+02  0.47000000000E+01 0.  1.
         11    1    6    6    0    0 -0.32785941498E+02  0.81781671994E+02 -0.48377849772E+02  0.10051654681E+03  0.00000000000E+00 0. -1.
        -12    1    6    6    0    0 -0.10055855899E+02  0.62561199631E+02  0.30802497127E+02  0.70454366553E+02  0.00000000000E+00 0.  1.
</event>
<event>
12    1  0.8461994E-002  0.1733436E+03  0.7818608E-02  0.1174605E+00
         21   -1    0    0  501  502  0.00000000000E+00  0.00000000000E+00  0.53095129046E+02  0.53095129046E+02  0.00000000000E+00 0. -1.
         21   -1    0    0  502  503 -0.00000000000E+00 -0.00000000000E+00 -0.15033170134E+04  0.15033170134E+04  0.00000000000E+00 0. -1.
         -6    2    1    2    0  503 -0.22858995267E+02 -0.52946558153E+01 -0.13398426430E+04  0.13509089083E+04  0.17095614421E+03 0.  0.
        -24    2    3    3    0    0  0.11842670968E+02  0.51469273442E+02 -0.10009104552E+04  0.10054766178E+04  0.79825777386E+02 0.  0.
          6    2    1    2  501    0  0.22858995267E+02  0.52946558153E+01 -0.11037924135E+03  0.20550323423E+03  0.17174817412E+03 0.  0.
         24    2    5    5    0    0  0.78706664822E+02  0.41733246446E+01 -0.93834199564E+02  0.14705626693E+03  0.81292883516E+02 0.  0.
          5    1    5    5  501    0 -0.55847669555E+02  0.11213311706E+01 -0.16545041784E+02  0.58446967294E+02  0.47000000000E+01 0. -1.
        -11    1    6    6    0    0  0.11221955376E+02 -0.52366927952E+00 -0.76367959420E+02  0.77189842194E+02  0.00000000000E+00 0.  1.
         12    1    6    6    0    0  0.67484709446E+02  0.46969939241E+01 -0.17466240144E+02  0.69866424738E+02  0.00000000000E+00 0. -1.
         -5    1    3    3    0  503 -0.34701666235E+02 -0.56763929257E+02 -0.33893218788E+03  0.34543229045E+03  0.47000000000E+01 0.  1.
         13    1    4    4    0    0 -0.33942022557E+02  0.14757334446E+02 -0.37747763949E+03  0.37928776428E+03  0.00000000000E+00 0. -1.
        -14    1    4    4    0    0  0.45784693524E+02  0.36711938997E+02 -0.62343281567E+03  0.62618885352E+03  0.00000000000E+00 0.  1.
</event>
<event>
12    1  0.8461994E-002  0.2418891E+03  0.7818608E-02  0.1118690E+00
         21   -1    0    0  501  502  0.00000000000E+00  0.00000000000E+00  0.15516831673E+03  0.15516831673E+03  0.00000000000E+00 0. -1.
         21   -1    0    0  502  503 -0.00000000000E+00 -0.00000000000E+00 -0.40319953239E+03  0.40319953239E+03  0.00000000000E+00 0.  1.
         -6    2    1    2    0  503 -0.14929306692E+03  0.83442189650E+02 -0.51276954275E+02  0.24726435436E+03  0.17105354732E+03 0.  0.
        -24    2    3    3    0    0 -0.95624547367E+02  0.19574382221E+02  0.31273846423E+02  0.12980741964E+03  0.79653639117E+02 0.  0.
          6    2    1    2  501    0  0.14929306692E+03 -0.83442189650E+02 -0.19675426138E+03  0.31110349477E+03  0.16977080503E+03 0.  0.
         24    2    5    5    0    0  0.61433078100E+02 -0.87642795300E+02 -0.17571277632E+03  0.22053939141E+03  0.79418894144E+02 0.  0.
          5    1    5    5  501    0  0.87859988825E+02  0.42006056496E+01 -0.21041485058E+02  0.90564103361E+02  0.47000000000E+01 0. -1.
        -13    1    6    6    0    0  0.49022008180E+02 -0.38244613683E+02 -0.36031206890E+02  0.71861363971E+02  0.00000000000E+00 0.  1.
         14    1    6    6    0    0  0.12411069920E+02 -0.49398181617E+02 -0.13968156943E+03  0.14867802744E+03  0.00000000000E+00 0. -1.
         -5    1    3    3    0  503 -0.53668519558E+02  0.63867807429E+02 -0.82550800699E+02  0.11745693472E+03  0.47000000000E+01 0.  1.
         13    1    4    4    0    0 -0.69642553787E+02  0.41271145100E+02  0.45756458507E+02  0.92989495165E+02  0.00000000000E+00 0. -1.
        -14    1    4    4    0    0 -0.25981993580E+02 -0.21696762879E+02 -0.14482612084E+02  0.36817924474E+02  0.00000000000E+00 0.  1.
</event>
<event>
12    1  0.8461994E-002  0.1715197E+03  0.7818608E-02  0.1177438E+00
         21   -1    0    0  503  502  0.00000000000E+00  0.00000000000E+00  0.59142197669E+02  0.59142197669E+02  0.00000000000E+00 0.  1.
         21   -1    0    0  501  503 -0.00000000000E+00 -0.00000000000E+00 -0.53023953038E+03  0.53023953038E+03  0.00000000000E+00 0.  1.
          6    2    1    2  501    0  0.16269069661E+02 -0.35793874562E+01 -0.15191447317E+03  0.22912229766E+03  0.17070889105E+03 0.  0.
         24    2    3    3    0    0  0.23780837540E+02  0.21180958819E+02 -0.21465398831E+02  0.96048812691E+02  0.88036639088E+02 0.  0.
         -6    2    1    2    0  502 -0.16269069661E+02  0.35793874562E+01 -0.31918285954E+03  0.36025943039E+03  0.16622774955E+03 0.  0.
        -24    2    5    5    0    0  0.23632452925E+02 -0.45585385573E+02 -0.24315440753E+03  0.26120529405E+03  0.80421511607E+02 0.  0.
          5    1    3    3  501    0 -0.75117678790E+01 -0.24760346275E+02 -0.13044907434E+03  0.13307348497E+03  0.47000000000E+01 0. -1.
        -11    1    4    4    0    0 -0.13029487760E+02  0.18596786006E+02 -0.46300565992E+02  0.51568889965E+02  0.00000000000E+00 0.  1.
         12    1    4    4    0    0  0.36810325300E+02  0.25841728128E+01  0.24835167161E+02  0.44479922726E+02  0.00000000000E+00 0. -1.
         -5    1    5    5    0  502 -0.39901522587E+02  0.49164773029E+02 -0.76028452010E+02  0.99054136343E+02  0.47000000000E+01 0.  1.
         11    1    6    6    0    0 -0.14979528384E+02  0.88221824542E+01 -0.13368883886E+02  0.21930440721E+02  0.00000000000E+00 0. -1.
        -12    1    6    6    0    0  0.38611981309E+02 -0.54407568027E+02 -0.22978552364E+03  0.23927485333E+03  0.00000000000E+00 0.  1.
</event>
<event>
12    1  0.8461994E-002  0.2071578E+03  0.7818608E-02  0.1144091E+00
         21   -1    0    0  501  502  0.00000000000E+00  0.00000000000E+00  0.92010400768E+02  0.92010400768E+02  0.00000000000E+00 0. -1.
         21   -1    0    0  502  503 -0.00000000000E+00 -0.00000000000E+00 -0.58802698066E+03  0.58802698066E+03  0.00000000000E+00 0. -1.
         -6    2    1    2    0  503  0.85226014695E+02 -0.77357279659E+02 -0.40502832647E+03  0.45493110796E+03  0.17224037114E+03 0.  0.
        -24    2    3    3    0    0  0.36212526313E+02 -0.11512385839E+03 -0.27262122289E+03  0.30870399833E+03  0.80068580503E+02 0.  0.
          6    2    1    2  501    0 -0.85226014695E+02  0.77357279659E+02 -0.90988253421E+02  0.22510627347E+03  0.17072302070E+03 0.  0.
         24    2    5    5    0    0 -0.43873202514E+01  0.61231760725E+02 -0.10003805662E+03  0.14204656110E+03  0.80006472542E+02 0.  0.
          5    1    5    5  501    0 -0.80838694443E+02  0.16125518934E+02  0.90498031992E+01  0.83059712365E+02  0.47000000000E+01 0. -1.
        -11    1    6    6    0    0 -0.72842934130E+01 -0.15870840318E+02 -0.24379881273E+01  0.17632024530E+02  0.00000000000E+00 0.  1.
         12    1    6    6    0    0  0.28969731616E+01  0.77102601043E+02 -0.97600068493E+02  0.12441453657E+03  0.00000000000E+00 0. -1.
         -5    1    3    3    0  503  0.49013488382E+02  0.37766578726E+02 -0.13240710359E+03  0.14622710963E+03  0.47000000000E+01 0.  1.
         11    1    4    4    0    0  0.44895573102E+02 -0.50665733501E+02 -0.76860992764E+02  0.10242187874E+03  0.00000000000E+00 0. -1.
        -12    1    4    4    0    0 -0.86830467886E+01 -0.64458124884E+02 -0.19576023012E+03  0.20628211959E+03  0.00000000000E+00 0.  1.
</event>
<event>
12    1  0.8461994E-002  0.1941174E+03  0.7818608E-02  0.1155359E+00
         21   -1    0    0  501  502  0.00000000000E+00  0.00000000000E+00  0.13755506247E+03  0.13755506247E+03  0.00000000000E+00 0.  1.
         21   -1    0    0  502  503 -0.00000000000E+00 -0.00000000000E+00 -0.35294345848E+03  0.35294345848E+03  0.00000000000E+00 0.  1.
         -6    2    1    2    0  503  0.67951998367E+01  0.92613074563E+02 -0.22577249954E+03  0.29610357610E+03  0.16757311810E+03 0.  0.
        -24    2    3    3    0    0 -0.54600979605E+02  0.78793398663E+02 -0.11881087919E+03  0.17191278530E+03  0.79046278144E+02 0.  0.
          6    2    1    2  501    0 -0.67951998367E+01 -0.92613074563E+02  0.10384103533E+02  0.19439494485E+03  0.17046468449E+03 0.  0.
         24    2    5    5    0    0  0.57064000727E+02 -0.29033322780E+02  0.49978158421E+01  0.10399868150E+03  0.81801672231E+02 0.  0.
          5    1    5    5  501    0 -0.63859200563E+02 -0.63579751783E+02  0.53862876904E+01  0.90396263355E+02  0.47000000000E+01 0. -1.
        -13    1    6    6    0    0  0.58505727498E+02 -0.53520151409E+02  0.23568371351E+01  0.79327683933E+02  0.00000000000E+00 0.  1.
         14    1    6    6    0    0 -0.14417267716E+01  0.24486828629E+02  0.26409787070E+01  0.24670997566E+02  0.00000000000E+00 0. -1.
         -5    1    3    3    0  503  0.61396179442E+02  0.13819675900E+02 -0.10696162035E+03  0.12419079080E+03  0.47000000000E+01 0.  1.
         13    1    4    4    0    0  0.14797015613E+02  0.36465163587E+02 -0.20579459192E+02  0.44409165350E+02  0.00000000000E+00 0. -1.
        -14    1    4    4    0    0 -0.69397995218E+02  0.42328235075E+02 -0.98231420002E+02  0.12750361995E+03  0.00000000000E+00 0.  1.
</event>
<event>
12    1  0.8461994E-002  0.3891717E+03  0.7818608E-02  0.1047607E+00
         21   -1    0    0  503  502  0.00000000000E+00  0.00000000000E+00  0.46316899058E+03  0.46316899058E+03  0.00000000000E+00 0.  1.
         21   -1    0    0  501  503 -0.00000000000E+00 -0.00000000000E+00 -0.38680395109E+03  0.38680395109E+03  0.00000000000E+00 0. -1.
          6    2    1    2  501    0 -0.11805119000E+02 -0.34898317755E+03  0.20544359555E+03  0.43995359598E+03  0.17153272754E+03 0.  0.
         24    2    3    3    0    0 -0.36234086827E+02 -0.11079647122E+03  0.12254667696E+03  0.18652970079E+03  0.78656685417E+02 0.  0.
         -6    2    1    2    0  502  0.11805119000E+02  0.34898317755E+03 -0.12907855605E+03  0.41001934569E+03  0.17183122870E+03 0.  0.
        -24    2    5    5    0    0 -0.30921628078E+02  0.83033561433E+02 -0.33007589858E+02  0.12400100051E+03  0.80224857327E+02 0.  0.
          5    1    3    3  501    0  0.24428967828E+02 -0.23818670633E+03  0.82896918587E+02  0.25342389519E+03  0.47000000000E+01 0. -1.
        -13    1    4    4    0    0 -0.45786774188E+02 -0.78266633910E+02  0.12276991642E+03  0.15262551245E+03  0.00000000000E+00 0.  1.
         14    1    4    4    0    0  0.95526873605E+01 -0.32529837312E+02 -0.22323945546E+00  0.33904188343E+02  0.00000000000E+00 0. -1.
         -5    1    5    5    0  502  0.42726747078E+02  0.26594961612E+03 -0.96070966195E+02  0.28601834517E+03  0.47000000000E+01 0.  1.
         13    1    6    6    0    0 -0.54207044786E+01  0.74223332889E+02 -0.52189816169E+02  0.90896997167E+02  0.00000000000E+00 0. -1.
        -14    1    6    6    0    0 -0.25500923600E+02  0.88102285438E+01  0.19182226310E+02  0.33104003348E+02  0.00000000000E+00 0.  1.
</event>
<event>
12    1  0.8461994E-002  0.2083847E+03  0.7818608E-02  0.1143335E+00
         21   -1    0    0  503  502  0.00000000000E+00  0.00000000000E+00  0.20512543291E+02  0.20512543291E+02  0.00000000000E+00 0.  1.
         21   -1    0    0  501  503 -0.00000000000E+00 -0.00000000000E+00 -0.25291674971E+04  0.25291674971E+04  0.00000000000E+00 0. -1.
          6    2    1    2  501    0  0.67441911361E+01  0.11774553304E+03 -0.17899953412E+04  0.18020842135E+04  0.17179841816E+03 0.  0.
         24    2    3    3    0    0  0.58221817525E+02  0.27125923145E+02 -0.10543192617E+04  0.10590477113E+04  0.76598651790E+02 0.  0.
         -6    2    1    2    0  502 -0.67441911361E+01 -0.11774553304E+03 -0.71865961258E+03  0.74759582683E+03  0.16887387860E+03 0.  0.
        -24    2    5    5    0    0 -0.33443565462E+02 -0.13216971801E+03 -0.67946173438E+03  0.69780147618E+03  0.81678303350E+02 0.  0.
          5    1    3    3  501    0 -0.51477626389E+02  0.90619609892E+02 -0.73567607948E+03  0.74303650222E+03  0.47000000000E+01 0. -1.
        -13    1    4    4    0    0  0.14916494939E+02  0.15968933342E+02 -0.62303547052E+02  0.66024545652E+02  0.00000000000E+00 0.  1.
         14    1    4    4    0    0  0.43305322586E+02  0.11156989804E+02 -0.99201571465E+03  0.99302316564E+03  0.00000000000E+00 0. -1.
         -5    1    5    5    0  502  0.26699374326E+02  0.14424184970E+02 -0.39197878198E+02  0.49794350650E+02  0.47000000000E+01 0.  1.
         11    1    6    6    0    0  0.11799457766E+02 -0.29138356859E+01 -0.16428167589E+03  0.16473064886E+03  0.00000000000E+00 0. -1.
        -12    1    6    6    0    0 -0.45243023228E+02 -0.12925588232E+03 -0.51518005849E+03  0.53307082732E+03  0.00000000000E+00 0.  1.
</event>
<event>
12    1  0.8461994E-002  0.2693957E+03  0.7818608E-02  0.1101657E+00
         21   -1    0    0  503  502  0.00000000000E+00  0.00000000000E+00  0.20203150653E+04  0.20203150653E+04  0.00000000000E+00 0. -1.
         21   -1    0    0  501  503 -0.00000000000E+00 -0.00000000000E+00 -0.69630226532E+02  0.69630226532E+02  0.00000000000E+00 0. -1.
          6    2    1    2  501    0  0.20438380183E+03  0.37444077430E+02  0.24816845441E+03  0.36628083066E+03  0.17146214674E+03 0.  0.
         24    2    3    3    0    0  0.16146561557E+03 -0.13732140892E+02  0.10782909541E+03  0.21078741692E+03  0.80898112525E+02 0.  0.
         -6    2    1    2    0  502 -0.20438380183E+03 -0.37444077430E+02  0.17025163844E+04  0.17236644612E+04  0.17112082953E+03 0.  0.
        -24    2    5    5    0    0 -0.13157415538E+03 -0.11404459140E+02  0.63801631538E+03  0.65634923444E+03  0.79294885172E+02 0.  0.
          5    1    3    3  501    0  0.42918186259E+02  0.51176218322E+02  0.14033935900E+03  0.15549341374E+03  0.47000000000E+01 0. -1.
        -13    1    4    4    0    0  0.53634124580E+02 -0.41601944515E+02  0.55752415433E+02  0.87838903303E+02  0.00000000000E+00 0.  1.
         14    1    4    4    0    0  0.10783149099E+03  0.27869803624E+02  0.52076679977E+02  0.12294851362E+03  0.00000000000E+00 0. -1.
         -5    1    5    5    0  502 -0.72809646454E+02 -0.26039618291E+02  0.10645000690E+04  0.10673152268E+04  0.47000000000E+01 0.  1.
         13    1    6    6    0    0 -0.13150006863E+03 -0.14039601861E+02  0.63969623550E+03  0.65322327897E+03  0.00000000000E+00 0. -1.
        -14    1    6    6    0    0 -0.74086741903E-01  0.26351427207E+01 -0.16799201242E+01  0.31259554743E+01  0.00000000000E+00 0.  1.
</event>
<event>
12    1  0.8461994E-002  0.1916882E+03  0.7818608E-02  0.1157155E+00
         21   -1    0    0  503  502  0.00000000000E+00  0.00000000000E+00  0.46229294945E+03  0.46229294945E+03  0.00000000000E+00 0. -1.
         21   -1    0    0  501  503 -0.00000000000E+00 -0.00000000000E+00 -0.81452034967E+02  0.81452034967E+02  0.00000000000E+00 0. -1.
          6    2    1    2  501    0 -0.30611104323E+02  0.77689866082E+02  0.23708969287E+03  0.30488666596E+03  0.17254449170E+03 0.  0.
         24    2    3    3    0    0 -0.74919891989E+01  0.32252153965E+02  0.30914657504E+02  0.92450053356E+02  0.80591345562E+02 0.  0.
         -6    2    1    2    0  502  0.30611104323E+02 -0.77689866082E+02  0.14375122161E+03  0.23885831846E+03  0.17151130453E+03 0.  0.
        -24    2    5    5    0    0 -0.11897624086E+02 -0.11616216955E+02  0.80969483792E+01  0.82024358657E+02  0.79912107248E+02 0.  0.
          5    1    3    3  501    0 -0.23119115124E+02  0.45437712118E+02  0.20617503537E+03  0.21243661260E+03  0.47000000000E+01 0. -1.
        -11    1    4    4    0    0 -0.42906943175E+02  0.21358420239E+02  0.27456940006E+02  0.55236504616E+02  0.00000000000E+00 0.  1.
         12    1    4    4    0    0  0.35414953976E+02  0.10893733726E+02  0.34577174982E+01  0.37213548741E+02  0.00000000000E+00 0. -1.
         -5    1    5    5    0  502  0.42508728410E+02 -0.66073649128E+02  0.13565427323E+03  0.15683395980E+03  0.47000000000E+01 0.  1.
         13    1    6    6    0    0 -0.46083084467E+02 -0.21196271685E+01  0.38816459625E+01  0.46294823347E+02  0.00000000000E+00 0. -1.
        -14    1    6    6    0    0  0.34185460381E+02 -0.94965897862E+01  0.42153024166E+01  0.35729535310E+02  0.00000000000E+00 0.  1.
</event>
<event>
12    1  0.8461994E-002  0.1888862E+03  0.7818608E-02  0.1160369E+00
         21   -1    0    0  503  502  0.00000000000E+00  0.00000000000E+00  0.36572718326E+02  0.36572718326E+02  0.00000000000E+00 0. -1.
         21   -1    0    0  501  503 -0.00000000000E+00 -0.00000000000E+00 -0.10651008332E+04  0.10651008332E+04  0.00000000000E+00 0. -1.
          6    2    1    2  501    0 -0.51662696539E+02 -0.56270228227E+02 -0.68618008668E+03  0.71067462318E+03  0.16846345563E+03 0.  0.
         24    2    3    3    0    0 -0.60733620651E+02 -0.96465222681E+01 -0.21784010957E+03  0.23990878354E+03  0.79500207614E+02 0.  0.
         -6    2    1    2    0  502  0.51662696539E+02  0.56270228227E+02 -0.34234802820E+03  0.39099892834E+03  0.17275015704E+03 0.  0.
        -24    2    5    5    0    0  0.28796391212E+02  0.10278921333E+03 -0.21087987830E+03  0.24960285933E+03  0.80227238467E+02 0.  0.
          5    1    3    3  501    0  0.90709241115E+01 -0.46623705959E+02 -0.46833997711E+03  0.47076583965E+03  0.47000000000E+01 0. -1.
        -13    1    4    4    0    0 -0.23121502540E+02 -0.39251629629E+02 -0.15082672683E+03  0.15755632591E+03  0.00000000000E+00 0.  1.
         14    1    4    4    0    0 -0.37612118111E+02  0.29605107361E+02 -0.67013382746E+02  0.82352457631E+02  0.00000000000E+00 0. -1.
         -5    1    5    5    0  502  0.22866305328E+02 -0.46518985103E+02 -0.13146814990E+03  0.14139606901E+03  0.47000000000E+01 0.  1.
         11    1    6    6    0    0  0.16218885750E+02  0.73406384829E+02 -0.62335646340E+02  0.97659010814E+02  0.00000000000E+00 0. -1.
        -12    1    6    6    0    0  0.12577505461E+02  0.29382828502E+02 -0.14854423196E+03  0.15194384852E+03  0.00000000000E+00 0.  1.
</event>
<event>
12    1  0.8461994E-002  0.6737976E+03  0.7818608E-02  0.9765564E-01
         21   -1    0    0  503  502  0.00000000000E+00  0.00000000000E+00  0.73531763071E+03  0.73531763071E+03  0.00000000000E+00 0.  1.
         21   -1    0    0  501  503 -0.00000000000E+00 -0.00000000000E+00 -0.61412808697E+03  0.61412808697E+03  0.00000000000E+00 0. -1.
          6    2    1    2  501    0 -0.62732932168E+03 -0.15315317529E+03  0.25247671145E+02  0.66885182411E+03  0.17241619639E+03 0.  0.
         24    2    3    3    0    0 -0.39354296449E+03 -0.10694417727E+03  0.82220322376E+02  0.42378182331E+03  0.80732461888E+02 0.  0.
         -6    2    1    2    0  502  0.62732932168E+03  0.15315317529E+03  0.95941872586E+02  0.68059389357E+03  0.19236744034E+03 0.  0.
        -24    2    5    5    0    0  0.27283753537E+03  0.14402377931E+03  0.54443324819E+02  0.32353368590E+03  0.80788616644E+02 0.  0.
          5    1    3    3  501    0 -0.23378635719E+03 -0.46208998017E+02 -0.56972651231E+02  0.24507000081E+03  0.47000000000E+01 0. -1.
        -13    1    4    4    0    0 -0.38926039885E+03 -0.93606970832E+02  0.72856511756E+02  0.40693241995E+03  0.00000000000E+00 0.  1.
         14    1    4    4    0    0 -0.42825656342E+01 -0.13337206438E+02  0.93638106192E+01  0.16849403352E+02  0.00000000000E+00 0. -1.
         -5    1    5    5    0  502  0.35449178631E+03  0.91293959764E+01  0.41498547767E+02  0.35706020767E+03  0.47000000000E+01 0.  1.
         13    1    6    6    0    0  0.24972535443E+03  0.10024233266E+03  0.51192598888E+02  0.27391962340E+03  0.00000000000E+00 0. -1.
        -14    1    6    6    0    0  0.23112180942E+02  0.43781446649E+02  0.32507259308E+01  0.49614062499E+02  0.00000000000E+00 0.  1.
</event>
<event>
12    1  0.8461994E-002  0.1761165E+03  0.7818608E-02  0.1172147E+00
         21   -1    0    0  503  502  0.00000000000E+00  0.00000000000E+00  0.12653045585E+03  0.12653045585E+03  0.00000000000E+00 0. -1.
         21   -1    0    0  501  503 -0.00000000000E+00 -0.00000000000E+00 -0.25658424420E+03  0.25658424420E+03  0.00000000000E+00 0. -1.
          6    2    1    2  501    0 -0.37826434642E+02 -0.18557618791E+02 -0.20031645863E+02  0.17725209103E+03  0.17100237591E+03 0.  0.
         24    2    3    3    0    0 -0.63474725086E+02  0.39098462387E+02 -0.48794102645E+01  0.11218490465E+03  0.83689388226E+02 0.  0.
         -6    2    1    2    0  502  0.37826434642E+02  0.18557618791E+02 -0.11002214249E+03  0.20586260902E+03  0.16881740900E+03 0.  0.
        -24    2    5    5    0    0  0.34893102426E+02  0.57192497450E+02 -0.12583910173E+03  0.16374937492E+03  0.80559716365E+02 0.  0.
          5    1    3    3  501    0  0.25648290445E+02 -0.57656081179E+02 -0.15152235599E+02  0.65067186379E+02  0.47000000000E+01 0. -1.
        -13    1    4    4    0    0 -0.53472072169E+01  0.47268909126E+02 -0.19946628088E+02  0.51583043407E+02  0.00000000000E+00 0.  1.
         14    1    4    4    0    0 -0.58127517869E+02 -0.81704467388E+01  0.15067217824E+02  0.60601861246E+02  0.00000000000E+00 0. -1.
         -5    1    5    5    0  502  0.29333322155E+01 -0.38634878659E+02  0.15816959239E+02  0.42113234100E+02  0.47000000000E+01 0.  1.
         11    1    6    6    0    0  0.54163314759E+02  0.19026827523E+02 -0.95126859352E+02  0.11110717439E+03  0.00000000000E+00 0. -1.
        -12    1    6    6    0    0 -0.19270212333E+02  0.38165669927E+02 -0.30712242373E+02  0.52642200523E+02  0.00000000000E+00 0.  1.
</event>
<event>
12    1  0.8461994E-002  0.2198515E+03  0.7818608E-02  0.1134198E+00
         21   -1    0    0  501  502  0.00000000000E+00  0.00000000000E+00  0.14211704143E+03  0.14211704143E+03  0.00000000000E+00 0. -1.
         21   -1    0    0  502  503 -0.00000000000E+00 -0.00000000000E+00 -0.49930265477E+03  0.49930265477E+03  0.00000000000E+00 0. -1.
         -6    2    1    2    0  503  0.16235532230E+02 -0.13419312461E+03 -0.36034023536E+03  0.42154560001E+03  0.17200064089E+03 0.  0.
        -24    2    3    3    0    0 -0.43754797177E+02 -0.61930554500E+02 -0.20134998703E+03  0.23682768608E+03  0.98973025416E+02 0.  0.
          6    2    1    2  501    0 -0.16235532230E+02  0.13419312461E+03  0.31546220246E+01  0.21987409619E+03  0.17338765624E+03 0.  0.
         24    2    5    5    0    0  0.35114589323E+02  0.12641870390E+03 -0.30782403329E+02  0.15765602574E+03  0.81811631303E+02 0.  0.
          5    1    5    5  501    0 -0.51350121553E+02  0.77744207057E+01  0.33937025354E+02  0.62218070451E+02  0.47000000000E+01 0. -1.
        -11    1    6    6    0    0  0.14415540609E+02  0.31790204213E+02  0.27650314979E+02  0.44530493074E+02  0.00000000000E+00 0.  1.
         12    1    6    6    0    0  0.20699048713E+02  0.94628499689E+02 -0.58432718308E+02  0.11312553266E+03  0.00000000000E+00 0. -1.
         -5    1    3    3    0  503  0.59990329407E+02 -0.72262570108E+02 -0.15899024833E+03  0.18471791393E+03  0.47000000000E+01 0.  1.
         13    1    4    4    0    0 -0.16765587588E+02 -0.84785100098E+02 -0.16406947257E+03  0.18544106869E+03  0.00000000000E+00 0. -1.
        -14    1    4    4    0    0 -0.26989209589E+02  0.22854545598E+02 -0.37280514459E+02  0.51386617393E+02  0.00000000000E+00 0.  1.
</event>
<event>
12    1  0.8461994E-002  0.1947724E+03  0.7818608E-02  0.1157984E+00
         21   -1    0    0  501  502  0.00000000000E+00  0.00000000000E+00  0.20417862094E+03  0.20417862094E+03  0.00000000000E+00 0. -1.
         21   -1    0    0  502  503 -0.00000000000E+00 -0.00000000000E+00 -0.17083693394E+03  0.17083693394E+03  0.00000000000E+00 0. -1.
         -6    2    1    2    0  503 -0.34771662712E+02 -0.27551919451E+02  0.24692729027E+02  0.18005118689E+03  0.17274409466E+03 0.  0.
        -24    2    3    3    0    0 -0.71056827007E+02 -0.56010391514E+02  0.42933676437E+02  0.13023833772E+03  0.83261560259E+02 0.  0.
          6    2    1    2  501    0  0.34771662712E+02  0.27551919451E+02  0.86489579738E+01  0.19496436799E+03  0.18965263911E+03 0.  0.
         24    2    5    5    0    0  0.16471397119E+02 -0.64863811882E+01 -0.69509326017E+02  0.10764705592E+03  0.80268064517E+02 0.  0.
          5    1    5    5  501    0  0.18300265592E+02  0.34038300640E+02  0.78158283991E+02  0.87317312072E+02  0.47000000000E+01 0. -1.
        -13    1    6    6    0    0  0.36903306244E+02 -0.15369248855E+02 -0.61012210771E+01  0.40438752710E+02  0.00000000000E+00 0.  1.
         14    1    6    6    0    0 -0.20431909125E+02  0.88828676671E+01 -0.63408104940E+02  0.67208303211E+02  0.00000000000E+00 0. -1.
         -5    1    3    3    0  503  0.36285164295E+02  0.28458472063E+02 -0.18240947411E+02  0.49812849171E+02  0.47000000000E+01 0.  1.
         11    1    4    4    0    0 -0.10973630371E+02 -0.40372879229E+02  0.52808586112E+02  0.67373115617E+02  0.00000000000E+00 0. -1.
        -12    1    4    4    0    0 -0.60083196636E+02 -0.15637512286E+02 -0.98749096748E+01  0.62865222099E+02  0.00000000000E+00 0.  1.
</event>
<event>
12    1  0.8461994E-002  0.2076707E+03  0.7818608E-02  0.1143503E+00
         21   -1    0    0  503  502  0.00000000000E+00  0.00000000000E+00  0.82090766401E+02  0.82090766401E+02  0.00000000000E+00 0.  1.
         21   -1    0    0  501  503 -0.00000000000E+00 -0.00000000000E+00 -0.10180622999E+04  0.10180622999E+04  0.00000000000E+00 0.  1.
          6    2    1    2  501    0 -0.65562197391E+02 -0.94662774037E+02 -0.85081685943E+03  0.87570166991E+03  0.17235035216E+03 0.  0.
         24    2    3    3    0    0 -0.91263822600E+02 -0.47549679867E+02 -0.34440894713E+03  0.36643623734E+03  0.71189436012E+02 0.  0.
         -6    2    1    2    0  502  0.65562197391E+02  0.94662774037E+02 -0.85154674109E+02  0.22445139642E+03  0.17282264990E+03 0.  0.
        -24    2    5    5    0    0  0.37420288698E+02 -0.62117078269E+01  0.63784585306E+00  0.88988949238E+02  0.80496974594E+02 0.  0.
          5    1    3    3  501    0  0.25701625209E+02 -0.47113094170E+02 -0.50640791230E+03  0.50926543258E+03  0.47000000000E+01 0. -1.
        -11    1    4    4    0    0 -0.57115868323E+02 -0.55823897766E+02 -0.16133265489E+03  0.18001876433E+03  0.00000000000E+00 0.  1.
         12    1    4    4    0    0 -0.34147954277E+02  0.82742178986E+01 -0.18307629224E+03  0.18641747301E+03  0.00000000000E+00 0. -1.
         -5    1    5    5    0  502  0.28141908693E+02  0.10087448186E+03 -0.85792519962E+02  0.13546244719E+03  0.47000000000E+01 0.  1.
         13    1    6    6    0    0 -0.13425113445E+02 -0.66736359420E+01 -0.27171736308E+02  0.31033439089E+02  0.00000000000E+00 0. -1.
        -14    1    6    6    0    0  0.50845402143E+02  0.46192811507E+00  0.27809582161E+02  0.57955510149E+02  0.00000000000E+00 0.  1.
</event>
<event>
12    1  0.8461994E-002  0.4347014E+03  0.7818608E-02  0.1032389E+00
         21   -1    0    0  503  502  0.00000000000E+00  0.00000000000E+00  0.46227648651E+03  0.46227648651E+03  0.00000000000E+00 0. -1.
         21   -1    0    0  501  503 -0.00000000000E+00 -0.00000000000E+00 -0.66124738275E+03  0.66124738275E+03  0.00000000000E+00 0.  1.
          6    2    1    2  501    0 -0.15744147770E+03  0.36700303570E+03  0.24767506758E+03  0.50025995293E+03  0.17157515640E+03 0.  0.
         24    2    3    3    0    0 -0.96008258120E+02  0.21246933873E+03  0.68829529449E+02  0.25600082726E+03  0.80237858284E+02 0.  0.
         -6    2    1    2    0  502  0.15744147770E+03 -0.36700303570E+03 -0.44664596382E+03  0.62326391634E+03  0.17171559421E+03 0.  0.
        -24    2    5    5    0    0  0.11541557899E+03 -0.13359126697E+03 -0.24413765389E+03  0.31136820374E+03  0.78610315914E+02 0.  0.
          5    1    3    3  501    0 -0.61433219580E+02  0.15453369696E+03  0.17884553813E+03  0.24425912567E+03  0.47000000000E+01 0. -1.
        -11    1    4    4    0    0 -0.12291449760E+02  0.12233851552E+03  0.25427347546E+02  0.12555613136E+03  0.00000000000E+00 0.  1.
         12    1    4    4    0    0 -0.83716808360E+02  0.90130823211E+02  0.43402181903E+02  0.13044469590E+03  0.00000000000E+00 0. -1.
         -5    1    5    5    0  502  0.42025898705E+02 -0.23341176873E+03 -0.20250830993E+03  0.31189571260E+03  0.47000000000E+01 0.  1.
         13    1    6    6    0    0  0.26933890780E+02  0.46359853359E+01 -0.21485698588E+02  0.34764379419E+02  0.00000000000E+00 0. -1.
        -14    1    6    6    0    0  0.88481688215E+02 -0.13822725230E+03 -0.22265195530E+03  0.27660382432E+03  0.00000000000E+00 0.  1.
</event>
<event>
12    1  0.8461994E-002  0.1858731E+03  0.7818608E-02  0.1162501E+00
         21   -1    0    0  503  502  0.00000000000E+00  0.00000000000E+00  0.32870679115E+03  0.32870679115E+03  0.00000000000E+00 0. -1.
         21   -1    0    0  501  503 -0.00000000000E+00 -0.00000000000E+00 -0.11495317474E+03  0.11495317474E+03  0.00000000000E+00 0. -1.
          6    2    1    2  501    0  0.66215819236E+02 -0.14361259087E+02  0.17358483170E+03  0.25349600737E+03  0.17186550403E+03 0.  0.
         24    2    3    3    0    0  0.76485732570E+02 -0.25815561435E+02  0.40411147713E+02  0.11935432008E+03  0.78076131834E+02 0.  0.
         -6    2    1    2    0  502 -0.66215819236E+02  0.14361259087E+02  0.40168784708E+02  0.19016395853E+03  0.17308385072E+03 0.  0.
        -24    2    5    5    0    0 -0.45583623681E+01 -0.38240402613E+02  0.56390241561E+02  0.10737626341E+03  0.82865526852E+02 0.  0.
          5    1    3    3  501    0 -0.10269913334E+02  0.11454302348E+02  0.13317368399E+03  0.13414168729E+03  0.47000000000E+01 0. -1.
        -11    1    4    4    0    0  0.74807625509E+02 -0.43717070181E+02  0.48877744316E+02  0.99480636050E+02  0.00000000000E+00 0.  1.
         12    1    4    4    0    0  0.16781070607E+01  0.17901508746E+02 -0.84665966034E+01  0.19873684025E+02  0.00000000000E+00 0. -1.
         -5    1    5    5    0  502 -0.61657456868E+02  0.52601661700E+02 -0.16221456853E+02  0.82787695121E+02  0.47000000000E+01 0.  1.
         11    1    6    6    0    0 -0.25128871883E+02 -0.29326326051E+02 -0.77859859443E+01  0.39396893011E+02  0.00000000000E+00 0. -1.
        -12    1    6    6    0    0  0.20570509515E+02 -0.89140765620E+01  0.64176227505E+02  0.67979370396E+02  0.00000000000E+00 0.  1.
</event>
<event>
12    1  0.8461994E-002  0.2610423E+03  0.7818608E-02  0.1106713E+00
         21   -1    0    0  503  502  0.00000000000E+00  0.00000000000E+00  0.45475538196E+03  0.45475538196E+03  0.00000000000E+00 0.  1.
         21   -1    0    0  501  503 -0.00000000000E+00 -0.00000000000E+00 -0.30445089974E+03  0.30445089974E+03  0.00000000000E+00 0. -1.
          6    2    1    2  501    0 -0.10230334985E+03 -0.16396160533E+03 -0.19609880664E+03  0.32545715017E+03  0.17354604926E+03 0.  0.
         24    2    3    3    0    0 -0.11837840002E+02 -0.76677504666E+02 -0.30618676293E+02  0.11759112062E+03  0.82889047117E+02 0.  0.
         -6    2    1    2    0  502  0.10230334985E+03  0.16396160533E+03  0.34640328886E+03  0.43374913154E+03  0.17548130147E+03 0.  0.
        -24    2    5    5    0    0  0.76654932951E+02  0.18206060848E+03  0.34136448435E+03  0.40161045149E+03  0.75757505678E+02 0.  0.
          5    1    3    3  501    0 -0.90465509852E+02 -0.87284100664E+02 -0.16548013035E+03  0.20786602955E+03  0.47000000000E+01 0. -1.
        -13    1    4    4    0    0  0.11524178494E+02 -0.20061621870E+02 -0.48543900132E+02  0.53775325215E+02  0.00000000000E+00 0.  1.
         14    1    4    4    0    0 -0.23362018496E+02 -0.56615882796E+02  0.17925223838E+02  0.63815795401E+02  0.00000000000E+00 0. -1.
         -5    1    5    5    0  502  0.25648416904E+02 -0.18099003145E+02  0.50388045108E+01  0.32138680051E+02  0.47000000000E+01 0.  1.
         11    1    6    6    0    0  0.25740297253E+02  0.17082596606E+02  0.19999508201E+02  0.36801607815E+02  0.00000000000E+00 0. -1.
        -12    1    6    6    0    0  0.50914635698E+02  0.16497801187E+03  0.32136497615E+03  0.36480884367E+03  0.00000000000E+00 0.  1.
</event>
<event>
12    1  0.8461994E-002  0.1872495E+03  0.7818608E-02  0.1161293E+00
         21   -1    0    0  501  502  0.00000000000E+00  0.00000000000E+00  0.20736968780E+02  0.20736968780E+02  0.00000000000E+00 0.  1.
         21   -1    0    0  502  503 -0.00000000000E+00 -0.00000000000E+00 -0.17466215540E+04  0.17466215540E+04  0.00000000000E+00 0.  1.
         -6    2    1    2    0  503  0.41650579780E+02  0.56590287538E+02 -0.10349118755E+04  0.10514635121E+04  0.17203399600E+03 0.  0.
        -24    2    3    3    0    0  0.30622490368E+02  0.96189188430E+02 -0.92227964935E+03  0.93147267880E+03  0.82773805392E+02 0.  0.
          6    2    1    2  501    0 -0.41650579780E+02 -0.56590287538E+02 -0.69097270972E+03  0.71589501068E+03  0.17356597968E+03 0.  0.
         24    2    5    5    0    0 -0.52147542854E+02 -0.10268442311E+03 -0.49450657989E+03  0.51376662144E+03  0.78459714339E+02 0.  0.
          5    1    5    5  501    0  0.10496963075E+02  0.46094135575E+02 -0.19646612983E+03  0.20212838924E+03  0.47000000000E+01 0. -1.
        -11    1    6    6    0    0 -0.72570509735E+02 -0.71903594643E+02 -0.37645687925E+03  0.39007228528E+03  0.00000000000E+00 0.  1.
         12    1    6    6    0    0  0.20422966881E+02 -0.30780828470E+02 -0.11804970064E+03  0.12369433616E+03  0.00000000000E+00 0. -1.
         -5    1    3    3    0  503  0.11028089412E+02 -0.39598900892E+02 -0.11263222617E+03  0.11999083331E+03  0.47000000000E+01 0.  1.
         13    1    4    4    0    0  0.40168465907E+01 -0.95534715454E+01 -0.26558635078E+03  0.26578847529E+03  0.00000000000E+00 0. -1.
        -14    1    4    4    0    0  0.26605643777E+02  0.10574265998E+03 -0.65669329857E+03  0.66568420352E+03  0.00000000000E+00 0.  1.
</event>
<event>
12    1  0.8461994E-002  0.2094982E+03  0.7818608E-02  0.1142255E+00
         21   -1    0    0  503  502  0.00000000000E+00  0.00000000000E+00  0.10541131865E+03  0.10541131865E+03  0.00000000000E+00 0.  1.
         21   -1    0    0  501  503 -0.00000000000E+00 -0.00000000000E+00 -0.53083172519E+03  0.53083172519E+03  0.00000000000E+00 0.  1.
          6    2    1    2  501    0  0.98508692464E+02 -0.63561471469E+02 -0.36286995475E+03  0.41900371414E+03  0.17362455259E+03 0.  0.
         24    2    3    3    0    0  0.13310535911E+03 -0.74584055098E+02 -0.31222056413E+03  0.35650669452E+03  0.79596009130E+02 0.  0.
         -6    2    1    2    0  502 -0.98508692464E+02  0.63561471469E+02 -0.62550451786E+02  0.21723932970E+03  0.17186140987E+03 0.  0.
        -24    2    5    5    0    0 -0.48860222074E+02  0.77139461939E+02 -0.96740474429E+02  0.15526852943E+03  0.80073584589E+02 0.  0.
          5    1    3    3  501    0 -0.34596666644E+02  0.11022583629E+02 -0.50649390614E+02  0.62497019628E+02  0.47000000000E+01 0. -1.
        -11    1    4    4    0    0  0.46140454586E+02 -0.50138722195E+02 -0.20648265232E+03  0.21743486087E+03  0.00000000000E+00 0.  1.
         12    1    4    4    0    0  0.86964904523E+02 -0.24445332903E+02 -0.10573791182E+03  0.13907183365E+03  0.00000000000E+00 0. -1.
         -5    1    5    5    0  502 -0.49648470390E+02 -0.13577990470E+02  0.34190022644E+02  0.61970800267E+02  0.47000000000E+01 0.  1.
         13    1    6    6    0    0 -0.12303989639E+02 -0.64465159789E+01 -0.51684944552E+02  0.53518961337E+02  0.00000000000E+00 0. -1.
        -14    1    6    6    0    0 -0.36556232435E+02  0.83585977918E+02 -0.45055529878E+02  0.10174956809E+03  0.00000000000E+00 0.  1.
</event>
<event>
12    1  0.8461994E-002  0.1885519E+03  0.7818608E-02  0.1159795E+00
         21   -1    0    0  501  502  0.00000000000E+00  0.00000000000E+00  0.64589952445E+02  0.64589952445E+02  0.00000000000E+00 0. -1.
         21   -1    0    0  502  503 -0.00000000000E+00 -0.00000000000E+00 -0.57307394167E+03  0.57307394167E+03  0.00000000000E+00 0. -1.
         -6    2    1    2    0  503 -0.87341630523E+01 -0.77246589141E+02 -0.19042005152E+03  0.26791197246E+03  0.17167908384E+03 0.  0.
        -24    2    3    3    0    0 -0.15144134733E+02 -0.10792838839E+03 -0.89956741126E+02  0.16256764524E+03  0.80362566966E+02 0.  0.
          6    2    1    2  501    0  0.87341630523E+01  0.77246589141E+02 -0.31806393770E+03  0.36975192165E+03  0.17178036547E+03 0.  0.
         24    2    5    5    0    0  0.27620469758E+02  0.35244783476E+02 -0.65712238415E+02  0.11318942557E+03  0.80552235676E+02 0.  0.
          5    1    5    5  501    0 -0.18886306706E+02  0.42001805664E+02 -0.25235169928E+03  0.25656249607E+03  0.47000000000E+01 0. -1.
        -11    1    6    6    0    0  0.50656081046E+02  0.75845346090E+01 -0.56029667727E+02  0.75913683732E+02  0.00000000000E+00 0.  1.
         12    1    6    6    0    0 -0.23035611287E+02  0.27660248868E+02 -0.96825706879E+01  0.37275741842E+02  0.00000000000E+00 0. -1.
         -5    1    3    3    0  503  0.64099716802E+01  0.30681799244E+02 -0.10046331040E+03  0.10534432722E+03  0.47000000000E+01 0.  1.
         11    1    4    4    0    0  0.84518399611E+01 -0.97475682436E+02 -0.94884521378E+02  0.13629385409E+03  0.00000000000E+00 0. -1.
        -12    1    4    4    0    0 -0.23595974694E+02 -0.10452705949E+02  0.49277802522E+01  0.26273791154E+02  0.00000000000E+00 0.  1.
</event>
<event>
12    1  0.8461994E-002  0.2305558E+03  0.7818608E-02  0.1126721E+00
         21   -1    0    0  503  502  0.00000000000E+00  0.00000000000E+00  0.44368440383E+03  0.44368440383E+03  0.00000000000E+00 0.  1.
         21   -1    0    0  501  503 -0.00000000000E+00 -0.00000000000E+00 -0.13980709769E+03  0.13980709769E+03  0.00000000000E+00 0. -1.
          6    2    1    2  501    0 -0.13880589977E+03  0.69454285936E+02  0.37080843971E+02  0.23087794690E+03  0.16684921855E+03 0.  0.
         24    2    3    3    0    0 -0.12334929370E+03 -0.10670105653E+02  0.25909540211E+02  0.14838120256E+03  0.77567890200E+02 0.  0.
         -6    2    1    2    0  502  0.13880589977E+03 -0.69454285936E+02  0.26679646216E+03  0.35261355462E+03  0.17048457711E+03 0.  0.
        -24    2    5    5    0    0  0.60141665493E+01 -0.50682460329E+02  0.10879263658E+03  0.14531347081E+03  0.81702417595E+02 0.  0.
          5    1    3    3  501    0 -0.15456606072E+02  0.80124391590E+02  0.11171303760E+02  0.82496744339E+02  0.47000000000E+01 0. -1.
        -11    1    4    4    0    0 -0.28543248366E+02 -0.30251428875E+02 -0.13691765186E+02  0.43787331617E+02  0.00000000000E+00 0.  1.
         12    1    4    4    0    0 -0.94806045332E+02  0.19581323221E+02  0.39601305397E+02  0.10459387095E+03  0.00000000000E+00 0. -1.
         -5    1    5    5    0  502  0.13279173322E+03 -0.18771825607E+02  0.15800382558E+03  0.20730008381E+03  0.47000000000E+01 0.  1.
         13    1    6    6    0    0  0.43507154444E+02 -0.26066694980E+02  0.66797083500E+02  0.83870110523E+02  0.00000000000E+00 0. -1.
        -14    1    6    6    0    0 -0.37492987895E+02 -0.24615765349E+02  0.41995553082E+02  0.61443360290E+02  0.00000000000E+00 0.  1.
</event>
<event>
12    1  0.8461994E-002  0.1864820E+03  0.7818608E-02  0.1161718E+00
         21   -1    0    0  501  502  0.00000000000E+00  0.00000000000E+00  0.89176772922E+02  0.89176772922E+02  0.00000000000E+00 0.  1.
         21   -1    0    0  502  503 -0.00000000000E+00 -0.00000000000E+00 -0.52741849855E+03  0.52741849855E+03  0.00000000000E+00 0.  1.
         -6    2    1    2    0  503  0.31080304307E+02  0.63280550562E+02 -0.37682444302E+03  0.42044284632E+03  0.17264157312E+03 0.  0.
        -24    2    3    3    0    0 -0.20835569183E+02 -0.15768807270E+02 -0.11756394822E+03  0.14443169971E+03  0.79727396371E+02 0.  0.
          6    2    1    2  501    0 -0.31080304307E+02 -0.63280550562E+02 -0.61417282613E+02  0.19615242516E+03  0.17243340133E+03 0.  0.
         24    2    5    5    0    0  0.32515436747E+01 -0.10489193919E+03 -0.43880879071E+02  0.13923319380E+03  0.80296072529E+02 0.  0.
          5    1    5    5  501    0 -0.34331847982E+02  0.41611388627E+02 -0.17536403542E+02  0.56919231359E+02  0.47000000000E+01 0. -1.
        -11    1    6    6    0    0  0.38409164548E+02 -0.73743926658E+02 -0.16193194866E+02  0.84709209654E+02  0.00000000000E+00 0.  1.
         12    1    6    6    0    0 -0.35157620874E+02 -0.31148012531E+02 -0.27687684204E+02  0.54523984142E+02  0.00000000000E+00 0. -1.
         -5    1    3    3    0  503  0.51915873490E+02  0.79049357831E+02 -0.25926049480E+03  0.27601114661E+03  0.47000000000E+01 0.  1.
         13    1    4    4    0    0 -0.30499176363E+02  0.14079230154E+02 -0.14303659885E+02  0.36510535009E+02  0.00000000000E+00 0. -1.
        -14    1    4    4    0    0  0.96636071801E+01 -0.29848037423E+02 -0.10326028834E+03  0.10792116470E+03  0.00000000000E+00 0.  1.
</event>
<event>
12    1  0.8461994E-002  0.2090635E+03  0.7818608E-02  0.1142805E+00
         21   -1    0    0  501  502  0.00000000000E+00  0.00000000000E+00  0.28354591111E+03  0.28354591111E+03  0.00000000000E+00 0.  1.
         21   -1    0    0  502  503 -0.00000000000E+00 -0.00000000000E+00 -0.18096226167E+03  0.18096226167E+03  0.00000000000E+00 0.  1.
         -6    2    1    2    0  503  0.11698387569E+03  0.32266281734E+01 -0.40837458588E+02  0.21301469411E+03  0.17323949775E+03 0.  0.
        -24    2    3    3    0    0  0.11288093786E+03  0.61615967385E+02 -0.32976938995E+02  0.15376921495E+03  0.77581308265E+02 0.  0.
          6    2    1    2  501    0 -0.11698387569E+03 -0.32266281734E+01  0.14342110803E+03  0.25149347867E+03  0.17024604925E+03 0.  0.
         24    2    5    5    0    0 -0.13482654457E+03  0.13448478971E+02  0.15992281660E+03  0.22164693085E+03  0.72062444992E+02 0.  0.
          5    1    5    5  501    0  0.17842668879E+02 -0.16675107144E+02 -0.16501708573E+02  0.29846547821E+02  0.47000000000E+01 0. -1.
        -13    1    6    6    0    0 -0.50704783585E+02 -0.20022541457E+02  0.97406339988E+02  0.11162379816E+03  0.00000000000E+00 0.  1.
         14    1    6    6    0    0 -0.84121760985E+02  0.33471020428E+02  0.62516476611E+02  0.11002313269E+03  0.00000000000E+00 0. -1.
         -5    1    3    3    0  503  0.41029378342E+01 -0.58389339212E+02 -0.78605195937E+01  0.59245479159E+02  0.47000000000E+01 0.  1.
         13    1    4    4    0    0  0.15080769118E+02  0.27223612048E+02  0.20352378618E+02  0.37185668820E+02  0.00000000000E+00 0. -1.
        -14    1    4    4    0    0  0.97800168738E+02  0.34392355337E+02 -0.53329317613E+02  0.11658354613E+03  0.00000000000E+00 0.  1.
</event>
<event>
12    1  0.8461994E-002  0.2196706E+03  0.7818608E-02  0.1134881E+00
         21   -1    0    0  503  502  0.00000000000E+00  0.00000000000E+00  0.32344794200E+03  0.32344794200E+03  0.00000000000E+00 0. -1.
         21   -1    0    0  501  503 -0.00000000000E+00 -0.00000000000E+00 -0.14982013943E+03  0.14982013943E+03  0.00000000000E+00 0. -1.
          6    2    1    2  501    0 -0.11354672223E+03 -0.64574388357E+02  0.50769588834E+02  0.22157522141E+03  0.17162551626E+03 0.  0.
         24    2    3    3    0    0 -0.28060678699E+02 -0.78709015960E+01 -0.30326771167E+02  0.90724701138E+02  0.80385978667E+02 0.  0.
         -6    2    1    2    0  502  0.11354672223E+03  0.64574388357E+02  0.12285821373E+03  0.25169286002E+03  0.17661383112E+03 0.  0.
        -24    2    5    5    0    0  0.95483177294E+02 -0.24612085764E+02  0.80107660476E+02  0.15104387282E+03  0.81695913833E+02 0.  0.
          5    1    3    3  501    0 -0.85486043531E+02 -0.56703486761E+02  0.81096360000E+02  0.13085052027E+03  0.47000000000E+01 0. -1.
        -11    1    4    4    0    0  0.22209538551E+02 -0.22865959646E+02 -0.18822929653E+02  0.37019162524E+02  0.00000000000E+00 0.  1.
         12    1    4    4    0    0 -0.50270217251E+02  0.14995058050E+02 -0.11503841513E+02  0.53705538615E+02  0.00000000000E+00 0. -1.
         -5    1    5    5    0  502  0.18063544936E+02  0.89186474121E+02  0.42750553258E+02  0.10064898721E+03  0.47000000000E+01 0.  1.
         11    1    6    6    0    0 -0.17135508747E+01 -0.30415318271E+02  0.22912511396E+02  0.38118381663E+02  0.00000000000E+00 0. -1.
        -12    1    6    6    0    0  0.97196728168E+02  0.58032325078E+01  0.57195149080E+02  0.11292549115E+03  0.00000000000E+00 0.  1.
</event>
<event>
12    1  0.8461994E-002  0.2122059E+03  0.7818608E-02  0.1140055E+00
         21   -1    0    0  501  502  0.00000000000E+00  0.00000000000E+00  0.62610554175E+03  0.62610554175E+03  0.00000000000E+00 0. -1.
         21   -1    0    0  502  503 -0.00000000000E+00 -0.00000000000E+00 -0.10969646566E+03  0.10969646566E+03  0.00000000000E+00 0. -1.
         -6    2    1    2    0  503 -0.11164952613E+03 -0.43008682821E+02  0.41669022852E+02  0.21625831796E+03  0.17525977616E+03 0.  0.
        -24    2    3    3    0    0 -0.70324460296E+02 -0.18031077829E+02 -0.44789610730E+02  0.11711787647E+03  0.80248602956E+02 0.  0.
          6    2    1    2  501    0  0.11164952613E+03  0.43008682821E+02  0.47474005324E+03  0.51954368946E+03  0.17387398775E+03 0.  0.
         24    2    5    5    0    0  0.56595819852E+02  0.87454246415E+02  0.23190230643E+03  0.26656428323E+03  0.80165487116E+02 0.  0.
          5    1    5    5  501    0  0.55053706276E+02 -0.44445563594E+02  0.24283774681E+03  0.25297940622E+03  0.47000000000E+01 0. -1.
        -11    1    6    6    0    0  0.14042347122E+01  0.58967300521E+02  0.61582460885E+02  0.85273172186E+02  0.00000000000E+00 0.  1.
         12    1    6    6    0    0  0.55191585140E+02  0.28486945894E+02  0.17031984555E+03  0.18129111105E+03  0.00000000000E+00 0. -1.
         -5    1    3    3    0  503 -0.41325065832E+02 -0.24977604991E+02  0.86458633583E+02  0.99140441487E+02  0.47000000000E+01 0.  1.
         13    1    4    4    0    0 -0.62776920389E+02  0.18814469619E+02 -0.10791073376E+02  0.66418169692E+02  0.00000000000E+00 0. -1.
        -14    1    4    4    0    0 -0.75475399066E+01 -0.36845547448E+02 -0.33998537354E+02  0.50699706780E+02  0.00000000000E+00 0.  1.
</event>
<event>
12    1  0.8461994E-002  0.2267788E+03  0.7818608E-02  0.1129110E+00
         21   -1    0    0  503  502  0.00000000000E+00  0.00000000000E+00  0.11563539640E+03  0.11563539640E+03  0.00000000000E+00 0.  1.
         21   -1    0    0  501  503 -0.00000000000E+00 -0.00000000000E+00 -0.66748930104E+03  0.66748930104E+03  0.00000000000E+00 0.  1.
          6    2    1    2  501    0 -0.81667657832E+02 -0.12240735661E+03 -0.50271673798E+03  0.55108358649E+03  0.17121867120E+03 0.  0.
         24    2    3    3    0    0  0.82275557614E+01 -0.68464199977E+02 -0.34830637354E+03  0.36438686928E+03  0.81886636861E+02 0.  0.
         -6    2    1    2    0  502  0.81667657832E+02  0.12240735661E+03 -0.49137166656E+02  0.23204111095E+03  0.17255563954E+03 0.  0.
        -24    2    5    5    0    0 -0.10488900138E+02  0.10513706969E+03 -0.17097095826E+02  0.13284559630E+03  0.78688126943E+02 0.  0.
          5    1    3    3  501    0 -0.89895213594E+02 -0.53943156633E+02 -0.15441036443E+03  0.18669671722E+03  0.47000000000E+01 0. -1.
        -11    1    4    4    0    0 -0.28891681685E+02 -0.45661214237E+02 -0.26418835728E+03  0.26965749364E+03  0.00000000000E+00 0.  1.
         12    1    4    4    0    0  0.37119237447E+02 -0.22802985740E+02 -0.84118016267E+02  0.94729375634E+02  0.00000000000E+00 0. -1.
         -5    1    5    5    0  502  0.92156557971E+02  0.17270286915E+02 -0.32040070830E+02  0.99195514646E+02  0.47000000000E+01 0.  1.
         13    1    6    6    0    0 -0.19461967361E+02  0.41609127681E+01  0.16706178914E+02  0.25984183315E+02  0.00000000000E+00 0. -1.
        -14    1    6    6    0    0  0.89730672226E+01  0.10097615693E+03 -0.33803274741E+02  0.10686141299E+03  0.00000000000E+00 0.  1.
</event>
<event>
12    1  0.8461994E-002  0.2532639E+03  0.7818608E-02  0.1111464E+00
         21   -1    0    0  503  502  0.00000000000E+00  0.00000000000E+00  0.13515952450E+04  0.13515952450E+04  0.00000000000E+00 0.  1.
         21   -1    0    0  501  503 -0.00000000000E+00 -0.00000000000E+00 -0.52123898098E+02  0.52123898098E+02  0.00000000000E+00 0.  1.
          6    2    1    2  501    0 -0.16701070333E+03  0.81647918650E+02  0.43578863277E+03  0.50403804971E+03  0.17199902749E+03 0.  0.
         24    2    3    3    0    0 -0.14112859938E+03  0.11756513748E+03  0.40015455801E+03  0.44701343049E+03  0.77191279497E+02 0.  0.
         -6    2    1    2    0  502  0.16701070333E+03 -0.81647918650E+02  0.86368271417E+03  0.89968109343E+03  0.17005670074E+03 0.  0.
        -24    2    5    5    0    0  0.19086499684E+03 -0.61251067773E+02  0.67708719425E+03  0.71040606364E+03  0.77772529365E+02 0.  0.
          5    1    3    3  501    0 -0.25882103946E+02 -0.35917218828E+02  0.35634074761E+02  0.57024619219E+02  0.47000000000E+01 0. -1.
        -11    1    4    4    0    0 -0.11107589933E+03  0.54079994539E+02  0.20205853997E+03  0.23683360149E+03  0.00000000000E+00 0.  1.
         12    1    4    4    0    0 -0.30052700047E+02  0.63485142939E+02  0.19809601804E+03  0.21017982899E+03  0.00000000000E+00 0. -1.
         -5    1    5    5    0  502 -0.23854293512E+02 -0.20396850877E+02  0.18659551992E+03  0.18927502978E+03  0.47000000000E+01 0.  1.
         13    1    6    6    0    0  0.64067612972E+02 -0.32823756601E+01  0.11925339063E+03  0.13541345649E+03  0.00000000000E+00 0. -1.
        -14    1    6    6    0    0  0.12679738387E+03 -0.57968692113E+02  0.55783380362E+03  0.57499260715E+03  0.00000000000E+00 0.  1.
</event>
<event>
12    1  0.8461994E-002  0.2035283E+03  0.7818608E-02  0.1146970E+00
         21   -1    0    0  501  502  0.00000000000E+00  0.00000000000E+00  0.13344463564E+03  0.13344463564E+03  0.00000000000E+00 0. -1.
         21   -1    0    0  502  503 -0.00000000000E+00 -0.00000000000E+00 -0.41132290579E+03  0.41132290579E+03  0.00000000000E+00 0.  1.
         -6    2    1    2    0  503  0.78446488761E+02  0.70575436018E+02 -0.27448646692E+03  0.34121096344E+03  0.17305304760E+03 0.  0.
        -24    2    3    3    0    0 -0.27151560022E+01  0.86629900462E+02 -0.19860310347E+03  0.22884845520E+03  0.73595591008E+02 0.  0.
          6    2    1    2  501    0 -0.78446488761E+02 -0.70575436018E+02 -0.33918032203E+01  0.20355657799E+03  0.17403744524E+03 0.  0.
         24    2    5    5    0    0 -0.71355795319E+02 -0.85414062828E+02 -0.59903440932E+02  0.14451322124E+03  0.70060239960E+02 0.  0.
          5    1    5    5  501    0 -0.70906934412E+01  0.14838626810E+02  0.56511637711E+02  0.59043356747E+02  0.47000000000E+01 0. -1.
        -13    1    6    6    0    0 -0.60559408223E+02 -0.65496117906E+02 -0.10067696089E+02  0.89769381694E+02  0.00000000000E+00 0.  1.
         14    1    6    6    0    0 -0.10796387096E+02 -0.19917944922E+02 -0.49835744843E+02  0.54743839546E+02  0.00000000000E+00 0. -1.
         -5    1    3    3    0  503  0.81161644763E+02 -0.16054464444E+02 -0.75883363457E+02  0.11236250824E+03  0.47000000000E+01 0.  1.
         13    1    4    4    0    0 -0.20368695128E+02  0.15174467854E+02 -0.11360994681E+03  0.11641463924E+03  0.00000000000E+00 0. -1.
        -14    1    4    4    0    0  0.17653539126E+02  0.71455432608E+02 -0.84993156658E+02  0.11243381596E+03  0.00000000000E+00 0.  1.
</event>
<event>
12    1  0.8461994E-002  0.1925723E+03  0.7818608E-02  0.1156239E+00
         21   -1    0    0  501  502  0.00000000000E+00  0.00000000000E+00  0.24040684552E+03  0.24040684552E+03  0.00000000000E+00 0. -1.
         21   -1    0    0  502  503 -0.00000000000E+00 -0.00000000000E+00 -0.25568423229E+03  0.25568423229E+03  0.00000000000E+00 0.  1.
         -6    2    1    2    0  503 -0.78746507563E+02  0.31962354472E+02 -0.16408590585E+03  0.25299859114E+03  0.17280479757E+03 0.  0.
        -24    2    3    3    0    0 -0.62244047356E+02  0.85988379114E+02 -0.13629176665E+03  0.18986582068E+03  0.78773481787E+02 0.  0.
          6    2    1    2  501    0  0.78746507563E+02 -0.31962354472E+02  0.14880851907E+03  0.24309248667E+03  0.17241629033E+03 0.  0.
         24    2    5    5    0    0  0.46703809043E+02 -0.79231673908E+02  0.13890608150E+03  0.18494378627E+03  0.80314386463E+02 0.  0.
          5    1    5    5  501    0  0.32042698521E+02  0.47269319436E+02  0.99024375689E+01  0.58148700400E+02  0.47000000000E+01 0. -1.
        -11    1    6    6    0    0  0.38419784076E+02  0.33001370855E+01  0.35829378666E+02  0.52637582475E+02  0.00000000000E+00 0.  1.
         12    1    6    6    0    0  0.82840249667E+01 -0.82531810993E+02  0.10307670284E+03  0.13230620380E+03  0.00000000000E+00 0. -1.
         -5    1    3    3    0  503 -0.16502460207E+02 -0.54026024642E+02 -0.27794139192E+02  0.63132770452E+02  0.47000000000E+01 0.  1.
         13    1    4    4    0    0 -0.68235644384E+02  0.41764007047E+02 -0.54854477438E+02  0.97001799695E+02  0.00000000000E+00 0. -1.
        -14    1    4    4    0    0  0.59915970274E+01  0.44224372067E+02 -0.81437289214E+02  0.92864020989E+02  0.00000000000E+00 0.  1.
</event>
<event>
12    1  0.8461994E-002  0.1783784E+03  0.7818608E-02  0.1169524E+00
         21   -1    0    0  501  502  0.00000000000E+00  0.00000000000E+00  0.50115815560E+02  0.50115815560E+02  0.00000000000E+00 0. -1.
         21   -1    0    0  502  503 -0.00000000000E+00 -0.00000000000E+00 -0.85944935509E+03  0.85944935509E+03  0.00000000000E+00 0. -1.
         -6    2    1    2    0  503 -0.22205809778E+02 -0.43344377900E+02 -0.63867030982E+03  0.66311281213E+03  0.17160129337E+03 0.  0.
        -24    2    3    3    0    0 -0.44406212162E+02 -0.59382668034E+02 -0.26502094795E+03  0.28843158730E+03  0.86362403624E+02 0.  0.
          6    2    1    2  501    0  0.22205809778E+02  0.43344377900E+02 -0.17066322972E+03  0.24645235852E+03  0.17099998234E+03 0.  0.
         24    2    5    5    0    0 -0.30991051449E+01 -0.30989981265E+02 -0.13276268188E+03  0.15913410615E+03  0.82022866614E+02 0.  0.
          5    1    5    5  501    0  0.25304914923E+02  0.74334359166E+02 -0.37900547839E+02  0.87318252378E+02  0.47000000000E+01 0. -1.
        -11    1    6    6    0    0  0.16269581062E+01 -0.25315252750E+02  0.78768835361E+00  0.25379705819E+02  0.00000000000E+00 0.  1.
         12    1    6    6    0    0 -0.47260632511E+01 -0.56747285148E+01 -0.13355037023E+03  0.13375440033E+03  0.00000000000E+00 0. -1.
         -5    1    3    3    0  503  0.22200402384E+02  0.16038290133E+02 -0.37364936186E+03  0.37468122483E+03  0.47000000000E+01 0.  1.
         11    1    4    4    0    0  0.10082237294E+02 -0.39968028818E+02 -0.18593592826E+03  0.19045016212E+03  0.00000000000E+00 0. -1.
        -12    1    4    4    0    0 -0.54488449456E+02 -0.19414639216E+02 -0.79085019695E+02  0.97981425180E+02  0.00000000000E+00 0.  1.
</event>
<event>
12    1  0.8461994E-002  0.2121181E+03  0.7818608E-02  0.1140154E+00
         21   -1    0    0  503  502  0.00000000000E+00  0.00000000000E+00  0.47241748710E+03  0.47241748710E+03  0.00000000000E+00 0. -1.
         21   -1    0    0  501  503 -0.00000000000E+00 -0.00000000000E+00 -0.11941207337E+03  0.11941207337E+03  0.00000000000E+00 0. -1.
          6    2    1    2  501    0  0.11210096000E+03 -0.53300972362E+02  0.41350917851E+02  0.21483803350E+03  0.17040499800E+03 0.  0.
         24    2    3    3    0    0  0.15851610618E+02 -0.76160670087E+02  0.21618393143E+02  0.11385305656E+03  0.80271055423E+02 0.  0.
         -6    2    1    2    0  502 -0.11210096000E+03  0.53300972362E+02  0.31165449588E+03  0.37699152698E+03  0.17200717347E+03 0.  0.
        -24    2    5    5    0    0 -0.10787068080E+03  0.65364940545E+02  0.13554386723E+03  0.20035495626E+03  0.76559188399E+02 0.  0.
          5    1    3    3  501    0  0.96249349380E+02  0.22859697725E+02  0.19732524708E+02  0.10098497694E+03  0.47000000000E+01 0. -1.
        -13    1    4    4    0    0 -0.17984875645E+01  0.16662296263E+02 -0.67457923707E+00  0.16772648313E+02  0.00000000000E+00 0.  1.
         14    1    4    4    0    0  0.17650098182E+02 -0.92822966350E+02  0.22292972380E+02  0.97080408247E+02  0.00000000000E+00 0. -1.
         -5    1    5    5    0  502 -0.42302792012E+01 -0.12063968183E+02  0.17611062865E+03  0.17663657071E+03  0.47000000000E+01 0.  1.
         11    1    6    6    0    0 -0.45528294392E+02  0.36897425973E+02  0.13119875269E+02  0.60053116162E+02  0.00000000000E+00 0. -1.
        -12    1    6    6    0    0 -0.62342386404E+02  0.28467514572E+02  0.12242399196E+03  0.14030184010E+03  0.00000000000E+00 0.  1.
</event>
<event>
12    1  0.8461994E-002  0.1784575E+03  0.7818608E-02  0.1171259E+00
         21   -1    0    0  503  502  0.00000000000E+00  0.00000000000E+00  0.27097770287E+03  0.27097770287E+03  0.00000000000E+00 0. -1.
         21   -1    0    0  501  503 -0.00000000000E+00 -0.00000000000E+00 -0.12760353591E+03  0.12760353591E+03  0.00000000000E+00 0. -1.
          6    2    1    2  501    0  0.19143562052E+02  0.32010328739E+02  0.13894782797E+03  0.22006885234E+03  0.16653126962E+03 0.  0.
         24    2    3    3    0    0  0.23651819555E+00 -0.37059746132E+02  0.36388307234E+02  0.94894187003E+02  0.79418619349E+02 0.  0.
         -6    2    1    2    0  502 -0.19143562052E+02 -0.32010328739E+02  0.44263389932E+01  0.17851238644E+03  0.17451631019E+03 0.  0.
        -24    2    5    5    0    0 -0.22915923237E+01  0.33362816750E+02 -0.42368805311E+02  0.96235338822E+02  0.79673055909E+02 0.  0.
          5    1    3    3  501    0  0.18907043857E+02  0.69070074871E+02  0.10255952073E+03  0.12517466534E+03  0.47000000000E+01 0. -1.
        -11    1    4    4    0    0  0.39165482499E+02 -0.10614593726E+02  0.16874118569E+02  0.43947019203E+02  0.00000000000E+00 0.  1.
         12    1    4    4    0    0 -0.38928964304E+02 -0.26445152407E+02  0.19514188665E+02  0.50947167800E+02  0.00000000000E+00 0. -1.
         -5    1    5    5    0  502 -0.16851969729E+02 -0.65373145488E+02  0.46795144304E+02  0.82277047621E+02  0.47000000000E+01 0.  1.
         13    1    6    6    0    0  0.77761677355E+01 -0.20120746844E+02  0.70794863360E+01  0.22703135577E+02  0.00000000000E+00 0. -1.
        -14    1    6    6    0    0 -0.10067760059E+02  0.53483563594E+02 -0.49448291647E+02  0.73532203245E+02  0.00000000000E+00 0.  1.
</event>
<event>
12    1  0.8461994E-002  0.2561571E+03  0.7818608E-02  0.1109770E+00
         21   -1    0    0  501  502  0.00000000000E+00  0.00000000000E+00  0.29963450166E+03  0.29963450166E+03  0.00000000000E+00 0.  1.
         21   -1    0    0  502  503 -0.00000000000E+00 -0.00000000000E+00 -0.23265442593E+03  0.23265442593E+03  0.00000000000E+00 0.  1.
         -6    2    1    2    0  503  0.10435483306E+03 -0.15560352187E+03  0.10164222899E+03  0.27379732636E+03  0.17184715885E+03 0.  0.
        -24    2    3    3    0    0 -0.12992750114E+02 -0.60410809140E+02  0.57794882621E+02  0.11639088552E+03  0.79926918857E+02 0.  0.
          6    2    1    2  501    0 -0.10435483306E+03  0.15560352187E+03 -0.34662153259E+02  0.25849160123E+03  0.17468272907E+03 0.  0.
         24    2    5    5    0    0  0.16293011081E+02  0.53211695624E+02 -0.18263562087E+02  0.99334470787E+02  0.80229873645E+02 0.  0.
          5    1    5    5  501    0 -0.12064784414E+03  0.10239182624E+03 -0.16398591172E+02  0.15915713044E+03  0.47000000000E+01 0. -1.
        -11    1    6    6    0    0  0.11562845671E+02  0.58677006276E+02  0.17922793113E+02  0.62433300237E+02  0.00000000000E+00 0.  1.
         12    1    6    6    0    0  0.47301654100E+01 -0.54653106516E+01 -0.36186355200E+02  0.36901170550E+02  0.00000000000E+00 0. -1.
         -5    1    3    3    0  503  0.11734758318E+03 -0.95192712729E+02  0.43847346367E+02  0.15740644084E+03  0.47000000000E+01 0.  1.
         11    1    4    4    0    0 -0.22699055534E+02 -0.88000124007E+01  0.59038016936E+02  0.63860588661E+02  0.00000000000E+00 0. -1.
        -12    1    4    4    0    0  0.97063054195E+01 -0.51610796739E+02 -0.12431343154E+01  0.52530296857E+02  0.00000000000E+00 0.  1.
</event>
<event>
12    1  0.8461994E-002  0.1766215E+03  0.7818608E-02  0.1172237E+00
         21   -1    0    0  503  502  0.00000000000E+00  0.00000000000E+00  0.77108525411E+02  0.77108525411E+02  0.00000000000E+00 0. -1.
         21   -1    0    0  501  503 -0.00000000000E+00 -0.00000000000E+00 -0.79096617476E+03  0.79096617476E+03  0.00000000000E+00 0. -1.
          6    2    1    2  501    0 -0.52347675223E+01  0.98050451507E+01 -0.66653011855E+03  0.68953430587E+03  0.17627143370E+03 0.  0.
         24    2    3    3    0    0 -0.57531915761E+02 -0.92086096741E+01 -0.23467375176E+03  0.25408221629E+03  0.78046672230E+02 0.  0.
         -6    2    1    2    0  502  0.52347675223E+01 -0.98050451507E+01 -0.47327530803E+02  0.17854039430E+03  0.17179416615E+03 0.  0.
        -24    2    5    5    0    0  0.60944923859E+02 -0.25008458277E+02 -0.60384582415E+02  0.11914896490E+03  0.78806543598E+02 0.  0.
          5    1    3    3  501    0  0.52297148239E+02  0.19013654825E+02 -0.43185636678E+03  0.43545208957E+03  0.47000000000E+01 0. -1.
        -13    1    4    4    0    0 -0.36181321676E+02  0.28617352055E+02 -0.70435511208E+02  0.84197399698E+02  0.00000000000E+00 0.  1.
         14    1    4    4    0    0 -0.21350594086E+02 -0.37825961729E+02 -0.16423824056E+03  0.16988481659E+03  0.00000000000E+00 0. -1.
         -5    1    5    5    0  502 -0.55710156337E+02  0.15203413126E+02  0.13057051612E+02  0.59391429403E+02  0.47000000000E+01 0.  1.
         11    1    6    6    0    0  0.37502536017E+02 -0.53789762945E+02 -0.37392063299E+02  0.75484734901E+02  0.00000000000E+00 0. -1.
        -12    1    6    6    0    0  0.23442387842E+02  0.28781304668E+02 -0.22992519116E+02  0.43664229999E+02  0.00000000000E+00 0.  1.
</event>
<event>
12    1  0.8461994E-002  0.1905722E+03  0.7818608E-02  0.1158209E+00
         21   -1    0    0  501  502  0.00000000000E+00  0.00000000000E+00  0.27591460126E+03  0.27591460126E+03  0.00000000000E+00 0. -1.
         21   -1    0    0  502  503 -0.00000000000E+00 -0.00000000000E+00 -0.36341182244E+03  0.36341182244E+03  0.00000000000E+00 0. -1.
         -6    2    1    2    0  503 -0.78181074970E+02 -0.15270090788E+02 -0.29953002477E+03  0.35501550483E+03  0.17312514773E+03 0.  0.
        -24    2    3    3    0    0 -0.11176924191E+03 -0.52641141878E+01 -0.28614821268E+03  0.31720747102E+03  0.78865110902E+02 0.  0.
          6    2    1    2  501    0  0.78181074970E+02  0.15270090788E+02  0.21203280358E+03  0.28431091887E+03  0.17184100976E+03 0.  0.
         24    2    5    5    0    0  0.48581597837E+02  0.48589310501E+01  0.28940973621E+02  0.98490496165E+02  0.80492341384E+02 0.  0.
          5    1    5    5  501    0  0.29599477133E+02  0.10411159738E+02  0.18309182996E+03  0.18582042270E+03  0.47000000000E+01 0. -1.
        -11    1    6    6    0    0  0.63464718976E+02  0.25420854213E+02  0.25047857758E+02  0.72810614349E+02  0.00000000000E+00 0.  1.
         12    1    6    6    0    0 -0.14883121139E+02 -0.20561923163E+02  0.38931158626E+01  0.25679881816E+02  0.00000000000E+00 0. -1.
         -5    1    3    3    0  503  0.33588166937E+02 -0.10005976600E+02 -0.13381812095E+02  0.37808033814E+02  0.47000000000E+01 0.  1.
         13    1    4    4    0    0 -0.10183560627E+03 -0.32133985700E+02 -0.20489430236E+03  0.23105142043E+03  0.00000000000E+00 0. -1.
        -14    1    4    4    0    0 -0.99336356375E+01  0.26869871512E+02 -0.81253910315E+02  0.86156050592E+02  0.00000000000E+00 0.  1.
</event>
<event>
12    1  0.8461994E-002  0.2699973E+03  0.7818608E-02  0.1101542E+00
         21   -1    0    0  503  502  0.00000000000E+00  0.00000000000E+00  0.17596497964E+03  0.17596497964E+03  0.00000000000E+00 0. -1.
         21   -1    0    0  501  503 -0.00000000000E+00 -0.00000000000E+00 -0.42380054223E+03  0.42380054223E+03  0.00000000000E+00 0. -1.
          6    2    1    2  501    0  0.18020037612E+03 -0.10505292925E+03 -0.72411500209E+02  0.27778394078E+03  0.16855918513E+03 0.  0.
         24    2    3    3    0    0  0.98846462047E+02 -0.12252330847E+03 -0.77264263235E+02  0.19430153069E+03  0.83670390686E+02 0.  0.
         -6    2    1    2    0  502 -0.18020037612E+03  0.10505292925E+03 -0.17542406238E+03  0.32198158109E+03  0.17143582881E+03 0.  0.
        -24    2    5    5    0    0 -0.19660657065E+03  0.57942988572E+02 -0.14008436158E+03  0.26066686685E+03  0.79448433373E+02 0.  0.
          5    1    3    3  501    0  0.81353914073E+02  0.17470379218E+02  0.48527630262E+01  0.83482410087E+02  0.47000000000E+01 0. -1.
        -13    1    4    4    0    0  0.90984211441E+02 -0.58240540856E+02 -0.70925058668E+02  0.12923022587E+03  0.00000000000E+00 0.  1.
         14    1    4    4    0    0  0.78622506060E+01 -0.64282767614E+02 -0.63392045671E+01  0.65071304822E+02  0.00000000000E+00 0. -1.
         -5    1    5    5    0  502  0.16406194530E+02  0.47109940681E+02 -0.35339700804E+02  0.61314714244E+02  0.47000000000E+01 0.  1.
         11    1    6    6    0    0 -0.13734420585E+03  0.72292050768E+02 -0.12091892472E+03  0.19675100467E+03  0.00000000000E+00 0. -1.
        -12    1    6    6    0    0 -0.59262364797E+02 -0.14349062196E+02 -0.19165436863E+02  0.63915862173E+02  0.00000000000E+00 0.  1.
</event>
<event>
12    1  0.8461994E-002  0.1838659E+03  0.7818608E-02  0.1164285E+00
         21   -1    0    0  503  502  0.00000000000E+00  0.00000000000E+00  0.26703875991E+03  0.26703875991E+03  0.00000000000E+00 0. -1.
         21   -1    0    0  501  503 -0.00000000000E+00 -0.00000000000E+00 -0.25681814527E+03  0.25681814527E+03  0.00000000000E+00 0. -1.
          6    2    1    2  501    0 -0.22028375677E+02  0.59747710699E+02 -0.18175522910E+03  0.25853747681E+03  0.17248659466E+03 0.  0.
         24    2    3    3    0    0 -0.10807515819E+02  0.72976677180E+02 -0.39465391578E+02  0.11511711175E+03  0.79069807606E+02 0.  0.
         -6    2    1    2    0  502  0.22028375677E+02 -0.59747710699E+02  0.19197584374E+03  0.26531942838E+03  0.17171090888E+03 0.  0.
        -24    2    5    5    0    0 -0.27367554135E+02 -0.40917155458E+00  0.16128269671E+03  0.18210176568E+03  0.79998714779E+02 0.  0.
          5    1    3    3  501    0 -0.11220859859E+02 -0.13228966481E+02 -0.14228983752E+03  0.14342036506E+03  0.47000000000E+01 0. -1.
        -13    1    4    4    0    0 -0.18914836158E+02 -0.11803970714E+02 -0.30981313014E+01  0.22510068171E+02  0.00000000000E+00 0.  1.
         14    1    4    4    0    0  0.81073203395E+01  0.84780647894E+02 -0.36367260277E+02  0.92607043579E+02  0.00000000000E+00 0. -1.
         -5    1    5    5    0  502  0.49395929812E+02 -0.59338539144E+02  0.30693147029E+02  0.83217662694E+02  0.47000000000E+01 0.  1.
         11    1    6    6    0    0 -0.18943274158E+02 -0.19958322381E+02  0.99213977939E+01  0.29250921392E+02  0.00000000000E+00 0. -1.
        -12    1    6    6    0    0 -0.84242799774E+01  0.19549150826E+02  0.15136129892E+03  0.15285084429E+03  0.00000000000E+00 0.  1.
</event>
<event>
12    1  0.8461994E-002  0.3122352E+03  0.7818608E-02  0.1079499E+00
         21   -1    0    0  501  502  0.00000000000E+00  0.00000000000E+00  0.73904714917E+03  0.73904714917E+03  0.00000000000E+00 0. -1.
         21   -1    0    0  502  503 -0.00000000000E+00 -0.00000000000E+00 -0.16129021850E+03  0.16129021850E+03  0.00000000000E+00 0. -1.
         -6    2    1    2    0  503  0.25996812822E+03  0.21723985838E+02  0.94926820908E+02  0.32634631595E+03  0.17156764660E+03 0.  0.
        -24    2    3    3    0    0  0.21862072770E+03 -0.34645143731E+02  0.10057602952E+03  0.25605342972E+03  0.80327533205E+02 0.  0.
          6    2    1    2  501    0 -0.25996812822E+03 -0.21723985838E+02  0.48283010976E+03  0.57399105172E+03  0.16818279731E+03 0.  0.
         24    2    5    5    0    0 -0.63180730964E+02  0.16958472495E+01  0.97031760930E+02  0.14024432348E+03  0.79111484473E+02 0.  0.
          5    1    5    5  501    0 -0.19678739725E+03 -0.23419833087E+02  0.38579834883E+03  0.43374672824E+03  0.47000000000E+01 0. -1.
        -13    1    6    6    0    0 -0.80216706563E+02 -0.94148660030E+01  0.74339779552E+02  0.10977141038E+03  0.00000000000E+00 0.  1.
         14    1    6    6    0    0  0.17035975599E+02  0.11110713253E+02  0.22691981378E+02  0.30472913094E+02  0.00000000000E+00 0. -1.
         -5    1    3    3    0  503  0.41347400512E+02  0.56369129569E+02 -0.56492086099E+01  0.70292886236E+02  0.47000000000E+01 0.  1.
         13    1    4    4    0    0  0.16829452599E+03  0.73272872891E+01  0.59205064108E+02  0.17855524701E+03  0.00000000000E+00 0. -1.
        -14    1    4    4    0    0  0.50326201713E+02 -0.41972431020E+02  0.41370965410E+02  0.77498182711E+02  0.00000000000E+00 0.  1.
</event>
<event>
12    1  0.8461994E-002  0.2013450E+03  0.7818608E-02  0.1148617E+00
         21   -1    0    0  501  502  0.00000000000E+00  0.00000000000E+00  0.62557326298E+03  0.62557326298E+03  0.00000000000E+00 0. -1.
         21   -1    0    0  502  503 -0.00000000000E+00 -0.00000000000E+00 -0.68824322586E+02  0.68824322586E+02  0.00000000000E+00 0. -1.
         -6    2    1    2    0  503 -0.10456193394E+03 -0.55186377835E+01  0.19430420159E+03  0.27978208799E+03  0.17193091814E+03 0.  0.
        -24    2    3    3    0    0 -0.13382684263E+03 -0.33932327503E+02  0.14111350468E+03  0.21258749832E+03  0.78863150958E+02 0.  0.
          6    2    1    2  501    0  0.10456193394E+03  0.55186377835E+01  0.36244473880E+03  0.41461549757E+03  0.17197723324E+03 0.  0.
         24    2    5    5    0    0  0.10820534397E+03  0.39593897634E+02  0.35145628949E+03  0.37832178202E+03  0.79559877675E+02 0.  0.
          5    1    5    5  501    0 -0.36434100287E+01 -0.34075259850E+02  0.10988449313E+02  0.36293715555E+02  0.47000000000E+01 0. -1.
        -11    1    6    6    0    0 -0.78904381939E+00 -0.10306191308E+02  0.45600404146E+01  0.11297527960E+02  0.00000000000E+00 0.  1.
         12    1    6    6    0    0  0.10899438779E+03  0.49900088942E+02  0.34689624907E+03  0.36702425406E+03  0.00000000000E+00 0. -1.
         -5    1    3    3    0  503  0.29264908688E+02  0.28413689720E+02  0.53190696909E+02  0.67194589676E+02  0.47000000000E+01 0.  1.
         13    1    4    4    0    0 -0.53535162975E+02 -0.13567289567E+02  0.79983028656E+01  0.55803744227E+02  0.00000000000E+00 0. -1.
        -14    1    4    4    0    0 -0.80291679651E+02 -0.20365037936E+02  0.13311520182E+03  0.15678375409E+03  0.00000000000E+00 0.  1.
</event>
<event>
12    1  0.8461994E-002  0.1747045E+03  0.7818608E-02  0.1173063E+00
         21   -1    0    0  501  502  0.00000000000E+00  0.00000000000E+00  0.32915882688E+02  0.32915882688E+02  0.00000000000E+00 0. -1.
         21   -1    0    0  502  503 -0.00000000000E+00 -0.00000000000E+00 -0.98461342637E+03  0.98461342637E+03  0.00000000000E+00 0. -1.
         -6    2    1    2    0  503  0.26622803583E+02  0.13846046519E+02 -0.59956955197E+03  0.62450404410E+03  0.17210800901E+03 0.  0.
        -24    2    3    3    0    0  0.57181271152E+02  0.43016014171E+02 -0.26334498610E+03  0.28560323906E+03  0.84252912215E+02 0.  0.
          6    2    1    2  501    0 -0.26622803583E+02 -0.13846046519E+02 -0.35212799171E+03  0.39302526496E+03  0.17197165370E+03 0.  0.
         24    2    5    5    0    0  0.40470352669E+02 -0.19124540042E+02 -0.27640790812E+03  0.29161039835E+03  0.81435221374E+02 0.  0.
          5    1    5    5  501    0 -0.67093156252E+02  0.52784935236E+01 -0.75720083588E+02  0.10141486660E+03  0.47000000000E+01 0. -1.
        -11    1    6    6    0    0  0.29546137555E+02 -0.43898115130E+02 -0.10000333780E+03  0.11314011812E+03  0.00000000000E+00 0.  1.
         12    1    6    6    0    0  0.10924215114E+02  0.24773575087E+02 -0.17640457032E+03  0.17847028023E+03  0.00000000000E+00 0. -1.
         -5    1    3    3    0  503 -0.30558467569E+02 -0.29169967653E+02 -0.33622456588E+03  0.33890080503E+03  0.47000000000E+01 0.  1.
         13    1    4    4    0    0  0.35069611341E+02 -0.47408828013E+01 -0.20065450838E+03  0.20375128304E+03  0.00000000000E+00 0. -1.
        -14    1    4    4    0    0  0.22111659811E+02  0.47756896973E+02 -0.62690477718E+02  0.81851956021E+02  0.00000000000E+00 0.  1.
</event>
<event>
12    1  0.8461994E-002  0.1889251E+03  0.7818608E-02  0.1159515E+00
         21   -1    0    0  503  502  0.00000000000E+00  0.00000000000E+00  0.23061793544E+03  0.23061793544E+03  0.00000000000E+00 0.  1.
         21   -1    0    0  501  503 -0.00000000000E+00 -0.00000000000E+00 -0.15450439884E+03  0.15450439884E+03  0.00000000000E+00 0.  1.
          6    2    1    2  501    0  0.15390595431E+02  0.76454039211E+02  0.35660702099E+02  0.19191491020E+03  0.17169029251E+03 0.  0.
         24    2    3    3    0    0  0.13058142800E+02  0.50484250248E+02 -0.46004125574E+02  0.10605977434E+03  0.80081967679E+02 0.  0.
         -6    2    1    2    0  502 -0.15390595431E+02 -0.76454039211E+02  0.40452834506E+02  0.19320742408E+03  0.17207726858E+03 0.  0.
        -24    2    5    5    0    0 -0.26632841423E+02 -0.24347653175E+02  0.86561005776E+02  0.12257091073E+03  0.78922138711E+02 0.  0.
          5    1    3    3  501    0  0.23324526313E+01  0.25969788963E+02  0.81664827673E+02  0.85855135857E+02  0.47000000000E+01 0. -1.
        -13    1    4    4    0    0 -0.28522883839E+02  0.13632195172E+02  0.32894756417E+01  0.31783837051E+02  0.00000000000E+00 0.  1.
         14    1    4    4    0    0  0.41581026639E+02  0.36852055076E+02 -0.49293601216E+02  0.74275937291E+02  0.00000000000E+00 0. -1.
         -5    1    5    5    0  502  0.11242245992E+02 -0.52106386035E+02 -0.46108171269E+02  0.70636513351E+02  0.47000000000E+01 0.  1.
         11    1    6    6    0    0 -0.37114951740E+02 -0.45018673399E+02  0.40551944731E+02  0.71053928947E+02  0.00000000000E+00 0. -1.
        -12    1    6    6    0    0  0.10482110317E+02  0.20671020224E+02  0.46009061045E+02  0.51516981783E+02  0.00000000000E+00 0.  1.
</event>
<event>
12    1  0.8461994E-002  0.2158845E+03  0.7818608E-02  0.1137273E+00
         21   -1    0    0  503  502  0.00000000000E+00  0.00000000000E+00  0.33666944868E+03  0.33666944868E+03  0.00000000000E+00 0. -1.
         21   -1    0    0  501  503 -0.00000000000E+00 -0.00000000000E+00 -0.28752401965E+03  0.28752401965E+03  0.00000000000E+00 0. -1.
          6    2    1    2  501    0  0.12096011337E+03  0.52746751989E+02 -0.20083864143E+03  0.29485978153E+03  0.17085830972E+03 0.  0.
         24    2    3    3    0    0  0.13904557725E+03  0.56247035585E+01 -0.18725654785E+03  0.24237993094E+03  0.65709256319E+02 0.  0.
         -6    2    1    2    0  502 -0.12096011337E+03 -0.52746751989E+02  0.24998407047E+03  0.32933368680E+03  0.16898246330E+03 0.  0.
        -24    2    5    5    0    0 -0.11846623657E+03 -0.88820225068E+02  0.16095375873E+03  0.23312557233E+03  0.80734988937E+02 0.  0.
          5    1    3    3  501    0 -0.18085463881E+02  0.47122048431E+02 -0.13582093578E+02  0.52479850591E+02  0.47000000000E+01 0. -1.
        -11    1    4    4    0    0  0.39291181124E+02  0.20460717106E+02 -0.23729554080E+02  0.50254647501E+02  0.00000000000E+00 0.  1.
         12    1    4    4    0    0  0.99754396128E+02 -0.14836013548E+02 -0.16352699377E+03  0.19212528344E+03  0.00000000000E+00 0. -1.
         -5    1    5    5    0  502 -0.24938768011E+01  0.36073473079E+02  0.89030311735E+02  0.96208114466E+02  0.47000000000E+01 0.  1.
         11    1    6    6    0    0 -0.64035473752E+02 -0.73235663599E+01  0.95722040034E+02  0.11539881053E+03  0.00000000000E+00 0. -1.
        -12    1    6    6    0    0 -0.54430762816E+02 -0.81496658708E+02  0.65231718698E+02  0.11772676181E+03  0.00000000000E+00 0.  1.
</event>
<event>
12    1  0.8461994E-002  0.1884827E+03  0.7818608E-02  0.1159926E+00
         21   -1    0    0  501  502  0.00000000000E+00  0.00000000000E+00  0.12631534658E+03  0.12631534658E+03  0.00000000000E+00 0. -1.
         21   -1    0    0  502  503 -0.00000000000E+00 -0.00000000000E+00 -0.63959792244E+03  0.63959792244E+03  0.00000000000E+00 0. -1.
         -6    2    1    2    0  503  0.75294682719E+02  0.94940170288E+01 -0.54363856704E+03  0.57538564188E+03  0.17252918507E+03 0.  0.
        -24    2    3    3    0    0 -0.40424647649E+00 -0.22060695623E+02 -0.40089468085E+03  0.41069218476E+03  0.86398424663E+02 0.  0.
          6    2    1    2  501    0 -0.75294682719E+02 -0.94940170288E+01  0.30355991174E+02  0.19052762714E+03  0.17210422685E+03 0.  0.
         24    2    5    5    0    0 -0.20309045564E+02  0.28788475658E+01 -0.46291403267E+02  0.95273119916E+02  0.80705193557E+02 0.  0.
          5    1    5    5  501    0 -0.54985637155E+02 -0.12372864595E+02  0.76647394442E+02  0.95254507223E+02  0.47000000000E+01 0. -1.
        -11    1    6    6    0    0 -0.89642738522E+01  0.39360579637E+02 -0.79447174887E+01  0.41142824053E+02  0.00000000000E+00 0.  1.
         12    1    6    6    0    0 -0.11344771711E+02 -0.36481732071E+02 -0.38346685778E+02  0.54130295864E+02  0.00000000000E+00 0. -1.
         -5    1    3    3    0  503  0.75698929196E+02  0.31554712652E+02 -0.14274388619E+03  0.16469345712E+03  0.47000000000E+01 0.  1.
         11    1    4    4    0    0 -0.73935306152E+01 -0.38153771168E+02 -0.76335489906E+02  0.85659100909E+02  0.00000000000E+00 0. -1.
        -12    1    4    4    0    0  0.69892841387E+01  0.16093075544E+02 -0.32455919094E+03  0.32503308385E+03  0.00000000000E+00 0.  1.
</event>
<event>
12    1  0.8461994E-002  0.1753392E+03  0.7818608E-02  0.1172953E+00
         21   -1    0    0  503  502  0.00000000000E+00  0.00000000000E+00  0.68187492868E+03  0.68187492868E+03  0.00000000000E+00 0.  1.
         21   -1    0    0  501  503 -0.00000000000E+00 -0.00000000000E+00 -0.12472862309E+03  0.12472862309E+03  0.00000000000E+00 0.  1.
          6    2    1    2  501    0 -0.18337772625E+02  0.27489912377E+02 -0.44209324044E+02  0.18082668748E+03  0.17219714685E+03 0.  0.
         24    2    3    3    0    0  0.44969263142E+02 -0.79992442374E+00 -0.60289595570E+02  0.10949113690E+03  0.79565062807E+02 0.  0.
         -6    2    1    2    0  502  0.18337772625E+02 -0.27489912377E+02  0.60135562963E+03  0.62577686429E+03  0.16992975433E+03 0.  0.
        -24    2    5    5    0    0 -0.18410048206E+02  0.22614511407E+02  0.17160295922E+03  0.19153004123E+03  0.79911420194E+02 0.  0.
          5    1    3    3  501    0 -0.63307035767E+02  0.28289836801E+02  0.16080271526E+02  0.71335550577E+02  0.47000000000E+01 0. -1.
        -13    1    4    4    0    0  0.22474872894E+02  0.24398092380E+02  0.72688604986E+01  0.33959139511E+02  0.00000000000E+00 0.  1.
         14    1    4    4    0    0  0.22494390248E+02 -0.25198016804E+02 -0.67558456069E+02  0.75531997391E+02  0.00000000000E+00 0. -1.
         -5    1    5    5    0  502  0.36747820831E+02 -0.50104423784E+02  0.42975267041E+03  0.43424682306E+03  0.47000000000E+01 0.  1.
         11    1    6    6    0    0  0.28122530120E+02  0.23750907619E+02  0.95153408796E+02  0.10202525922E+03  0.00000000000E+00 0. -1.
        -12    1    6    6    0    0 -0.46532578326E+02 -0.11363962118E+01  0.76449550427E+02  0.89504782009E+02  0.00000000000E+00 0.  1.
</event>
<event>
12    1  0.8461994E-002  0.1902603E+03  0.7818608E-02  0.1161589E+00
         21   -1    0    0  503  502  0.00000000000E+00  0.00000000000E+00  0.38285801328E+02  0.38285801328E+02  0.00000000000E+00 0.  1.
         21   -1    0    0  501  503 -0.00000000000E+00 -0.00000000000E+00 -0.17011903786E+04  0.17011903786E+04  0.00000000000E+00 0. -1.
          6    2    1    2  501    0  0.57374749966E+02  0.47248567623E+02 -0.14538317823E+04  0.14662284436E+04  0.17514196700E+03 0.  0.
         24    2    3    3    0    0  0.10957421182E+02 -0.29196925188E+02 -0.98960653063E+03  0.99344344379E+03  0.81463274105E+02 0.  0.
         -6    2    1    2    0  502 -0.57374749966E+02 -0.47248567623E+02 -0.20907279503E+03  0.27324773636E+03  0.15946348399E+03 0.  0.
        -24    2    5    5    0    0 -0.94527705471E+02 -0.53659129612E+02 -0.14222677522E+03  0.19635873992E+03  0.80706318609E+02 0.  0.
          5    1    3    3  501    0  0.46417328784E+02  0.76445492811E+02 -0.46422525165E+03  0.47278499981E+03  0.47000000000E+01 0. -1.
        -13    1    4    4    0    0 -0.77534788023E+01 -0.79583009008E+01 -0.16307108822E+02  0.19732531133E+02  0.00000000000E+00 0.  1.
         14    1    4    4    0    0  0.18710899984E+02 -0.21238624287E+02 -0.97329942180E+03  0.97371091266E+03  0.00000000000E+00 0. -1.
         -5    1    5    5    0  502  0.37152955505E+02  0.64105619890E+01 -0.66846019812E+02  0.76888996433E+02  0.47000000000E+01 0.  1.
         13    1    6    6    0    0 -0.26753770753E+02  0.13355915014E+02 -0.72019906203E+02  0.77980841268E+02  0.00000000000E+00 0. -1.
        -14    1    6    6    0    0 -0.67773934718E+02 -0.67015044627E+02 -0.70206869015E+02  0.11837789866E+03  0.00000000000E+00 0.  1.
</event>
<event>
12    1  0.8461994E-002  0.1842920E+03  0.7818608E-02  0.1163714E+00
         21   -1    0    0  501  502  0.00000000000E+00  0.00000000000E+00  0.16125394413E+04  0.16125394413E+04  0.00000000000E+00 0.  1.
         21   -1    0    0  502  503 -0.00000000000E+00 -0.00000000000E+00 -0.68574949043E+02  0.68574949043E+02  0.00000000000E+00 0.  1.
         -6    2    1    2    0  503 -0.51135897882E+02  0.39338658083E+02  0.72311516611E+02  0.19796705393E+03  0.17262557440E+03 0.  0.
        -24    2    3    3    0    0 -0.52938276393E+02  0.45774307274E+02 -0.22454561577E+01  0.12296373176E+03  0.10108060615E+03 0.  0.
          6    2    1    2  501    0  0.51135897882E+02 -0.39338658083E+02  0.14716529756E+04  0.14831473364E+04  0.17263003997E+03 0.  0.
         24    2    5    5    0    0 -0.14840171951E+02  0.34660845519E+01  0.11118187898E+04  0.11147890610E+04  0.79883569379E+02 0.  0.
          5    1    5    5  501    0  0.65976069833E+02 -0.42804742635E+02  0.35983418580E+03  0.36835827540E+03  0.47000000000E+01 0. -1.
        -13    1    6    6    0    0 -0.33183814411E+02 -0.28443725169E+02  0.52432954480E+03  0.52614796644E+03  0.00000000000E+00 0.  1.
         14    1    6    6    0    0  0.18343642460E+02  0.31909809721E+02  0.58748924503E+03  0.58864109456E+03  0.00000000000E+00 0. -1.
         -5    1    3    3    0  503  0.18023785110E+01 -0.64356491911E+01  0.74556972769E+02  0.75003322175E+02  0.47000000000E+01 0.  1.
         13    1    4    4    0    0  0.24443946919E+02  0.20466175497E+01  0.19643509349E+02  0.31425509445E+02  0.00000000000E+00 0. -1.
        -14    1    4    4    0    0 -0.77382223312E+02  0.43727689724E+02 -0.21888965506E+02  0.91538222313E+02  0.00000000000E+00 0.  1.
</event>
<event>
12    1  0.8461994E-002  0.2754873E+03  0.7818608E-02  0.1098376E+00
         21   -1    0    0  503  502  0.00000000000E+00  0.00000000000E+00  0.24697590664E+04  0.24697590664E+04  0.00000000000E+00 0.  1.
         21   -1    0    0  501  503 -0.00000000000E+00 -0.00000000000E+00 -0.35959457608E+02  0.35959457608E+02  0.00000000000E+00 0.  1.
          6    2    1    2  501    0  0.17108180413E+03 -0.13009797654E+03  0.72935449578E+03  0.77915361117E+03  0.17008204515E+03 0.  0.
         24    2    3    3    0    0  0.15537923175E+03 -0.13148448920E+03  0.73057109242E+03  0.76265926960E+03  0.80524306035E+02 0.  0.
         -6    2    1    2    0  502 -0.17108180413E+03  0.13009797654E+03  0.17044451130E+04  0.17265649128E+04  0.17233336232E+03 0.  0.
        -24    2    5    5    0    0 -0.13776966380E+03  0.51448565167E+02  0.14215991561E+04  0.14310664290E+04  0.73345269093E+02 0.  0.
          5    1    3    3  501    0  0.15702572377E+02  0.13865126654E+01 -0.12165966380E+01  0.16494341575E+02  0.47000000000E+01 0. -1.
        -13    1    4    4    0    0  0.10519424508E+02 -0.51436519754E+02  0.14807806795E+03  0.15710979621E+03  0.00000000000E+00 0.  1.
         14    1    4    4    0    0  0.14485980724E+03 -0.80047969451E+02  0.58249302447E+03  0.60554947339E+03  0.00000000000E+00 0. -1.
         -5    1    5    5    0  502 -0.33312140325E+02  0.78649411372E+02  0.28284595693E+03  0.29549848384E+03  0.47000000000E+01 0.  1.
         11    1    6    6    0    0 -0.76887521334E+02  0.17926103154E+01  0.47219814264E+03  0.47842030715E+03  0.00000000000E+00 0. -1.
        -12    1    6    6    0    0 -0.60882142467E+02  0.49655954852E+02  0.94940101345E+03  0.95264612184E+03  0.00000000000E+00 0.  1.
</event>
<event>
12    1  0.8461994E-002  0.2734595E+03  0.7818608E-02  0.1099951E+00
         21   -1    0    0  503  502  0.00000000000E+00  0.00000000000E+00  0.66112227023E+02  0.66112227023E+02  0.00000000000E+00 0. -1.
         21   -1    0    0  501  503 -0.00000000000E+00 -0.00000000000E+00 -0.13901652832E+04  0.13901652832E+04  0.00000000000E+00 0. -1.
          6    2    1    2  501    0 -0.21202771940E+03 -0.36637451185E+02 -0.98296285670E+03  0.10191018023E+04  0.16141390623E+03 0.  0.
         24    2    3    3    0    0 -0.50657485772E+02 -0.48644081918E+02 -0.33989103849E+03  0.35596685006E+03  0.79082569004E+02 0.  0.
         -6    2    1    2    0  502  0.21202771940E+03  0.36637451185E+02 -0.34109019946E+03  0.43717570793E+03  0.16876616609E+03 0.  0.
        -24    2    5    5    0    0  0.22481080061E+03  0.33348688365E+02 -0.34670023472E+03  0.42208313950E+03  0.79379423087E+02 0.  0.
          5    1    3    3  501    0 -0.16137023363E+03  0.12006630733E+02 -0.64307181820E+03  0.66313495222E+03  0.47000000000E+01 0. -1.
        -11    1    4    4    0    0 -0.39800718137E+01  0.75599859677E+01 -0.23997645127E+00  0.85470432414E+01  0.00000000000E+00 0.  1.
         12    1    4    4    0    0 -0.46677413958E+02 -0.56204067885E+02 -0.33965106204E+03  0.34741980681E+03  0.00000000000E+00 0. -1.
         -5    1    5    5    0  502 -0.12783081211E+02  0.32887628193E+01  0.56100352619E+01  0.15092568429E+02  0.47000000000E+01 0.  1.
         13    1    6    6    0    0  0.10894573954E+03  0.36153135833E+02 -0.23291778184E+03  0.25966693377E+03  0.00000000000E+00 0. -1.
        -14    1    6    6    0    0  0.11586506107E+03 -0.28044474675E+01 -0.11378245288E+03  0.16241620574E+03  0.00000000000E+00 0.  1.
</event>
<event>
12    1  0.8461994E-002  0.1795078E+03  0.7818608E-02  0.1168950E+00
         21   -1    0    0  503  502  0.00000000000E+00  0.00000000000E+00  0.23695843899E+03  0.23695843899E+03  0.00000000000E+00 0. -1.
         21   -1    0    0  501  503 -0.00000000000E+00 -0.00000000000E+00 -0.32314284581E+03  0.32314284581E+03  0.00000000000E+00 0. -1.
          6    2    1    2  501    0 -0.11473056889E+02  0.36264814876E+02 -0.25752866184E+03  0.31391730049E+03  0.17543173044E+03 0.  0.
         24    2    3    3    0    0  0.11933167733E+02  0.42871740236E+02 -0.53491122476E+02  0.10838163379E+03  0.83095678328E+02 0.  0.
         -6    2    1    2    0  502  0.11473056889E+02 -0.36264814876E+02  0.17134425503E+03  0.24618398431E+03  0.17262946611E+03 0.  0.
        -24    2    5    5    0    0  0.10316867418E+02  0.42700664516E+02  0.12334476483E+03  0.15364791152E+03  0.80398788543E+02 0.  0.
          5    1    3    3  501    0 -0.23406224622E+02 -0.66069253597E+01 -0.20403753937E+03  0.20553566670E+03  0.47000000000E+01 0. -1.
        -11    1    4    4    0    0  0.40328218324E+02  0.49022670724E+02 -0.45952426934E+02  0.78365891683E+02  0.00000000000E+00 0.  1.
         12    1    4    4    0    0 -0.28395050591E+02 -0.61509304880E+01 -0.75386955421E+01  0.30015742110E+02  0.00000000000E+00 0. -1.
         -5    1    5    5    0  502  0.11561894711E+01 -0.78965479392E+02  0.47999490196E+02  0.92536072798E+02  0.47000000000E+01 0.  1.
         11    1    6    6    0    0 -0.16643903439E+02 -0.18221625007E+02  0.39214597165E+02  0.46333915984E+02  0.00000000000E+00 0. -1.
        -12    1    6    6    0    0  0.26960770857E+02  0.60922289523E+02  0.84130167664E+02  0.10731399553E+03  0.00000000000E+00 0.  1.
</event>
<event>
12    1  0.8461994E-002  0.1846465E+03  0.7818608E-02  0.1164374E+00
         21   -1    0    0  501  502  0.00000000000E+00  0.00000000000E+00  0.52872106928E+02  0.52872106928E+02  0.00000000000E+00 0.  1.
         21   -1    0    0  502  503 -0.00000000000E+00 -0.00000000000E+00 -0.67424411641E+03  0.67424411641E+03  0.00000000000E+00 0.  1.
         -6    2    1    2    0  503  0.20654959898E+02  0.48131429944E+02 -0.40018187014E+03  0.43898533510E+03  0.17268275341E+03 0.  0.
        -24    2    3    3    0    0  0.22933526494E+02  0.19185206279E+02 -0.72091494185E+02  0.10957911093E+03  0.76918003354E+02 0.  0.
          6    2    1    2  501    0 -0.20654959898E+02 -0.48131429944E+02 -0.22119013934E+03  0.28813088823E+03  0.17706233111E+03 0.  0.
         24    2    5    5    0    0 -0.61896888668E+02 -0.68029900275E+02 -0.18467177593E+03  0.22937268305E+03  0.10024405592E+03 0.  0.
          5    1    5    5  501    0  0.41241928771E+02  0.19898470331E+02 -0.36518363403E+02  0.58758205179E+02  0.47000000000E+01 0. -1.
        -11    1    6    6    0    0  0.19078395338E+01 -0.64553034803E+02 -0.13048121621E+03  0.14558874249E+03  0.00000000000E+00 0.  1.
         12    1    6    6    0    0 -0.63804728202E+02 -0.34768654718E+01 -0.54190559719E+02  0.83783940568E+02  0.00000000000E+00 0. -1.
         -5    1    3    3    0  503 -0.22785665958E+01  0.28946223665E+02 -0.32809037596E+03  0.32940622418E+03  0.47000000000E+01 0.  1.
         11    1    4    4    0    0 -0.27886917757E+02  0.65982623711E+01 -0.35885072399E+02  0.45923367356E+02  0.00000000000E+00 0. -1.
        -12    1    4    4    0    0  0.50820444250E+02  0.12586943908E+02 -0.36206421786E+02  0.63655743569E+02  0.00000000000E+00 0.  1.
</event>
<event>
12    1  0.8461994E-002  0.1715831E+03  0.7818608E-02  0.1181130E+00
         21   -1    0    0  503  502  0.00000000000E+00  0.00000000000E+00  0.65007140356E+03  0.65007140356E+03  0.00000000000E+00 0.  1.
         21   -1    0    0  501  503 -0.00000000000E+00 -0.00000000000E+00 -0.92270973716E+02  0.92270973716E+02  0.00000000000E+00 0.  1.
          6    2    1    2  501    0 -0.61996016362E+01 -0.18291822092E+00  0.82973130577E+01  0.17178360146E+03  0.17147096491E+03 0.  0.
         24    2    3    3    0    0 -0.32267533077E+02 -0.30129981461E+02 -0.46818025081E+02  0.10369429140E+03  0.81311555900E+02 0.  0.
         -6    2    1    2    0  502  0.61996016362E+01  0.18291822092E+00  0.54950311678E+03  0.57055877581E+03  0.15344436380E+03 0.  0.
        -24    2    5    5    0    0  0.12989463163E+02  0.49745222833E+02  0.43840895202E+03  0.44863040462E+03  0.80146848889E+02 0.  0.
          5    1    3    3  501    0  0.26067931441E+02  0.29947063240E+02  0.55115338139E+02  0.68089310060E+02  0.47000000000E+01 0. -1.
        -11    1    4    4    0    0 -0.19234978391E+02 -0.49581909854E+01 -0.66357465898E+02  0.69266740445E+02  0.00000000000E+00 0.  1.
         12    1    4    4    0    0 -0.13032554686E+02 -0.25171790476E+02  0.19539440816E+02  0.34427550956E+02  0.00000000000E+00 0. -1.
         -5    1    5    5    0  502 -0.67898615264E+01 -0.49562304612E+02  0.11109416476E+03  0.12192837119E+03  0.47000000000E+01 0.  1.
         13    1    6    6    0    0  0.28480027152E+02  0.52253650826E+02  0.17671687227E+03  0.18646825176E+03  0.00000000000E+00 0. -1.
        -14    1    6    6    0    0 -0.15490563990E+02 -0.25084279931E+01  0.26169207976E+03  0.26216215286E+03  0.00000000000E+00 0.  1.
</event>
<event>
12    1  0.8461994E-002  0.2110170E+03  0.7818608E-02  0.1141009E+00
         21   -1    0    0  503  502  0.00000000000E+00  0.00000000000E+00  0.26815890359E+03  0.26815890359E+03  0.00000000000E+00 0. -1.
         21   -1    0    0  501  503 -0.00000000000E+00 -0.00000000000E+00 -0.16667129726E+03  0.16667129726E+03  0.00000000000E+00 0. -1.
          6    2    1    2  501    0 -0.19926295886E+02 -0.12013179249E+03  0.71899873057E+02  0.22174892804E+03  0.17080483163E+03 0.  0.
         24    2    3    3    0    0 -0.30339267014E+02 -0.11272272960E+03 -0.60392554932E+01  0.14262925956E+03  0.81729726453E+02 0.  0.
         -6    2    1    2    0  502  0.19926295886E+02  0.12013179249E+03  0.29587733274E+02  0.21308127282E+03  0.17233539982E+03 0.  0.
        -24    2    5    5    0    0  0.35188087895E+02  0.13820196552E+03  0.59431273472E+02  0.17471227048E+03  0.81573993325E+02 0.  0.
          5    1    3    3  501    0  0.10412971128E+02 -0.74090628899E+01  0.77939128550E+02  0.79119668476E+02  0.47000000000E+01 0. -1.
        -13    1    4    4    0    0 -0.81268144618E+00  0.55352755213E+01  0.17601683525E+02  0.18469406843E+02  0.00000000000E+00 0.  1.
         14    1    4    4    0    0 -0.29526585568E+02 -0.11825800512E+03 -0.23640939018E+02  0.12415985272E+03  0.00000000000E+00 0. -1.
         -5    1    5    5    0  502 -0.15261792009E+02 -0.18070173032E+02 -0.29843540199E+02  0.38369002337E+02  0.47000000000E+01 0.  1.
         11    1    6    6    0    0  0.51090241221E+02  0.75628662850E+02  0.69902889321E+01  0.91535629849E+02  0.00000000000E+00 0. -1.
        -12    1    6    6    0    0 -0.15902153325E+02  0.62573302670E+02  0.52440984540E+02  0.83176640633E+02  0.00000000000E+00 0.  1.
</event>
<event>
12    1  0.8461994E-002  0.1853774E+03  0.7818608E-02  0.1163375E+00
         21   -1    0    0  501  502  0.00000000000E+00  0.00000000000E+00  0.90705581757E+03  0.90705581757E+03  0.00000000000E+00 0.  1.
         21   -1    0    0  502  503 -0.00000000000E+00 -0.00000000000E+00 -0.46915786459E+03  0.46915786459E+03  0.00000000000E+00 0.  1.
         -6    2    1    2    0  503 -0.23295547743E+02 -0.59317101255E+02 -0.44137354730E+03  0.47761302299E+03  0.17100406552E+03 0.  0.
        -24    2    3    3    0    0  0.28812598243E+02  0.21878071484E+01 -0.12752381210E+03  0.15354226077E+03  0.80485718443E+02 0.  0.
          6    2    1    2  501    0  0.23295547743E+02  0.59317101255E+02  0.87927150028E+03  0.89860065918E+03  0.17407921309E+03 0.  0.
         24    2    5    5    0    0 -0.14314265001E+02 -0.29070516402E+02  0.50165428748E+03  0.50892936389E+03  0.79385642131E+02 0.  0.
          5    1    5    5  501    0  0.37609812744E+02  0.88387617658E+02  0.37761721280E+03  0.38967129529E+03  0.47000000000E+01 0. -1.
        -13    1    6    6    0    0 -0.22603488966E+02 -0.11273750237E+01  0.44156146284E+03  0.44214105685E+03  0.00000000000E+00 0.  1.
         14    1    6    6    0    0  0.82892239656E+01 -0.27943141379E+02  0.60092824645E+02  0.66788307044E+02  0.00000000000E+00 0. -1.
         -5    1    3    3    0  503 -0.52108145986E+02 -0.61504908404E+02 -0.31384973520E+03  0.32407076221E+03  0.47000000000E+01 0.  1.
         13    1    4    4    0    0 -0.13910731706E+02  0.52523305336E+01  0.38520763318E+01  0.15360140777E+02  0.00000000000E+00 0. -1.
        -14    1    4    4    0    0  0.42723329949E+02 -0.30645233852E+01 -0.13137588843E+03  0.13818211999E+03  0.00000000000E+00 0.  1.
</event>
<event>
12    1  0.8461994E-002  0.1932355E+03  0.7818608E-02  0.1156561E+00
         21   -1    0    0  503  502  0.00000000000E+00  0.00000000000E+00  0.16169013346E+02  0.16169013346E+02  0.00000000000E+00 0. -1.
         21   -1    0    0  501  503 -0.00000000000E+00 -0.00000000000E+00 -0.30300580102E+04  0.30300580102E+04  0.00000000000E+00 0. -1.
          6    2    1    2  501    0  0.17357247805E+02 -0.76620711338E+02 -0.22633250547E+04  0.22711875549E+04  0.17169915166E+03 0.  0.
         24    2    3    3    0    0 -0.14159336574E+02 -0.49649682238E+02 -0.60646198557E+03  0.61379862907E+03  0.79290852860E+02 0.  0.
         -6    2    1    2    0  502 -0.17357247805E+02  0.76620711338E+02 -0.75056394212E+03  0.77503946865E+03  0.17654443999E+03 0.  0.
        -24    2    5    5    0    0  0.27940871754E+01  0.13837928482E+01 -0.60128419763E+03  0.60659599943E+03  0.80039355352E+02 0.  0.
          5    1    3    3  501    0  0.31516584379E+02 -0.26971029099E+02 -0.16568630691E+04  0.16573889258E+04  0.47000000000E+01 0. -1.
        -13    1    4    4    0    0  0.25742102356E+02 -0.22971129229E+02 -0.11678000493E+03  0.12176985737E+03  0.00000000000E+00 0.  1.
         14    1    4    4    0    0 -0.39901438930E+02 -0.26678553010E+02 -0.48968198064E+03  0.49202877170E+03  0.00000000000E+00 0. -1.
         -5    1    5    5    0  502 -0.20151334980E+02  0.75236918489E+02 -0.14927974449E+03  0.16844346922E+03  0.47000000000E+01 0.  1.
         13    1    6    6    0    0 -0.17308711634E+02  0.22751236909E+02 -0.89128912316E+02  0.93601139363E+02  0.00000000000E+00 0. -1.
        -14    1    6    6    0    0  0.20102798810E+02 -0.21367444061E+02 -0.51215528531E+03  0.51299486007E+03  0.00000000000E+00 0.  1.
</event>
<event>
12    1  0.8461994E-002  0.2826460E+03  0.7818608E-02  0.1094271E+00
         21   -1    0    0  503  502  0.00000000000E+00  0.00000000000E+00  0.13423486474E+03  0.13423486474E+03  0.00000000000E+00 0.  1.
         21   -1    0    0  501  503 -0.00000000000E+00 -0.00000000000E+00 -0.72027815841E+03  0.72027815841E+03  0.00000000000E+00 0.  1.
          6    2    1    2  501    0  0.15610734551E+03  0.16075245003E+03 -0.47125129035E+03  0.54944590662E+03  0.17205281788E+03 0.  0.
         24    2    3    3    0    0  0.18521420188E+03  0.13532651210E+03 -0.42405713005E+03  0.48826530371E+03  0.77207459496E+02 0.  0.
         -6    2    1    2    0  502 -0.15610734551E+03 -0.16075245003E+03 -0.11479200332E+03  0.30506711652E+03  0.17227271417E+03 0.  0.
        -24    2    5    5    0    0 -0.36675658903E+02 -0.60280609809E+02  0.75962210997E+01  0.10667486386E+03  0.79642753146E+02 0.  0.
          5    1    3    3  501    0 -0.29106856370E+02  0.25425937926E+02 -0.47194160292E+02  0.61180602913E+02  0.47000000000E+01 0. -1.
        -11    1    4    4    0    0  0.27719135366E+02  0.45699617961E+02 -0.15428708505E+03  0.16328291448E+03  0.00000000000E+00 0.  1.
         12    1    4    4    0    0  0.15749506651E+03  0.89626894138E+02 -0.26977004500E+03  0.32498238923E+03  0.00000000000E+00 0. -1.
         -5    1    5    5    0  502 -0.11943168661E+03 -0.10047184022E+03 -0.12238822442E+03  0.19839225267E+03  0.47000000000E+01 0.  1.
         13    1    6    6    0    0 -0.44693166255E+02 -0.16268788867E+02 -0.22643434870E+02  0.52677108346E+02  0.00000000000E+00 0. -1.
        -14    1    6    6    0    0  0.80175073519E+01 -0.44011820943E+02  0.30239655969E+02  0.53997755509E+02  0.00000000000E+00 0.  1.
</event>
<event>
12    1  0.8461994E-002  0.2174242E+03  0.7818608E-02  0.1135917E+00
         21   -1    0    0  501  502  0.00000000000E+00  0.00000000000E+00  0.74262785824E+03  0.74262785824E+03  0.00000000000E+00 0. -1.
         21   -1    0    0  502  503 -0.00000000000E+00 -0.00000000000E+00 -0.85700797535E+02  0.85700797535E+02  0.00000000000E+00 0.  1.
         -6    2    1    2    0  503 -0.37390098316E+02 -0.12698900087E+03  0.11739271498E+03  0.24663233267E+03  0.17182034860E+03 0.  0.
        -24    2    3    3    0    0 -0.71020081641E+02 -0.10656620493E+03  0.13383266900E+03  0.20373211750E+03  0.84825611590E+02 0.  0.
          6    2    1    2  501    0  0.37390098316E+02  0.12698900087E+03  0.53953434573E+03  0.58169632310E+03  0.17247920541E+03 0.  0.
         24    2    5    5    0    0  0.58468944195E+02  0.15413548912E+03  0.44818143579E+03  0.48397890540E+03  0.78693170274E+02 0.  0.
          5    1    5    5  501    0 -0.21078845879E+02 -0.27146488251E+02  0.91352909936E+02  0.97717417699E+02  0.47000000000E+01 0. -1.
        -11    1    6    6    0    0  0.68534204153E+02  0.12984014770E+03  0.30615520944E+03  0.33953853001E+03  0.00000000000E+00 0.  1.
         12    1    6    6    0    0 -0.10065259959E+02  0.24295341420E+02  0.14202622635E+03  0.14444037540E+03  0.00000000000E+00 0. -1.
         -5    1    3    3    0  503  0.33629983326E+02 -0.20422795946E+02 -0.16439954027E+02  0.42900215164E+02  0.47000000000E+01 0.  1.
         13    1    4    4    0    0 -0.76308527847E+02 -0.48213313782E+02  0.10489008266E+03  0.13838151787E+03  0.00000000000E+00 0. -1.
        -14    1    4    4    0    0  0.52884462062E+01 -0.58352891145E+02  0.28942586345E+02  0.65350599634E+02  0.00000000000E+00 0.  1.
</event>
<event>
12    1  0.8461994E-002  0.2058227E+03  0.7818608E-02  0.1144981E+00
         21   -1    0    0  501  502  0.00000000000E+00  0.00000000000E+00  0.24759913883E+03  0.24759913883E+03  0.00000000000E+00 0. -1.
         21   -1    0    0  502  503 -0.00000000000E+00 -0.00000000000E+00 -0.28887076169E+03  0.28887076169E+03  0.00000000000E+00 0.  1.
         -6    2    1    2    0  503 -0.10203966251E+03 -0.54179246850E+02 -0.19210790670E+03  0.28154646955E+03  0.17033931779E+03 0.  0.
        -24    2    3    3    0    0 -0.43353562242E+02 -0.65467717806E+02 -0.19410093389E+03  0.22156688887E+03  0.72464889935E+02 0.  0.
          6    2    1    2  501    0  0.10203966251E+03  0.54179246850E+02  0.15083628384E+03  0.25492343097E+03  0.16996142980E+03 0.  0.
         24    2    5    5    0    0  0.12710640823E+03  0.51095484256E+02  0.16199423698E+03  0.22691555259E+03  0.80509301766E+02 0.  0.
          5    1    5    5  501    0 -0.25066745719E+02  0.30837625936E+01 -0.11157953141E+02  0.28007878373E+02  0.47000000000E+01 0. -1.
        -11    1    6    6    0    0 -0.96484135495E+01 -0.29575560002E+01  0.20485775880E+02  0.22836506627E+02  0.00000000000E+00 0.  1.
         12    1    6    6    0    0  0.13675482178E+03  0.54053040256E+02  0.14150846110E+03  0.20407904597E+03  0.00000000000E+00 0. -1.
         -5    1    3    3    0  503 -0.58686100268E+02  0.11288470957E+02  0.19930271843E+01  0.59979580681E+02  0.47000000000E+01 0.  1.
         13    1    4    4    0    0  0.16894245202E+02 -0.15803091931E+01 -0.17714524729E+02  0.24529926304E+02  0.00000000000E+00 0. -1.
        -14    1    4    4    0    0 -0.60247807444E+02 -0.63887408613E+02 -0.17638640916E+03  0.19703696257E+03  0.00000000000E+00 0.  1.
</event>
<event>
12    1  0.8461994E-002  0.2763825E+03  0.7818608E-02  0.1098638E+00
         21   -1    0    0  503  502  0.00000000000E+00  0.00000000000E+00  0.48017139572E+03  0.48017139572E+03  0.00000000000E+00 0.  1.
         21   -1    0    0  501  503 -0.00000000000E+00 -0.00000000000E+00 -0.35342592592E+03  0.35342592592E+03  0.00000000000E+00 0.  1.
          6    2    1    2  501    0 -0.26437947779E+02 -0.20475447876E+03 -0.24842034466E+03  0.37161804935E+03  0.18374968111E+03 0.  0.
         24    2    3    3    0    0 -0.15744855860E+02 -0.16012448291E+03 -0.80196416966E+02  0.19718307982E+03  0.81005871156E+02 0.  0.
         -6    2    1    2    0  502  0.26437947779E+02  0.20475447876E+03  0.37516581446E+03  0.46197927229E+03  0.17335540958E+03 0.  0.
        -24    2    5    5    0    0  0.39778515312E+02  0.12054448905E+03  0.12032096855E+03  0.19320933611E+03  0.82093897247E+02 0.  0.
          5    1    3    3  501    0 -0.10693091920E+02 -0.44629995850E+02 -0.16822392770E+03  0.17443496953E+03  0.47000000000E+01 0. -1.
        -13    1    4    4    0    0  0.11394923752E+02  0.81258276601E+00 -0.20368925186E+02  0.23353751118E+02  0.00000000000E+00 0.  1.
         14    1    4    4    0    0 -0.27139779612E+02 -0.16093706568E+03 -0.59827491780E+02  0.17382932871E+03  0.00000000000E+00 0. -1.
         -5    1    5    5    0  502 -0.13340567532E+02  0.84209989710E+02  0.25484484591E+03  0.26876993619E+03  0.47000000000E+01 0.  1.
         11    1    6    6    0    0  0.16839652382E+02  0.10676905177E+03  0.52223694534E+02  0.12004381941E+03  0.00000000000E+00 0. -1.
        -12    1    6    6    0    0  0.22938862929E+02  0.13775437279E+02  0.68097274014E+02  0.73165516692E+02  0.00000000000E+00 0.  1.
</event>
<event>
12    1  0.8461994E-002  0.2258669E+03  0.7818608E-02  0.1130182E+00
         21   -1    0    0  503  502  0.00000000000E+00  0.00000000000E+00  0.24483967644E+03  0.24483967644E+03  0.00000000000E+00 0.  1.
         21   -1    0    0  501  503 -0.00000000000E+00 -0.00000000000E+00 -0.33588066380E+03  0.33588066380E+03  0.00000000000E+00 0.  1.
          6    2    1    2  501    0  0.13986122547E+03 -0.21149513029E+02 -0.22674172422E+03  0.32004320614E+03  0.17608912518E+03 0.  0.
         24    2    3    3    0    0  0.13471210335E+03 -0.52744480327E+02 -0.23473319302E+03  0.28671590516E+03  0.78593939820E+02 0.  0.
         -6    2    1    2    0  502 -0.13986122547E+03  0.21149513029E+02  0.13570073686E+03  0.26067713409E+03  0.17184124639E+03 0.  0.
        -24    2    5    5    0    0 -0.58552800406E+02  0.15147248868E+02 -0.23104338783E+01  0.10031423187E+03  0.79998358898E+02 0.  0.
          5    1    3    3  501    0  0.51491221182E+01  0.31594967298E+02  0.79914687940E+01  0.33327300980E+02  0.47000000000E+01 0. -1.
        -11    1    4    4    0    0  0.10446717553E+03 -0.22249537064E+02 -0.10388267571E+03  0.14899678847E+03  0.00000000000E+00 0.  1.
         12    1    4    4    0    0  0.30244927824E+02 -0.30494943264E+02 -0.13085051730E+03  0.13771911669E+03  0.00000000000E+00 0. -1.
         -5    1    5    5    0  502 -0.81308425062E+02  0.60022641617E+01  0.13801117074E+03  0.16036290223E+03  0.47000000000E+01 0.  1.
         13    1    6    6    0    0 -0.36947001363E+02 -0.29334218251E+02 -0.14553983792E+02  0.49369987992E+02  0.00000000000E+00 0. -1.
        -14    1    6    6    0    0 -0.21605799044E+02  0.44481467119E+02  0.12243549913E+02  0.50944243873E+02  0.00000000000E+00 0.  1.
</event>
<event>
12    1  0.8461994E-002  0.1891242E+03  0.7818608E-02  0.1159589E+00
         21   -1    0    0  501  502  0.00000000000E+00  0.00000000000E+00  0.20079341271E+03  0.20079341271E+03  0.00000000000E+00 0. -1.
         21   -1    0    0  502  503 -0.00000000000E+00 -0.00000000000E+00 -0.85874303656E+03  0.85874303656E+03  0.00000000000E+00 0. -1.
         -6    2    1    2    0  503 -0.67605951020E+02  0.30345441004E+02 -0.80135022798E+03  0.82336514486E+03  0.17400161916E+03 0.  0.
        -24    2    3    3    0    0 -0.95406294404E+02  0.40457529197E+02 -0.76582130459E+03  0.77689464005E+03  0.79648217080E+02 0.  0.
          6    2    1    2  501    0  0.67605951020E+02 -0.30345441004E+02  0.14340060414E+03  0.23617130441E+03  0.17239994593E+03 0.  0.
         24    2    5    5    0    0 -0.22940932964E+02 -0.17016860130E+02  0.29764575492E+02  0.90186283694E+02  0.80198353339E+02 0.  0.
          5    1    5    5  501    0  0.90546883984E+02 -0.13328580875E+02  0.11363602865E+03  0.14598502072E+03  0.47000000000E+01 0. -1.
        -11    1    6    6    0    0  0.28104475066E+02  0.49877371415E+01  0.16755057454E+02  0.33097900097E+02  0.00000000000E+00 0.  1.
         12    1    6    6    0    0 -0.51045408030E+02 -0.22004597271E+02  0.13009518038E+02  0.57088383596E+02  0.00000000000E+00 0. -1.
         -5    1    3    3    0  503  0.27800343384E+02 -0.10112088193E+02 -0.35528923390E+02  0.46470504808E+02  0.47000000000E+01 0.  1.
         13    1    4    4    0    0 -0.58686347445E+02 -0.17418343348E+02 -0.40812328503E+03  0.41268886809E+03  0.00000000000E+00 0. -1.
        -14    1    4    4    0    0 -0.36719946959E+02  0.57875872545E+02 -0.35769801957E+03  0.36420577196E+03  0.00000000000E+00 0.  1.
</event>
<event>
12    1  0.8461994E-002  0.1811285E+03  0.7818608E-02  0.1167012E+00
         21   -1    0    0  503  502  0.00000000000E+00  0.00000000000E+00  0.77164539032E+03  0.77164539032E+03  0.00000000000E+00 0.  1.
         21   -1    0    0  501  503 -0.00000000000E+00 -0.00000000000E+00 -0.14701219841E+03  0.14701219841E+03  0.00000000000E+00 0.  1.
          6    2    1    2  501    0  0.56608564685E+02 -0.26797111754E+01 -0.75777852181E+02  0.19520532333E+03  0.17073700515E+03 0.  0.
         24    2    3    3    0    0 -0.27439951472E+02 -0.30568602017E+02 -0.52007206064E+02  0.10339531888E+03  0.79362787993E+02 0.  0.
         -6    2    1    2    0  502 -0.56608564685E+02  0.26797111754E+01  0.70041104409E+03  0.72345226541E+03  0.17203441280E+03 0.  0.
        -24    2    5    5    0    0  0.89842468864E+01 -0.50004325112E+02  0.32739916390E+03  0.34104152108E+03  0.80857636365E+02 0.  0.
          5    1    3    3  501    0  0.84048516157E+02  0.27888890842E+02 -0.23770646117E+02  0.91810004451E+02  0.47000000000E+01 0. -1.
        -11    1    4    4    0    0  0.21653051566E+02 -0.10345333453E+02 -0.43419869064E+02  0.49610136020E+02  0.00000000000E+00 0.  1.
         12    1    4    4    0    0 -0.49093003038E+02 -0.20223268564E+02 -0.85873369998E+01  0.53785182861E+02  0.00000000000E+00 0. -1.
         -5    1    5    5    0  502 -0.65592811571E+02  0.52684036287E+02  0.37301188019E+03  0.38241074432E+03  0.47000000000E+01 0.  1.
         11    1    6    6    0    0  0.43422815553E+01 -0.48785230899E+02  0.81424331450E+02  0.95019871158E+02  0.00000000000E+00 0. -1.
        -12    1    6    6    0    0  0.46419653312E+01 -0.12190942130E+01  0.24597483245E+03  0.24602164993E+03  0.00000000000E+00 0.  1.
</event>
<event>
12    1  0.8461994E-002  0.1895354E+03  0.7818608E-02  0.1159574E+00
         21   -1    0    0  501  502  0.00000000000E+00  0.00000000000E+00  0.10063079518E+04  0.10063079518E+04  0.00000000000E+00 0.  1.
         21   -1    0    0  502  503 -0.00000000000E+00 -0.00000000000E+00 -0.35319992768E+02  0.35319992768E+02  0.00000000000E+00 0. -1.
         -6    2    1    2    0  503 -0.45893337651E+02  0.64477855267E+02  0.52769720298E+03  0.56070311934E+03  0.17222095620E+03 0.  0.
        -24    2    3    3    0    0  0.37657830336E+01  0.86313567720E+02  0.28859393466E+03  0.31547814198E+03  0.93679164432E+02 0.  0.
          6    2    1    2  501    0  0.45893337651E+02 -0.64477855267E+02  0.44329075608E+03  0.48092482524E+03  0.16887391999E+03 0.  0.
         24    2    5    5    0    0  0.42053379798E+02 -0.61478225657E+02  0.45476659777E+03  0.46760086199E+03  0.79308566438E+02 0.  0.
          5    1    5    5  501    0  0.38399578536E+01 -0.29996296105E+01 -0.11475841692E+02  0.13323963249E+02  0.47000000000E+01 0. -1.
        -11    1    6    6    0    0 -0.94198107285E+01 -0.32670741670E+02  0.30090466330E+03  0.30281962716E+03  0.00000000000E+00 0.  1.
         12    1    6    6    0    0  0.51473190526E+02 -0.28807483987E+02  0.15386193447E+03  0.16478123484E+03  0.00000000000E+00 0. -1.
         -5    1    3    3    0  503 -0.49659120685E+02 -0.21835712453E+02  0.23910326831E+03  0.24522497736E+03  0.47000000000E+01 0.  1.
         13    1    4    4    0    0  0.14888327227E+01 -0.59532861619E+01 -0.48755073361E+01  0.78376533979E+01  0.00000000000E+00 0. -1.
        -14    1    4    4    0    0  0.22769503109E+01  0.92266853882E+02  0.29346944200E+03  0.30764048858E+03  0.00000000000E+00 0.  1.
</event>
<event>
12    1  0.8461994E-002  0.2292275E+03  0.7818608E-02  0.1127836E+00
         21   -1    0    0  503  502  0.00000000000E+00  0.00000000000E+00  0.47428840223E+03  0.47428840223E+03  0.00000000000E+00 0.  1.
         21   -1    0    0  501  503 -0.00000000000E+00 -0.00000000000E+00 -0.13271824088E+03  0.13271824088E+03  0.00000000000E+00 0. -1.
          6    2    1    2  501    0 -0.12008295868E+03  0.91391178046E+02  0.41437513831E+02  0.22934955879E+03  0.16766600185E+03 0.  0.
         24    2    3    3    0    0 -0.24752537047E+02  0.92163234567E+02  0.48441103859E+02  0.13364362568E+03  0.80045788430E+02 0.  0.
         -6    2    1    2    0  502  0.12008295868E+03 -0.91391178046E+02  0.30013264752E+03  0.37765708431E+03  0.17254855211E+03 0.  0.
        -24    2    5    5    0    0  0.11854977576E+03 -0.12702968010E+03  0.21782191521E+03  0.28782613123E+03  0.72158894901E+02 0.  0.
          5    1    3    3  501    0 -0.95330421632E+02 -0.77205652150E+00 -0.70035900283E+01  0.95705933114E+02  0.47000000000E+01 0. -1.
        -13    1    4    4    0    0 -0.50223660431E+02  0.77534488636E+02  0.24037704385E+02  0.95455875813E+02  0.00000000000E+00 0.  1.
         14    1    4    4    0    0  0.25471123384E+02  0.14628745932E+02  0.24403399474E+02  0.38187749866E+02  0.00000000000E+00 0. -1.
         -5    1    5    5    0  502  0.15331829170E+01  0.35638502053E+02  0.82310732304E+02  0.89830953078E+02  0.47000000000E+01 0.  1.
         13    1    6    6    0    0  0.79901432251E+02 -0.33498189906E+02  0.92381874795E+02  0.12665219459E+03  0.00000000000E+00 0. -1.
        -14    1    6    6    0    0  0.38648343512E+02 -0.93531490193E+02  0.12544004042E+03  0.16117393665E+03  0.00000000000E+00 0.  1.
</event>
<event>
12    1  0.8461994E-002  0.2177011E+03  0.7818608E-02  0.1135763E+00
         21   -1    0    0  503  502  0.00000000000E+00  0.00000000000E+00  0.19685578571E+04  0.19685578571E+04  0.00000000000E+00 0. -1.
         21   -1    0    0  501  503 -0.00000000000E+00 -0.00000000000E+00 -0.25372201265E+02  0.25372201265E+02  0.00000000000E+00 0.  1.
          6    2    1    2  501    0 -0.11175020907E+03  0.69349593129E+02  0.74023208208E+03  0.77158104051E+03  0.17348282752E+03 0.  0.
         24    2    3    3    0    0 -0.10563415523E+03  0.18111651136E+02  0.30008758701E+03  0.32839710652E+03  0.79407134637E+02 0.  0.
         -6    2    1    2    0  502  0.11175020907E+03 -0.69349593129E+02  0.12029535738E+04  0.12223490178E+04  0.17245969252E+03 0.  0.
        -24    2    5    5    0    0  0.13734472914E+03 -0.65928619814E+02  0.11045421248E+04  0.11204977253E+04  0.11086789135E+03 0.  0.
          5    1    3    3  501    0 -0.61160538387E+01  0.51237941992E+02  0.44014449507E+03  0.44318393399E+03  0.47000000000E+01 0. -1.
        -11    1    4    4    0    0 -0.35336159157E+02 -0.90729812789E+01  0.19893039063E+03  0.20224802459E+03  0.00000000000E+00 0.  1.
         12    1    4    4    0    0 -0.70297996072E+02  0.27184632415E+02  0.10115719638E+03  0.12614908193E+03  0.00000000000E+00 0. -1.
         -5    1    5    5    0  502 -0.25594520076E+02 -0.34209733145E+01  0.98411448903E+02  0.10185129254E+03  0.47000000000E+01 0.  1.
         13    1    6    6    0    0  0.10022167289E+03 -0.95841540589E+02  0.74350134321E+03  0.75632283582E+03  0.00000000000E+00 0. -1.
        -14    1    6    6    0    0  0.37123056249E+02  0.29912920775E+02  0.36104078163E+03  0.36417488949E+03  0.00000000000E+00 0.  1.
</event>
<event>
12    1  0.8461994E-002  0.1889024E+03  0.7818608E-02  0.1159626E+00
         21   -1    0    0  501  502  0.00000000000E+00  0.00000000000E+00  0.50545834678E+03  0.50545834678E+03  0.00000000000E+00 0. -1.
         21   -1    0    0  502  503 -0.00000000000E+00 -0.00000000000E+00 -0.31716172741E+03  0.31716172741E+03  0.00000000000E+00 0. -1.
         -6    2    1    2    0  503  0.78260953223E+02 -0.83921132761E+01 -0.26875447996E+03  0.32806995299E+03  0.17089680861E+03 0.  0.
        -24    2    3    3    0    0  0.53265045824E+02 -0.22844674259E+02 -0.55681540466E+02  0.11299824530E+03  0.79430002160E+02 0.  0.
          6    2    1    2  501    0 -0.78260953223E+02  0.83921132761E+01  0.45705109933E+03  0.49455012120E+03  0.17172335488E+03 0.  0.
         24    2    5    5    0    0 -0.54502856157E+02 -0.61437394769E+02  0.26797749778E+03  0.29154390412E+03  0.80254556918E+02 0.  0.
          5    1    5    5  501    0 -0.23758097066E+02  0.69829508045E+02  0.18907360154E+03  0.20300621707E+03  0.47000000000E+01 0. -1.
        -13    1    6    6    0    0 -0.10077117690E+02 -0.96318639996E+01 -0.10651715778E+01  0.13980547040E+02  0.00000000000E+00 0.  1.
         14    1    6    6    0    0 -0.44425738467E+02 -0.51805530770E+02  0.26904266936E+03  0.27756335708E+03  0.00000000000E+00 0. -1.
         -5    1    3    3    0  503  0.24995907399E+02  0.14452560983E+02 -0.21307293950E+03  0.21507170770E+03  0.47000000000E+01 0.  1.
         11    1    4    4    0    0  0.72622264181E+01  0.50855224863E+01 -0.58441078252E+02  0.59109746225E+02  0.00000000000E+00 0. -1.
        -12    1    4    4    0    0  0.46002819406E+02 -0.27930196745E+02  0.27595377864E+01  0.53888499073E+02  0.00000000000E+00 0.  1.
</event>
<event>
12    1  0.8461994E-002  0.1866925E+03  0.7818608E-02  0.1161961E+00
         21   -1    0    0  503  502  0.00000000000E+00  0.00000000000E+00  0.64054917624E+02  0.64054917624E+02  0.00000000000E+00 0.  1.
         21   -1    0    0  501  503 -0.00000000000E+00 -0.00000000000E+00 -0.64152131811E+03  0.64152131811E+03  0.00000000000E+00 0.  1.
          6    2    1    2  501    0  0.30068733478E+02 -0.65662282382E+02 -0.43174250513E+03  0.47037823325E+03  0.17215814684E+03 0.  0.
         24    2    3    3    0    0 -0.19590383410E+02 -0.46073712229E+02 -0.11298798570E+03  0.14715033590E+03  0.79877195511E+02 0.  0.
         -6    2    1    2    0  502 -0.30068733478E+02  0.65662282382E+02 -0.14572389536E+03  0.23519800248E+03  0.16990286234E+03 0.  0.
        -24    2    5    5    0    0 -0.54605202155E+02  0.73267276754E+02 -0.16265907433E+03  0.20407302021E+03  0.82692207429E+02 0.  0.
          5    1    3    3  501    0  0.49659116888E+02 -0.19588570153E+02 -0.31875451942E+03  0.32322789735E+03  0.47000000000E+01 0. -1.
        -13    1    4    4    0    0 -0.21524821422E+02 -0.16590575935E+02 -0.11438666464E+03  0.11757071997E+03  0.00000000000E+00 0.  1.
         14    1    4    4    0    0  0.19344380122E+01 -0.29483136294E+02  0.13986789333E+01  0.29579615936E+02  0.00000000000E+00 0. -1.
         -5    1    5    5    0  502  0.24536468678E+02 -0.76049943715E+01  0.16935178973E+02  0.31124982272E+02  0.47000000000E+01 0.  1.
         13    1    6    6    0    0  0.12137660331E+02  0.15809586733E+02 -0.82878454266E+02  0.85241445392E+02  0.00000000000E+00 0. -1.
        -14    1    6    6    0    0 -0.66742862486E+02  0.57457690021E+02 -0.79780620064E+02  0.11883157482E+03  0.00000000000E+00 0.  1.
</event>
<event>
12    1  0.8461994E-002  0.2495287E+03  0.7818608E-02  0.1115400E+00
         21   -1    0    0  503  502  0.00000000000E+00  0.00000000000E+00  0.87707023887E+03  0.87707023887E+03  0.00000000000E+00 0. -1.
         21   -1    0    0  501  503 -0.00000000000E+00 -0.00000000000E+00 -0.11732690124E+03  0.11732690124E+03  0.00000000000E+00 0. -1.
          6    2    1    2  501    0 -0.51851251801E+00 -0.16512383225E+03  0.62117331962E+02  0.25714420068E+03  0.18707866842E+03 0.  0.
         24    2    3    3    0    0 -0.97448665794E+01 -0.44413337418E+01  0.76785966979E+01  0.87174624477E+02  0.86172886892E+02 0.  0.
         -6    2    1    2    0  502  0.51851251801E+00  0.16512383225E+03  0.69762600567E+03  0.73725293944E+03  0.17202820728E+03 0.  0.
        -24    2    5    5    0    0 -0.32000068746E+02  0.14569331480E+03  0.36151740738E+03  0.39898369316E+03  0.79010158788E+02 0.  0.
          5    1    3    3  501    0  0.92263540613E+01 -0.16068249851E+03  0.54438735264E+02  0.16996957620E+03  0.47000000000E+01 0. -1.
        -11    1    4    4    0    0 -0.32261794742E+02  0.21812534194E+02 -0.19154289747E+02  0.43399272617E+02  0.00000000000E+00 0.  1.
         12    1    4    4    0    0  0.22516928163E+02 -0.26253867936E+02  0.26832886445E+02  0.43775351860E+02  0.00000000000E+00 0. -1.
         -5    1    5    5    0  502  0.32518581264E+02  0.19430517446E+02  0.33610859829E+03  0.33826924628E+03  0.47000000000E+01 0.  1.
         11    1    6    6    0    0 -0.59248650172E+01  0.11323960873E+03  0.32277582103E+03  0.34211481063E+03  0.00000000000E+00 0. -1.
        -12    1    6    6    0    0 -0.26075203729E+02  0.32453706073E+02  0.38741586347E+02  0.56868882529E+02  0.00000000000E+00 0.  1.
</event>
<event>
12    1  0.8461994E-002  0.1785504E+03  0.7818608E-02  0.1169295E+00
         21   -1    0    0  503  502  0.00000000000E+00  0.00000000000E+00  0.43778066470E+02  0.43778066470E+02  0.00000000000E+00 0.  1.
         21   -1    0    0  501  503 -0.00000000000E+00 -0.00000000000E+00 -0.72688401344E+03  0.72688401344E+03  0.00000000000E+00 0.  1.
          6    2    1    2  501    0 -0.30696535953E+02 -0.36693193027E+02 -0.34030512720E+03  0.38430172712E+03  0.17202200479E+03 0.  0.
         24    2    3    3    0    0 -0.76788371436E+02  0.15912821882E+02 -0.21389293641E+03  0.23975421907E+03  0.74714291984E+02 0.  0.
         -6    2    1    2    0  502  0.30696535953E+02  0.36693193027E+02 -0.34280081977E+03  0.38636035279E+03  0.17167775756E+03 0.  0.
        -24    2    5    5    0    0  0.65445188633E+02  0.73550282441E+02 -0.26986750472E+03  0.29743750788E+03  0.77122527372E+02 0.  0.
          5    1    3    3  501    0  0.46091835483E+02 -0.52606014908E+02 -0.12641219079E+03  0.14454750805E+03  0.47000000000E+01 0. -1.
        -13    1    4    4    0    0 -0.51892915118E+02 -0.17976432885E+02 -0.17135314566E+03  0.17993867651E+03  0.00000000000E+00 0.  1.
         14    1    4    4    0    0 -0.24895456317E+02  0.33889254766E+02 -0.42539790757E+02  0.59815542558E+02  0.00000000000E+00 0. -1.
         -5    1    5    5    0  502 -0.34748652680E+02 -0.36857089414E+02 -0.72933315047E+02  0.88922844910E+02  0.47000000000E+01 0.  1.
         13    1    6    6    0    0 -0.58898959220E+01 -0.82322332774E+01 -0.51886900929E+01  0.11374666746E+02  0.00000000000E+00 0. -1.
        -14    1    6    6    0    0  0.71335084554E+02  0.81782515719E+02 -0.26467881463E+03  0.28606284114E+03  0.00000000000E+00 0.  1.
</event>
<event>
12    1  0.8461994E-002  0.1781136E+03  0.7818608E-02  0.1169729E+00
         21   -1    0    0  503  502  0.00000000000E+00  0.00000000000E+00  0.13432802728E+04  0.13432802728E+04  0.00000000000E+00 0.  1.
         21   -1    0    0  501  503 -0.00000000000E+00 -0.00000000000E+00 -0.24380024044E+02  0.24380024044E+02  0.00000000000E+00 0.  1.
          6    2    1    2  501    0 -0.40590718967E+02 -0.20953778414E+02  0.53417445135E+03  0.56297462982E+03  0.17178888805E+03 0.  0.
         24    2    3    3    0    0 -0.58144976066E+02 -0.72388116272E+02  0.36489379354E+03  0.38512167326E+03  0.80934201840E+02 0.  0.
         -6    2    1    2    0  502  0.40590718967E+02  0.20953778414E+02  0.78472579741E+03  0.80468566702E+03  0.17215626126E+03 0.  0.
        -24    2    5    5    0    0 -0.28496711080E+02 -0.76234289468E+01  0.23580000329E+03  0.25067181591E+03  0.79778057945E+02 0.  0.
          5    1    3    3  501    0  0.17554257099E+02  0.51434337858E+02  0.16928065781E+03  0.17785295657E+03  0.47000000000E+01 0. -1.
        -13    1    4    4    0    0 -0.60432698391E+02 -0.61757122544E+02  0.17751423337E+03  0.19742683776E+03  0.00000000000E+00 0.  1.
         14    1    4    4    0    0  0.22877223248E+01 -0.10630993728E+02  0.18737956018E+03  0.18769483550E+03  0.00000000000E+00 0. -1.
         -5    1    5    5    0  502  0.69087430047E+02  0.28577207361E+02  0.54892579411E+03  0.55401385110E+03  0.47000000000E+01 0.  1.
         13    1    6    6    0    0 -0.31118739852E+02  0.21487253378E+02  0.20401760011E+03  0.20749279309E+03  0.00000000000E+00 0. -1.
        -14    1    6    6    0    0  0.26220287728E+01 -0.29110682324E+02  0.31782403179E+02  0.43179022825E+02  0.00000000000E+00 0.  1.
</event>
<event>
12    1  0.8461994E-002  0.2792027E+03  0.7818608E-02  0.1096180E+00
         21   -1    0    0  501  502  0.00000000000E+00  0.00000000000E+00  0.61998233371E+03  0.61998233371E+03  0.00000000000E+00 0.  1.
         21   -1    0    0  502  503 -0.00000000000E+00 -0.00000000000E+00 -0.35088556298E+03  0.35088556298E+03  0.00000000000E+00 0. -1.
         -6    2    1    2    0  503  0.19158444973E+03 -0.10811026805E+03 -0.25449106721E+03  0.37748910198E+03  0.17128890037E+03 0.  0.
        -24    2    3    3    0    0  0.74868299247E+02 -0.66853336895E+01 -0.16525046156E+03  0.19889556125E+03  0.81251297353E+02 0.  0.
          6    2    1    2  501    0 -0.19158444973E+03  0.10811026805E+03  0.52358783793E+03  0.59337879472E+03  0.17193527431E+03 0.  0.
         24    2    5    5    0    0 -0.18825806754E+03  0.40713953495E+02  0.43962395094E+03  0.48555786746E+03  0.73474474582E+02 0.  0.
          5    1    5    5  501    0 -0.33263821890E+01  0.67396314555E+02  0.83963886996E+02  0.10782092725E+03  0.47000000000E+01 0. -1.
        -11    1    6    6    0    0 -0.18790979247E+03  0.47299572610E+02  0.43772250260E+03  0.47869440038E+03  0.00000000000E+00 0.  1.
         12    1    6    6    0    0 -0.34827507148E+00 -0.65856191147E+01  0.19014483425E+01  0.68634670866E+01  0.00000000000E+00 0. -1.
         -5    1    3    3    0  503  0.11671615048E+03 -0.10142493436E+03 -0.89240605646E+02  0.17859354073E+03  0.47000000000E+01 0.  1.
         11    1    4    4    0    0  0.36526867005E+02 -0.41263591685E+02 -0.11144164629E+03  0.12432271128E+03  0.00000000000E+00 0. -1.
        -12    1    4    4    0    0  0.38341432242E+02  0.34578257996E+02 -0.53808815268E+02  0.74572849972E+02  0.00000000000E+00 0.  1.
</event>
<event>
12    1  0.8461994E-002  0.1896137E+03  0.7818608E-02  0.1161395E+00
         21   -1    0    0  501  502  0.00000000000E+00  0.00000000000E+00  0.49354211966E+03  0.49354211966E+03  0.00000000000E+00 0.  1.
         21   -1    0    0  502  503 -0.00000000000E+00 -0.00000000000E+00 -0.11507539187E+03  0.11507539187E+03  0.00000000000E+00 0.  1.
         -6    2    1    2    0  503 -0.39852894628E+02 -0.32089886921E+02 -0.59232645491E+00  0.18961458599E+03  0.18257964376E+03 0.  0.
        -24    2    3    3    0    0 -0.11327245052E+01 -0.74898530692E+02 -0.39144460294E+02  0.12004312216E+03  0.85246638890E+02 0.  0.
          6    2    1    2  501    0  0.39852894628E+02  0.32089886921E+02  0.37905905424E+03  0.41900292554E+03  0.17105458472E+03 0.  0.
         24    2    5    5    0    0  0.52924690723E+01 -0.29144450341E+01  0.35525477672E+03  0.36415349620E+03  0.79782881596E+02 0.  0.
          5    1    5    5  501    0  0.34560425556E+02  0.35004331955E+02  0.23804277523E+02  0.54849429337E+02  0.47000000000E+01 0. -1.
        -11    1    6    6    0    0 -0.21813634177E+01 -0.38964649309E+02  0.24025937053E+03  0.24340823192E+03  0.00000000000E+00 0.  1.
         12    1    6    6    0    0  0.74738324900E+01  0.36050204275E+02  0.11499540619E+03  0.12074526428E+03  0.00000000000E+00 0. -1.
         -5    1    3    3    0  503 -0.38720170123E+02  0.42808643771E+02  0.38552133839E+02  0.69571463829E+02  0.47000000000E+01 0.  1.
         13    1    4    4    0    0  0.36940673064E+02 -0.46863799429E+02 -0.16434083440E+01  0.59695308144E+02  0.00000000000E+00 0. -1.
        -14    1    4    4    0    0 -0.38073397569E+02 -0.28034731263E+02 -0.37501051950E+02  0.60347814018E+02  0.00000000000E+00 0.  1.
</event>
<event>
12    1  0.8461994E-002  0.1864036E+03  0.7818608E-02  0.1162489E+00
         21   -1    0    0  501  502  0.00000000000E+00  0.00000000000E+00  0.13755756598E+04  0.13755756598E+04  0.00000000000E+00 0.  1.
         21   -1    0    0  502  503 -0.00000000000E+00 -0.00000000000E+00 -0.24831755228E+02  0.24831755228E+02  0.00000000000E+00 0.  1.
         -6    2    1    2    0  503 -0.97177820012E+00  0.70290003419E+02  0.68814163393E+03  0.71294122834E+03  0.17264025541E+03 0.  0.
        -24    2    3    3    0    0  0.30526594429E+02  0.12539221300E+02  0.16563030872E+03  0.18628434261E+03  0.78608855086E+02 0.  0.
          6    2    1    2  501    0  0.97177820012E+00 -0.70290003419E+02  0.66260227062E+03  0.68746618666E+03  0.16919326180E+03 0.  0.
         24    2    5    5    0    0  0.34688979850E+02  0.17763998941E+02  0.29405881160E+03  0.30702338123E+03  0.79207871837E+02 0.  0.
          5    1    5    5  501    0 -0.33717201650E+02 -0.88054002360E+02  0.36854345902E+03  0.38044280543E+03  0.47000000000E+01 0. -1.
        -11    1    6    6    0    0  0.32952070370E+02  0.26256706042E+02  0.62933607052E+02  0.75735674886E+02  0.00000000000E+00 0.  1.
         12    1    6    6    0    0  0.17369094798E+01 -0.84927071007E+01  0.23112520455E+03  0.23128770635E+03  0.00000000000E+00 0. -1.
         -5    1    3    3    0  503 -0.31498372629E+02  0.57750782119E+02  0.52251132521E+03  0.52665688573E+03  0.47000000000E+01 0.  1.
         13    1    4    4    0    0  0.64106247681E+01  0.10751610546E+02 -0.53423073671E+01  0.13610050964E+02  0.00000000000E+00 0. -1.
        -14    1    4    4    0    0  0.24115969661E+02  0.17876107540E+01  0.17097261609E+03  0.17267429165E+03  0.00000000000E+00 0.  1.
</event>
<event>
12    1  0.8461994E-002  0.1968623E+03  0.7818608E-02  0.1152701E+00
         21   -1    0    0  501  502  0.00000000000E+00  0.00000000000E+00  0.51556171451E+03  0.51556171451E+03  0.00000000000E+00 0.  1.
         21   -1    0    0  502  503 -0.00000000000E+00 -0.00000000000E+00 -0.83127967993E+02  0.83127967993E+02  0.00000000000E+00 0. -1.
         -6    2    1    2    0  503  0.59488982384E+02  0.69682437113E+02  0.12135149755E+03  0.23125952573E+03  0.17424178952E+03 0.  0.
        -24    2    3    3    0    0  0.93286629636E+02  0.69289513312E+02  0.46951565555E+02  0.14940676017E+03  0.81329567508E+02 0.  0.
          6    2    1    2  501    0 -0.59488982384E+02 -0.69682437113E+02  0.31108224896E+03  0.36743015677E+03  0.17273729597E+03 0.  0.
         24    2    5    5    0    0 -0.94938435231E+02 -0.12866732723E+02  0.16919262434E+03  0.21046059428E+03  0.80552208662E+02 0.  0.
          5    1    5    5  501    0  0.35449452847E+02 -0.56815704390E+02  0.14188962462E+03  0.15696956249E+03  0.47000000000E+01 0. -1.
        -13    1    6    6    0    0 -0.19348626346E+02  0.33975129669E+01  0.11346002617E+03  0.11514812189E+03  0.00000000000E+00 0.  1.
         14    1    6    6    0    0 -0.75589808884E+02 -0.16264245690E+02  0.55732598163E+02  0.95312472389E+02  0.00000000000E+00 0. -1.
         -5    1    3    3    0  503 -0.33797647252E+02  0.39292380113E+00  0.74399931998E+02  0.81852765563E+02  0.47000000000E+01 0.  1.
         13    1    4    4    0    0  0.28800171191E+02 -0.13637140586E+02  0.28496192704E+02  0.42748736386E+02  0.00000000000E+00 0. -1.
        -14    1    4    4    0    0  0.64486458445E+02  0.82926653897E+02  0.18455372852E+02  0.10665802378E+03  0.00000000000E+00 0.  1.
</event>
<event>
12    1  0.8461994E-002  0.1732400E+03  0.7818608E-02  0.1175474E+00
         21   -1    0    0  503  502  0.00000000000E+00  0.00000000000E+00  0.18481223254E+02  0.18481223254E+02  0.00000000000E+00 0.  1.
         21   -1    0    0  501  503 -0.00000000000E+00 -0.00000000000E+00 -0.20812281951E+04  0.20812281951E+04  0.00000000000E+00 0.  1.
          6    2    1    2  501    0 -0.58704808144E+01 -0.70895521517E+01 -0.52944126982E+03  0.55706388242E+03  0.17299533695E+03 0.  0.
         24    2    3    3    0    0 -0.20564611790E+02 -0.57959168156E+02 -0.45456189324E+03  0.46523444076E+03  0.77681411230E+02 0.  0.
         -6    2    1    2    0  502  0.58704808144E+01  0.70895521517E+01 -0.15333057020E+04  0.15426455359E+04  0.16924582535E+03 0.  0.
        -24    2    5    5    0    0  0.21993020971E+02 -0.15261220150E+00 -0.37018122692E+03  0.37937728663E+03  0.80057907736E+02 0.  0.
          5    1    3    3  501    0  0.14694130976E+02  0.50869616005E+02 -0.74879376583E+02  0.91829441657E+02  0.47000000000E+01 0. -1.
        -13    1    4    4    0    0 -0.88776778658E+01 -0.44957113084E+01 -0.31742989935E+03  0.31758583971E+03  0.00000000000E+00 0.  1.
         14    1    4    4    0    0 -0.11686933924E+02 -0.53463456848E+02 -0.13713199389E+03  0.14764860105E+03  0.00000000000E+00 0. -1.
         -5    1    5    5    0  502 -0.16122540157E+02  0.72421643532E+01 -0.11631244751E+04  0.11632682493E+04  0.47000000000E+01 0.  1.
         11    1    6    6    0    0  0.14361070217E+02 -0.39706055567E+02 -0.16824620173E+03  0.17346352810E+03  0.00000000000E+00 0. -1.
        -12    1    6    6    0    0  0.76319507542E+01  0.39553443365E+02 -0.20193502519E+03  0.20591375853E+03  0.00000000000E+00 0.  1.
</event>
<event>
12    1  0.8461994E-002  0.2174672E+03  0.7818608E-02  0.1136605E+00
         21   -1    0    0  503  502  0.00000000000E+00  0.00000000000E+00  0.54187755719E+02  0.54187755719E+02  0.00000000000E+00 0. -1.
         21   -1    0    0  501  503 -0.00000000000E+00 -0.00000000000E+00 -0.93768554259E+03  0.93768554259E+03  0.00000000000E+00 0. -1.
          6    2    1    2  501    0 -0.20796503654E+02 -0.13135583672E+03 -0.59245933561E+03  0.63111016196E+03  0.17206138955E+03 0.  0.
         24    2    3    3    0    0  0.12868645591E+02 -0.21568911215E+02 -0.38764810886E+03  0.39625650564E+03  0.78213438649E+02 0.  0.
         -6    2    1    2    0  502  0.20796503654E+02  0.13135583672E+03 -0.29103845127E+03  0.36076313635E+03  0.16661275470E+03 0.  0.
        -24    2    5    5    0    0 -0.13198423130E+02  0.70037425202E+02 -0.56713152905E+02  0.11612863737E+03  0.72041928096E+02 0.  0.
          5    1    3    3  501    0 -0.33665149245E+02 -0.10978692551E+03 -0.20481122674E+03  0.23485365632E+03  0.47000000000E+01 0. -1.
        -11    1    4    4    0    0 -0.15361278366E+02  0.20201175976E+02 -0.66549832305E+02  0.71224550287E+02  0.00000000000E+00 0.  1.
         12    1    4    4    0    0  0.28229923958E+02 -0.41770087191E+02 -0.32109827656E+03  0.32503195535E+03  0.00000000000E+00 0. -1.
         -5    1    5    5    0  502  0.33994926784E+02  0.61318411523E+02 -0.23432529836E+03  0.24463449898E+03  0.47000000000E+01 0.  1.
         13    1    6    6    0    0 -0.35686235590E+01  0.61609624780E+02 -0.72887398422E+02  0.95504208223E+02  0.00000000000E+00 0. -1.
        -14    1    6    6    0    0 -0.96297995707E+01  0.84278004222E+01  0.16174245517E+02  0.20624429150E+02  0.00000000000E+00 0.  1.
</event>
<event>
12    1  0.8461994E-002  0.2314306E+03  0.7818608E-02  0.1126095E+00
         21   -1    0    0  503  502  0.00000000000E+00  0.00000000000E+00  0.19583942155E+03  0.19583942155E+03  0.00000000000E+00 0. -1.
         21   -1    0    0  501  503 -0.00000000000E+00 -0.00000000000E+00 -0.28041266741E+03  0.28041266741E+03  0.00000000000E+00 0.  1.
          6    2    1    2  501    0  0.10811047519E+03 -0.10932245352E+03 -0.87471145626E+02  0.24740923825E+03  0.17297646131E+03 0.  0.
         24    2    3    3    0    0  0.45143153937E+02 -0.13511788018E+03 -0.57675954190E+02  0.17297718189E+03  0.79371555806E+02 0.  0.
         -6    2    1    2    0  502 -0.10811047519E+03  0.10932245352E+03  0.28978997716E+01  0.22884285070E+03  0.16947382926E+03 0.  0.
        -24    2    5    5    0    0 -0.62315495955E+02  0.13912772090E+03  0.14691292018E+02  0.17274732337E+03  0.79912826954E+02 0.  0.
          5    1    3    3  501    0  0.62967321251E+02  0.25795426658E+02 -0.29795191436E+02  0.74432056365E+02  0.47000000000E+01 0. -1.
        -13    1    4    4    0    0  0.42229644595E+02 -0.90795846229E+02 -0.75198683604E+02  0.12522807429E+03  0.00000000000E+00 0.  1.
         14    1    4    4    0    0  0.29135093420E+01 -0.44322033951E+02  0.17522729415E+02  0.47749107597E+02  0.00000000000E+00 0. -1.
         -5    1    5    5    0  502 -0.45794979234E+02 -0.29805267373E+02 -0.11793392246E+02  0.56095527334E+02  0.47000000000E+01 0.  1.
         13    1    6    6    0    0 -0.78565789311E+02  0.87534556174E+02  0.15573557357E+02  0.11864829313E+03  0.00000000000E+00 0. -1.
        -14    1    6    6    0    0  0.16250293356E+02  0.51593164722E+02 -0.88226533953E+00  0.54099030234E+02  0.00000000000E+00 0.  1.
</event>
<event>
12    1  0.8461994E-002  0.1950194E+03  0.7818608E-02  0.1155919E+00
         21   -1    0    0  503  502  0.00000000000E+00  0.00000000000E+00  0.88672013303E+02  0.88672013303E+02  0.00000000000E+00 0. -1.
         21   -1    0    0  501  503 -0.00000000000E+00 -0.00000000000E+00 -0.87707362934E+03  0.87707362934E+03  0.00000000000E+00 0.  1.
          6    2    1    2  501    0  0.18324740548E+02  0.88739810903E+02 -0.74228393757E+03  0.76534749120E+03  0.16297480831E+03 0.  0.
         24    2    3    3    0    0  0.10329363524E+02  0.12372480181E+03 -0.64004620370E+03  0.65689233978E+03  0.80211475800E+02 0.  0.
         -6    2    1    2    0  502 -0.18324740548E+02 -0.88739810903E+02 -0.46117678462E+02  0.20039815145E+03  0.17269055759E+03 0.  0.
        -24    2    5    5    0    0 -0.73428248311E+01 -0.11124374088E+03 -0.79438977574E+02  0.15845261161E+03  0.79797192985E+02 0.  0.
          5    1    3    3  501    0  0.79953770238E+01 -0.34984990902E+02 -0.10223773387E+03  0.10845515142E+03  0.47000000000E+01 0. -1.
        -13    1    4    4    0    0 -0.17544625674E+02  0.10192911431E+03 -0.55856315415E+03  0.56805823241E+03  0.00000000000E+00 0.  1.
         14    1    4    4    0    0  0.27873989198E+02  0.21795687499E+02 -0.81483049553E+02  0.88834107368E+02  0.00000000000E+00 0. -1.
         -5    1    5    5    0  502 -0.10981915717E+02  0.22503929976E+02  0.33321299112E+02  0.41945539831E+02  0.47000000000E+01 0.  1.
         13    1    6    6    0    0 -0.19453270347E+02 -0.11791111856E+03 -0.57737362747E+02  0.13272175656E+03  0.00000000000E+00 0. -1.
        -14    1    6    6    0    0  0.12110445516E+02  0.66673776814E+01 -0.21701614827E+02  0.25730855055E+02  0.00000000000E+00 0.  1.
</event>
<event>
12    1  0.8461994E-002  0.1796428E+03  0.7818608E-02  0.1168317E+00
         21   -1    0    0  503  502  0.00000000000E+00  0.00000000000E+00  0.19166984523E+03  0.19166984523E+03  0.00000000000E+00 0.  1.
         21   -1    0    0  501  503 -0.00000000000E+00 -0.00000000000E+00 -0.18224707579E+03  0.18224707579E+03  0.00000000000E+00 0.  1.
          6    2    1    2  501    0  0.49813621656E+02 -0.13162813406E+02  0.57482431077E+02  0.18795657877E+03  0.17137324488E+03 0.  0.
         24    2    3    3    0    0  0.67370067661E+02 -0.33604301905E+02 -0.15074539345E+02  0.11041505953E+03  0.79349029685E+02 0.  0.
         -6    2    1    2    0  502 -0.49813621656E+02  0.13162813406E+02 -0.48059661631E+02  0.18596034226E+03  0.17209550040E+03 0.  0.
        -24    2    5    5    0    0 -0.21082697645E+02 -0.11640178442E+02  0.35823933473E+02  0.93769225945E+02  0.83242655116E+02 0.  0.
          5    1    3    3  501    0 -0.17556446005E+02  0.20441488499E+02  0.72556970422E+02  0.77541519235E+02  0.47000000000E+01 0. -1.
        -11    1    4    4    0    0  0.23406581542E+02 -0.25895813499E+02  0.30696608446E+02  0.46483792727E+02  0.00000000000E+00 0.  1.
         12    1    4    4    0    0  0.43963486119E+02 -0.77084884059E+01 -0.45771147791E+02  0.63931266805E+02  0.00000000000E+00 0. -1.
         -5    1    5    5    0  502 -0.28730924011E+02  0.24802991848E+02 -0.83883595104E+02  0.92191116311E+02  0.47000000000E+01 0.  1.
         11    1    6    6    0    0 -0.13165869587E+02 -0.47325835197E+02  0.27437422385E+02  0.56266214962E+02  0.00000000000E+00 0. -1.
        -12    1    6    6    0    0 -0.79168280578E+01  0.35685656755E+02  0.83865110876E+01  0.37503010983E+02  0.00000000000E+00 0.  1.
</event>
<event>
12    1  0.8461994E-002  0.1797807E+03  0.7818608E-02  0.1168219E+00
         21   -1    0    0  501  502  0.00000000000E+00  0.00000000000E+00  0.10488880633E+03  0.10488880633E+03  0.00000000000E+00 0. -1.
         21   -1    0    0  502  503 -0.00000000000E+00 -0.00000000000E+00 -0.36685688059E+03  0.36685688059E+03  0.00000000000E+00 0. -1.
         -6    2    1    2    0  503  0.41536394555E+02 -0.30575250778E+02 -0.35735087726E+02  0.18329779400E+03  0.17222359524E+03 0.  0.
        -24    2    3    3    0    0 -0.19126068468E+02  0.29752040536E+02  0.80482915672E+01  0.87077261889E+02  0.79162390880E+02 0.  0.
          6    2    1    2  501    0 -0.41536394555E+02  0.30575250778E+02 -0.22623298653E+03  0.28844789293E+03  0.17134965628E+03 0.  0.
         24    2    5    5    0    0 -0.29111846674E+02 -0.39862237674E+02 -0.75906128810E+02  0.12190641665E+03  0.81626811892E+02 0.  0.
          5    1    5    5  501    0 -0.12424547881E+02  0.70437488451E+02 -0.15032685772E+03  0.16654147628E+03  0.47000000000E+01 0. -1.
        -11    1    6    6    0    0 -0.43833306702E+02 -0.29122468175E+02 -0.10051553524E+02  0.53577146782E+02  0.00000000000E+00 0.  1.
         12    1    6    6    0    0  0.14721460027E+02 -0.10739769499E+02 -0.65854575286E+02  0.68329269866E+02  0.00000000000E+00 0. -1.
         -5    1    3    3    0  503  0.60662463023E+02 -0.60327291314E+02 -0.43783379293E+02  0.96220532110E+02  0.47000000000E+01 0.  1.
         11    1    4    4    0    0 -0.19881873318E+02 -0.46436920329E+01  0.36903225419E+02  0.42174646514E+02  0.00000000000E+00 0. -1.
        -12    1    4    4    0    0  0.75580484992E+00  0.34395732569E+02 -0.28854933851E+02  0.44902615375E+02  0.00000000000E+00 0.  1.
</event>
<event>
12    1  0.8461994E-002  0.1769074E+03  0.7818608E-02  0.1171282E+00
         21   -1    0    0  503  502  0.00000000000E+00  0.00000000000E+00  0.20451096688E+03  0.20451096688E+03  0.00000000000E+00 0.  1.
         21   -1    0    0  501  503 -0.00000000000E+00 -0.00000000000E+00 -0.24043183235E+03  0.24043183235E+03  0.00000000000E+00 0.  1.
          6    2    1    2  501    0  0.25804086714E+02 -0.28271150516E+02 -0.15334907887E+03  0.23411997442E+03  0.17271685960E+03 0.  0.
         24    2    3    3    0    0  0.61575102635E+02 -0.66086833539E+02 -0.10269463122E+03  0.16133567303E+03  0.85580659491E+02 0.  0.
         -6    2    1    2    0  502 -0.25804086714E+02  0.28271150516E+02  0.11742821340E+03  0.21082282481E+03  0.17085598998E+03 0.  0.
        -24    2    5    5    0    0  0.45282856194E+02 -0.31689498797E+01  0.39590764715E+02  0.10072018277E+03  0.80725133992E+02 0.  0.
          5    1    3    3  501    0 -0.35771015920E+02  0.37815683024E+02 -0.50654447650E+02  0.72784301393E+02  0.47000000000E+01 0. -1.
        -11    1    4    4    0    0  0.34994622298E+01  0.18532006166E+02 -0.47051551014E+01  0.19437591748E+02  0.00000000000E+00 0.  1.
         12    1    4    4    0    0  0.58075640405E+02 -0.84618839705E+02 -0.97989476119E+02  0.14189808128E+03  0.00000000000E+00 0. -1.
         -5    1    5    5    0  502 -0.71086942909E+02  0.31440100395E+02  0.77837448689E+02  0.11010264204E+03  0.47000000000E+01 0.  1.
         13    1    6    6    0    0  0.50082351046E+02 -0.13356143777E+02  0.58842964188E+02  0.78416343305E+02  0.00000000000E+00 0. -1.
        -14    1    6    6    0    0 -0.47994948521E+01  0.10187193897E+02 -0.19252199473E+02  0.22303839465E+02  0.00000000000E+00 0.  1.
</event>
<event>
12    1  0.8461994E-002  0.1790615E+03  0.7818608E-02  0.1168820E+00
         21   -1    0    0  501  502  0.00000000000E+00  0.00000000000E+00  0.12658696755E+03  0.12658696755E+03  0.00000000000E+00 0.  1.
         21   -1    0    0  502  503 -0.00000000000E+00 -0.00000000000E+00 -0.28041622841E+03  0.28041622841E+03  0.00000000000E+00 0.  1.
         -6    2    1    2    0  503 -0.47795751182E+02 -0.31046778139E+01 -0.12993454143E+02  0.17953234330E+03  0.17253683545E+03 0.  0.
        -24    2    3    3    0    0  0.37137080428E+02  0.16069189045E+02  0.80101771371E+01  0.89841398484E+02  0.79811856039E+02 0.  0.
          6    2    1    2  501    0  0.47795751182E+02  0.31046778139E+01 -0.14083580671E+03  0.22747085266E+03  0.17208774361E+03 0.  0.
         24    2    5    5    0    0 -0.21398683645E+02 -0.48087249779E+02 -0.68788190313E+02  0.11512570461E+03  0.75840790360E+02 0.  0.
          5    1    5    5  501    0  0.69194434827E+02  0.51191927593E+02 -0.72047616396E+02  0.11234514805E+03  0.47000000000E+01 0. -1.
        -13    1    6    6    0    0  0.18208097764E+02 -0.43566047966E+02 -0.17933542951E+02  0.50508883598E+02  0.00000000000E+00 0.  1.
         14    1    6    6    0    0 -0.39606781409E+02 -0.45212018129E+01 -0.50854647362E+02  0.64616821012E+02  0.00000000000E+00 0. -1.
         -5    1    3    3    0  503 -0.84932831610E+02 -0.19173866859E+02 -0.21003631281E+02  0.89690944819E+02  0.47000000000E+01 0.  1.
         11    1    4    4    0    0  0.31485937480E+01 -0.17890608985E+02  0.31498042629E+02  0.36360888629E+02  0.00000000000E+00 0. -1.
        -12    1    4    4    0    0  0.33988486680E+02  0.33959798029E+02 -0.23487865492E+02  0.53480509855E+02  0.00000000000E+00 0.  1.
</event>
<event>
12    1  0.8461994E-002  0.1778111E+03  0.7818608E-02  0.1170879E+00
         21   -1    0    0  503  502  0.00000000000E+00  0.00000000000E+00  0.15970074080E+03  0.15970074080E+03  0.00000000000E+00 0.  1.
         21   -1    0    0  501  503 -0.00000000000E+00 -0.00000000000E+00 -0.25253246969E+03  0.25253246969E+03  0.00000000000E+00 0.  1.
          6    2    1    2  501    0  0.20752551378E+02 -0.75257602558E+01 -0.14544013845E+03  0.22680285733E+03  0.17262501779E+03 0.  0.
         24    2    3    3    0    0  0.28729466779E+02  0.39995664792E+02 -0.15138273806E+03  0.17802456802E+03  0.79693023356E+02 0.  0.
         -6    2    1    2    0  502 -0.20752551378E+02  0.75257602558E+01  0.52608409553E+02  0.18543035316E+03  0.17643544332E+03 0.  0.
        -24    2    5    5    0    0 -0.16548367876E+02 -0.49778805380E+02  0.77701560728E+02  0.12255552005E+03  0.78933801453E+02 0.  0.
          5    1    3    3  501    0 -0.79769154009E+01 -0.47521425048E+02  0.59425996155E+01  0.48778289311E+02  0.47000000000E+01 0. -1.
        -13    1    4    4    0    0 -0.26510491131E+02  0.20081533456E+02 -0.71750771900E+02  0.79083799821E+02  0.00000000000E+00 0.  1.
         14    1    4    4    0    0  0.55239957909E+02  0.19914131336E+02 -0.79631966165E+02  0.98940768200E+02  0.00000000000E+00 0. -1.
         -5    1    5    5    0  502 -0.42041835022E+01  0.57304565636E+02 -0.25093151174E+02  0.62874833101E+02  0.47000000000E+01 0.  1.
         13    1    6    6    0    0  0.35420066827E+00 -0.39577361856E+02 -0.27909541525E+01  0.39677228414E+02  0.00000000000E+00 0. -1.
        -14    1    6    6    0    0 -0.16902568544E+02 -0.10201443525E+02  0.80492514880E+02  0.82878291640E+02  0.00000000000E+00 0.  1.
</event>
<event>
12    1  0.8461994E-002  0.1819786E+03  0.7818608E-02  0.1167335E+00
         21   -1    0    0  501  502  0.00000000000E+00  0.00000000000E+00  0.44489916435E+02  0.44489916435E+02  0.00000000000E+00 0. -1.
         21   -1    0    0  502  503 -0.00000000000E+00 -0.00000000000E+00 -0.11718251163E+04  0.11718251163E+04  0.00000000000E+00 0. -1.
         -6    2    1    2    0  503 -0.12011612558E+02 -0.37674934019E+02 -0.93538720570E+03  0.95181503627E+03  0.17157785169E+03 0.  0.
        -24    2    3    3    0    0 -0.20406259340E+01  0.33508594665E+02 -0.67511379258E+03  0.68175790360E+03  0.88815629898E+02 0.  0.
          6    2    1    2  501    0  0.12011612558E+02  0.37674934019E+02 -0.19194799416E+03  0.26449999646E+03  0.17763033574E+03 0.  0.
         24    2    5    5    0    0  0.33300074337E+02 -0.42003570394E+02 -0.87604773525E+02  0.13141558579E+03  0.81989419856E+02 0.  0.
          5    1    5    5  501    0 -0.21288461779E+02  0.79678504413E+02 -0.10434322063E+03  0.13308441067E+03  0.47000000000E+01 0. -1.
        -11    1    6    6    0    0 -0.44522697198E+01  0.20306049230E+02 -0.52108364836E+01  0.21431545857E+02  0.00000000000E+00 0.  1.
         12    1    6    6    0    0  0.37752344057E+02 -0.62309619624E+02 -0.82393937042E+02  0.10998403994E+03  0.00000000000E+00 0. -1.
         -5    1    3    3    0  503 -0.99709866243E+01 -0.71183528683E+02 -0.26027341312E+03  0.27005713267E+03  0.47000000000E+01 0.  1.
         11    1    4    4    0    0 -0.10258348383E+02 -0.26557180665E+02 -0.11941222299E+03  0.12275909969E+03  0.00000000000E+00 0. -1.
        -12    1    4    4    0    0  0.82177224485E+01  0.60065775330E+02 -0.55570156959E+03  0.55899880391E+03  0.00000000000E+00 0.  1.
</event>
<event>
12    1  0.8461994E-002  0.1744979E+03  0.7818608E-02  0.1175013E+00
         21   -1    0    0  501  502  0.00000000000E+00  0.00000000000E+00  0.10705376562E+03  0.10705376562E+03  0.00000000000E+00 0. -1.
         21   -1    0    0  502  503 -0.00000000000E+00 -0.00000000000E+00 -0.29056402740E+03  0.29056402740E+03  0.00000000000E+00 0. -1.
         -6    2    1    2    0  503  0.26094672365E+02  0.14698737789E+01 -0.41557407464E+02  0.17267308334E+03  0.16554722330E+03 0.  0.
        -24    2    3    3    0    0  0.47354204141E+02  0.17036683158E+02  0.27190507008E+02  0.98898704389E+02  0.80678131086E+02 0.  0.
          6    2    1    2  501    0 -0.26094672365E+02 -0.14698737789E+01 -0.14195285432E+03  0.22494470968E+03  0.17252946736E+03 0.  0.
         24    2    5    5    0    0 -0.45224569709E+02 -0.15039055643E+01 -0.16860952018E+03  0.19179924294E+03  0.79437118909E+02 0.  0.
          5    1    5    5  501    0  0.19129897344E+02  0.34031785389E-01  0.26656665859E+02  0.33145466738E+02  0.47000000000E+01 0. -1.
        -11    1    6    6    0    0  0.69404670899E+00 -0.32465282311E+02 -0.38324487802E+02  0.50231888494E+02  0.00000000000E+00 0.  1.
         12    1    6    6    0    0 -0.45918616418E+02  0.30961376747E+02 -0.13028503238E+03  0.14156735445E+03  0.00000000000E+00 0. -1.
         -5    1    3    3    0  503 -0.21259531777E+02 -0.15566809379E+02 -0.68747914473E+02  0.73774378953E+02  0.47000000000E+01 0.  1.
         13    1    4    4    0    0 -0.11146055814E+02 -0.20061256646E+02  0.17695250342E+02  0.28979483486E+02  0.00000000000E+00 0. -1.
        -14    1    4    4    0    0  0.58500259955E+02  0.37097939804E+02  0.94952566659E+01  0.69919220903E+02  0.00000000000E+00 0.  1.
</event>
<event>
12    1  0.8461994E-002  0.1829027E+03  0.7818608E-02  0.1169275E+00
         21   -1    0    0  501  502  0.00000000000E+00  0.00000000000E+00  0.25416558645E+03  0.25416558645E+03  0.00000000000E+00 0. -1.
         21   -1    0    0  502  503 -0.00000000000E+00 -0.00000000000E+00 -0.13631441969E+03  0.13631441969E+03  0.00000000000E+00 0. -1.
         -6    2    1    2    0  503  0.17289705047E+02 -0.59019800948E+02 -0.11793905272E+02  0.16628985282E+03  0.15404852530E+03 0.  0.
        -24    2    3    3    0    0 -0.33922198560E+02 -0.80157859859E+01 -0.21933062577E+02  0.93153260585E+02  0.83555384887E+02 0.  0.
          6    2    1    2  501    0 -0.17289705047E+02  0.59019800948E+02  0.12964507203E+03  0.22419015332E+03  0.17225303869E+03 0.  0.
         24    2    5    5    0    0 -0.74143273361E+02  0.65064951764E+02  0.90458720646E+02  0.15471690513E+03  0.77613579097E+02 0.  0.
          5    1    5    5  501    0  0.56853568314E+02 -0.60451508156E+01  0.39186351388E+02  0.69473248186E+02  0.47000000000E+01 0. -1.
        -11    1    6    6    0    0 -0.38915173239E+02  0.41579442331E+02  0.23900794221E+01  0.56999589581E+02  0.00000000000E+00 0.  1.
         12    1    6    6    0    0 -0.35228100122E+02  0.23485509433E+02  0.88068641224E+02  0.97717315551E+02  0.00000000000E+00 0. -1.
         -5    1    3    3    0  503  0.51211903606E+02 -0.51004014962E+02  0.10139157305E+02  0.73136592238E+02  0.47000000000E+01 0.  1.
         11    1    4    4    0    0  0.49573642231E+01 -0.17902289966E+02 -0.43719532241E+02  0.47502262529E+02  0.00000000000E+00 0. -1.
        -12    1    4    4    0    0 -0.38879562783E+02  0.98865039798E+01  0.21786469664E+02  0.45650998056E+02  0.00000000000E+00 0.  1.
</event>
<event>
12    1  0.8461994E-002  0.1898212E+03  0.7818608E-02  0.1158628E+00
         21   -1    0    0  503  502  0.00000000000E+00  0.00000000000E+00  0.42010863479E+03  0.42010863479E+03  0.00000000000E+00 0.  1.
         21   -1    0    0  501  503 -0.00000000000E+00 -0.00000000000E+00 -0.86185695260E+02  0.86185695260E+02  0.00000000000E+00 0.  1.
          6    2    1    2  501    0  0.29145881203E+02 -0.72078072946E+02  0.14913319533E+03  0.24139761576E+03  0.17316861134E+03 0.  0.
         24    2    3    3    0    0  0.47632358061E+02  0.64851374065E+01  0.30169596101E+02  0.97563142183E+02  0.79356560171E+02 0.  0.
         -6    2    1    2    0  502 -0.29145881203E+02  0.72078072946E+02  0.18478974420E+03  0.26489671429E+03  0.17314239426E+03 0.  0.
        -24    2    5    5    0    0 -0.45266916715E+02  0.37314696264E+02  0.27512757791E+02  0.10295067205E+03  0.80002554507E+02 0.  0.
          5    1    3    3  501    0 -0.18486476858E+02 -0.78563210352E+02  0.11896359923E+03  0.14383447358E+03  0.47000000000E+01 0. -1.
        -13    1    4    4    0    0  0.24772719250E+02 -0.36112188932E+02  0.20086471124E+02  0.48179291513E+02  0.00000000000E+00 0.  1.
         14    1    4    4    0    0  0.22859638810E+02  0.42597326338E+02  0.10083124977E+02  0.49383850670E+02  0.00000000000E+00 0. -1.
         -5    1    5    5    0  502  0.16121035512E+02  0.34763376682E+02  0.15727698641E+03  0.16194604225E+03  0.47000000000E+01 0.  1.
         13    1    6    6    0    0 -0.25681808860E+02 -0.12551418280E+02  0.38807504733E+02  0.48198711920E+02  0.00000000000E+00 0. -1.
        -14    1    6    6    0    0 -0.19585107855E+02  0.49866114543E+02 -0.11294746941E+02  0.54751960127E+02  0.00000000000E+00 0.  1.
</event>
<event>
12    1  0.8461994E-002  0.2103690E+03  0.7818608E-02  0.1141517E+00
         21   -1    0    0  501  502  0.00000000000E+00  0.00000000000E+00  0.10222655616E+04  0.10222655616E+04  0.00000000000E+00 0. -1.
         21   -1    0    0  502  503 -0.00000000000E+00 -0.00000000000E+00 -0.43058580515E+02  0.43058580515E+02  0.00000000000E+00 0. -1.
         -6    2    1    2    0  503  0.82673329514E+02  0.88849445150E+02  0.50243990700E+03  0.54470263896E+03  0.17183131677E+03 0.  0.
        -24    2    3    3    0    0  0.60822873044E+02  0.12097234218E+03  0.46341243833E+03  0.48943459872E+03  0.80382889752E+02 0.  0.
          6    2    1    2  501    0 -0.82673329514E+02 -0.88849445150E+02  0.47676707406E+03  0.52062150314E+03  0.17032558029E+03 0.  0.
         24    2    5    5    0    0  0.11425679520E+02 -0.70401078215E+02  0.19576443488E+03  0.22367110497E+03  0.81352266522E+02 0.  0.
          5    1    5    5  501    0 -0.94099009034E+02 -0.18448366935E+02  0.28100263918E+03  0.29695039816E+03  0.47000000000E+01 0. -1.
        -11    1    6    6    0    0  0.31538253688E+02 -0.11260916159E+02  0.24856253681E+02  0.41704952050E+02  0.00000000000E+00 0.  1.
         12    1    6    6    0    0 -0.20112574168E+02 -0.59140162056E+02  0.17090818120E+03  0.18196615292E+03  0.00000000000E+00 0. -1.
         -5    1    3    3    0  503  0.21850456470E+02 -0.32122897026E+02  0.39027468670E+02  0.55268040240E+02  0.47000000000E+01 0.  1.
         13    1    4    4    0    0  0.44204754826E+02  0.26400827843E+02  0.25246010641E+03  0.25765707712E+03  0.00000000000E+00 0. -1.
        -14    1    4    4    0    0  0.16618118218E+02  0.94571514332E+02  0.21095233192E+03  0.23177752160E+03  0.00000000000E+00 0.  1.
</event>
<event>
12    1  0.8461994E-002  0.1972243E+03  0.7818608E-02  0.1152123E+00
         21   -1    0    0  501  502  0.00000000000E+00  0.00000000000E+00  0.40941870853E+03  0.40941870853E+03  0.00000000000E+00 0. -1.
         21   -1    0    0  502  503 -0.00000000000E+00 -0.00000000000E+00 -0.11165332790E+03  0.11165332790E+03  0.00000000000E+00 0. -1.
         -6    2    1    2    0  503 -0.18557869878E+02  0.94658679304E+02  0.48113909024E+02  0.20291598737E+03  0.17191651924E+03 0.  0.
        -24    2    3    3    0    0 -0.58992626973E+02  0.42872314880E+02  0.74484084546E+02  0.13196337446E+03  0.80921492370E+02 0.  0.
          6    2    1    2  501    0  0.18557869878E+02 -0.94658679304E+02  0.24965147160E+03  0.31815604906E+03  0.17202544631E+03 0.  0.
         24    2    5    5    0    0  0.10536075217E+02 -0.79738642768E+02  0.26928718844E+03  0.29180063110E+03  0.78503238287E+02 0.  0.
          5    1    5    5  501    0  0.80217946609E+01 -0.14920036536E+02 -0.19635716842E+02  0.26355417957E+02  0.47000000000E+01 0. -1.
        -11    1    6    6    0    0 -0.22111663998E+02 -0.42768163827E+01  0.11281633073E+03  0.11504234578E+03  0.00000000000E+00 0.  1.
         12    1    6    6    0    0  0.32647739214E+02 -0.75461826385E+02  0.15647085771E+03  0.17675828532E+03  0.00000000000E+00 0. -1.
         -5    1    3    3    0  503  0.40434757095E+02  0.51786364424E+02 -0.26370175523E+02  0.70952612910E+02  0.47000000000E+01 0.  1.
         11    1    4    4    0    0  0.81934330949E+01  0.38869501094E+02  0.16093916193E+02  0.42860058324E+02  0.00000000000E+00 0. -1.
        -12    1    4    4    0    0 -0.67186060068E+02  0.40028137858E+01  0.58390168354E+02  0.89103316133E+02  0.00000000000E+00 0.  1.
</event>
<event>
12    1  0.8461994E-002  0.2000553E+03  0.7818608E-02  0.1149775E+00
         21   -1    0    0  503  502  0.00000000000E+00  0.00000000000E+00  0.66965316370E+02  0.66965316370E+02  0.00000000000E+00 0. -1.
         21   -1    0    0  501  503 -0.00000000000E+00 -0.00000000000E+00 -0.60974374097E+03  0.60974374097E+03  0.00000000000E+00 0. -1.
          6    2    1    2  501    0 -0.97440798578E+02  0.24315297489E+02 -0.32153218037E+03  0.37868861499E+03  0.17302075365E+03 0.  0.
         24    2    3    3    0    0 -0.53100891564E+02  0.34564406817E+02 -0.31690883790E+03  0.33270452110E+03  0.79035965976E+02 0.  0.
         -6    2    1    2    0  502  0.97440798578E+02 -0.24315297489E+02 -0.22124624422E+03  0.29802044234E+03  0.17256981356E+03 0.  0.
        -24    2    5    5    0    0  0.12534240102E+03  0.15435443258E+02 -0.18366894064E+03  0.23643501750E+03  0.78855991158E+02 0.  0.
          5    1    3    3  501    0 -0.44339907014E+02 -0.10249109328E+02 -0.46233424763E+01  0.45984093898E+02  0.47000000000E+01 0. -1.
        -11    1    4    4    0    0  0.17087086685E+02  0.19326682432E+02 -0.12863555288E+03  0.13119677835E+03  0.00000000000E+00 0.  1.
         12    1    4    4    0    0 -0.70187978249E+02  0.15237724386E+02 -0.18827328502E+03  0.20150774275E+03  0.00000000000E+00 0. -1.
         -5    1    5    5    0  502 -0.27901602440E+02 -0.39750740748E+02 -0.37577303583E+02  0.61585424844E+02  0.47000000000E+01 0.  1.
         11    1    6    6    0    0  0.55590569790E+02  0.45288726834E+02 -0.10493576125E+03  0.12709403690E+03  0.00000000000E+00 0. -1.
        -12    1    6    6    0    0  0.69751831227E+02 -0.29853283576E+02 -0.78733179393E+02  0.10934098059E+03  0.00000000000E+00 0.  1.
</event>
<event>
12    1  0.8461994E-002  0.2329117E+03  0.7818608E-02  0.1124615E+00
         21   -1    0    0  501  502  0.00000000000E+00  0.00000000000E+00  0.21184628863E+03  0.21184628863E+03  0.00000000000E+00 0.  1.
         21   -1    0    0  502  503 -0.00000000000E+00 -0.00000000000E+00 -0.63864922598E+03  0.63864922598E+03  0.00000000000E+00 0.  1.
         -6    2    1    2    0  503 -0.15488287386E+03  0.32658872610E+02 -0.54254751282E+03  0.59040962792E+03  0.17079349664E+03 0.  0.
        -24    2    3    3    0    0 -0.94703518008E+02  0.67131509735E+02 -0.22553804640E+03  0.26586839883E+03  0.79644203792E+02 0.  0.
          6    2    1    2  501    0  0.15488287386E+03 -0.32658872610E+02  0.11574457547E+03  0.26008588670E+03  0.17085828963E+03 0.  0.
         24    2    5    5    0    0  0.95527762756E+02  0.99687531853E+01  0.13456842563E+03  0.18447787767E+03  0.81844344183E+02 0.  0.
          5    1    5    5  501    0  0.59355111102E+02 -0.42627625795E+02 -0.18823850164E+02  0.75608009033E+02  0.47000000000E+01 0. -1.
        -11    1    6    6    0    0  0.13352452488E+02 -0.30461747794E+02  0.24604295842E+02  0.41371215114E+02  0.00000000000E+00 0.  1.
         12    1    6    6    0    0  0.82175310268E+02  0.40430500979E+02  0.10996412979E+03  0.14310666255E+03  0.00000000000E+00 0. -1.
         -5    1    3    3    0  503 -0.60179355851E+02 -0.34472637125E+02 -0.31700946641E+03  0.32454122909E+03  0.47000000000E+01 0.  1.
         13    1    4    4    0    0 -0.11906736095E+02 -0.80557401131E+01 -0.85256804741E+02  0.86460326554E+02  0.00000000000E+00 0. -1.
        -14    1    4    4    0    0 -0.82796781912E+02  0.75187249848E+02 -0.14028124166E+03  0.17940807227E+03  0.00000000000E+00 0.  1.
</event>
<event>
12    1  0.8461994E-002  0.1960235E+03  0.7818608E-02  0.1153911E+00
         21   -1    0    0  501  502  0.00000000000E+00  0.00000000000E+00  0.14231356984E+04  0.14231356984E+04  0.00000000000E+00 0. -1.
         21   -1    0    0  502  503 -0.00000000000E+00 -0.00000000000E+00 -0.40574858205E+02  0.40574858205E+02  0.00000000000E+00 0. -1.
         -6    2    1    2    0  503  0.74792850091E+02 -0.38654237487E+02  0.26460052583E+03  0.32930022471E+03  0.17702282120E+03 0.  0.
        -24    2    3    3    0    0  0.23592876361E+02 -0.77237922612E+02  0.23289495062E+03  0.25762406712E+03  0.74885121563E+02 0.  0.
          6    2    1    2  501    0 -0.74792850091E+02  0.38654237487E+02  0.11179603143E+04  0.11344103318E+04  0.17309943991E+03 0.  0.
         24    2    5    5    0    0 -0.71212235278E+02 -0.38149810681E+02  0.55322475806E+03  0.56444540211E+03  0.77552488862E+02 0.  0.
          5    1    5    5  501    0 -0.35806148131E+01  0.76804048169E+02  0.56473555626E+03  0.56996492973E+03  0.47000000000E+01 0. -1.
        -11    1    6    6    0    0  0.38204785035E+01 -0.35854482115E+00 -0.93826782967E+00  0.39503109884E+01  0.00000000000E+00 0.  1.
         12    1    6    6    0    0 -0.75032713781E+02 -0.37791265860E+02  0.55416302589E+03  0.56049509113E+03  0.00000000000E+00 0. -1.
         -5    1    3    3    0  503  0.51199973730E+02  0.38583685124E+02  0.31705575206E+02  0.71676157590E+02  0.47000000000E+01 0.  1.
         13    1    4    4    0    0  0.45358788398E+02 -0.36003944144E+02  0.87436366732E+02  0.10487526832E+03  0.00000000000E+00 0. -1.
        -14    1    4    4    0    0 -0.21765912038E+02 -0.41233978468E+02  0.14545858389E+03  0.15274879880E+03  0.00000000000E+00 0.  1.
</event>
<event>
12    1  0.8461994E-002  0.1867998E+03  0.7818608E-02  0.1161731E+00
         21   -1    0    0  501  502  0.00000000000E+00  0.00000000000E+00  0.52767707723E+02  0.52767707723E+02  0.00000000000E+00 0. -1.
         21   -1    0    0  502  503 -0.00000000000E+00 -0.00000000000E+00 -0.91825589338E+03  0.91825589338E+03  0.00000000000E+00 0. -1.
         -6    2    1    2    0  503 -0.65947566949E+02 -0.30782961314E+02 -0.69350608796E+03  0.71822339476E+03  0.17203917707E+03 0.  0.
        -24    2    3    3    0    0 -0.66871894089E+02  0.40257137348E+02 -0.33646528586E+03  0.35415228308E+03  0.78246173657E+02 0.  0.
          6    2    1    2  501    0  0.65947566949E+02  0.30782961314E+02 -0.17198209769E+03  0.25280020634E+03  0.17039198956E+03 0.  0.
         24    2    5    5    0    0 -0.12772228873E+02  0.16246987711E+02 -0.14827995650E+03  0.16918213246E+03  0.78794377987E+02 0.  0.
          5    1    5    5  501    0  0.78719795822E+02  0.14535973603E+02 -0.23702141191E+02  0.83618073883E+02  0.47000000000E+01 0. -1.
        -13    1    6    6    0    0  0.29202564232E+02  0.23911886021E+02 -0.83209899933E+02  0.91369882881E+02  0.00000000000E+00 0.  1.
         14    1    6    6    0    0 -0.41974793104E+02 -0.76648983097E+01 -0.65070056571E+02  0.77812249578E+02  0.00000000000E+00 0. -1.
         -5    1    3    3    0  503  0.92432713976E+00 -0.71040098662E+02 -0.35704080210E+03  0.36407111169E+03  0.47000000000E+01 0.  1.
         13    1    4    4    0    0 -0.80193457309E+02  0.26518534648E+02 -0.31119345721E+03  0.32245246329E+03  0.00000000000E+00 0. -1.
        -14    1    4    4    0    0  0.13321563220E+02  0.13738602700E+02 -0.25271828655E+02  0.31699819784E+02  0.00000000000E+00 0.  1.
</event>
<event>
12    1  0.8461994E-002  0.2216162E+03  0.7818608E-02  0.1132703E+00
         21   -1    0    0  501  502  0.00000000000E+00  0.00000000000E+00  0.34976236242E+03  0.34976236242E+03  0.00000000000E+00 0. -1.
         21   -1    0    0  502  503 -0.00000000000E+00 -0.00000000000E+00 -0.19283190960E+04  0.19283190960E+04  0.00000000000E+00 0.  1.
         -6    2    1    2    0  503 -0.11994927786E+03 -0.71041312551E+02 -0.18860968612E+04  0.18990721700E+04  0.17227605633E+03 0.  0.
        -24    2    3    3    0    0 -0.48779206789E+02  0.95250098830E+01 -0.12776872896E+04  0.12812207250E+04  0.81065400476E+02 0.  0.
          6    2    1    2  501    0  0.11994927786E+03  0.71041312551E+02  0.30754012760E+03  0.37900928847E+03  0.17214067884E+03 0.  0.
         24    2    5    5    0    0  0.10747800479E+02  0.36344238798E+02  0.61671689020E+02  0.10771198166E+03  0.79762490295E+02 0.  0.
          5    1    5    5  501    0  0.10920147738E+03  0.34697073753E+02  0.24586843858E+03  0.27129730681E+03  0.47000000000E+01 0. -1.
        -13    1    6    6    0    0  0.17583254362E+01 -0.24373954485E+02  0.67621300600E+01  0.25355625974E+02  0.00000000000E+00 0.  1.
         14    1    6    6    0    0  0.89894750430E+01  0.60718193283E+02  0.54909558960E+02  0.82356355689E+02  0.00000000000E+00 0. -1.
         -5    1    3    3    0  503 -0.71170071071E+02 -0.80566322434E+02 -0.60840957160E+03  0.61785144504E+03  0.47000000000E+01 0.  1.
         13    1    4    4    0    0  0.56565095497E+01 -0.25606922789E+02 -0.22126141893E+03  0.22281006733E+03  0.00000000000E+00 0. -1.
        -14    1    4    4    0    0 -0.54435716339E+02  0.35131932672E+02 -0.10564258707E+04  0.10584106576E+04  0.00000000000E+00 0.  1.
</event>
<event>
12    1  0.8461994E-002  0.2024108E+03  0.7818608E-02  0.1147959E+00
         21   -1    0    0  501  502  0.00000000000E+00  0.00000000000E+00  0.55429364970E+03  0.55429364970E+03  0.00000000000E+00 0.  1.
         21   -1    0    0  502  503 -0.00000000000E+00 -0.00000000000E+00 -0.89807205172E+02  0.89807205172E+02  0.00000000000E+00 0.  1.
         -6    2    1    2    0  503  0.27263407329E+02 -0.10073340153E+03  0.95538559748E+02  0.22382525448E+03  0.17343476174E+03 0.  0.
        -24    2    3    3    0    0  0.25053554632E+02 -0.41401513710E+02 -0.18893185045E+02  0.94821880186E+02  0.79325094287E+02 0.  0.
          6    2    1    2  501    0 -0.27263407329E+02  0.10073340153E+03  0.36894788478E+03  0.42027560039E+03  0.17210034003E+03 0.  0.
         24    2    5    5    0    0 -0.55447811423E+02  0.12863804595E+03  0.28428272203E+03  0.32666304997E+03  0.79182545497E+02 0.  0.
          5    1    5    5  501    0  0.28184404094E+02 -0.27904644417E+02  0.84665162746E+02  0.93612550425E+02  0.47000000000E+01 0. -1.
        -13    1    6    6    0    0 -0.32083982972E+02  0.14231302847E+02  0.12056739867E+03  0.12557232803E+03  0.00000000000E+00 0.  1.
         14    1    6    6    0    0 -0.23363828451E+02  0.11440674310E+03  0.16371532336E+03  0.20109072194E+03  0.00000000000E+00 0. -1.
         -5    1    3    3    0  503  0.22098526965E+01 -0.59331887824E+02  0.11443174479E+03  0.12900337429E+03  0.47000000000E+01 0.  1.
         13    1    4    4    0    0  0.18425571878E+02  0.18613500300E+02 -0.22225340817E+02  0.34350107232E+02  0.00000000000E+00 0. -1.
        -14    1    4    4    0    0  0.66279827544E+01 -0.60015014010E+02  0.33321557720E+01  0.60471772954E+02  0.00000000000E+00 0.  1.
</event>
<event>
12    1  0.8461994E-002  0.2158807E+03  0.7818608E-02  0.1140183E+00
         21   -1    0    0  503  502  0.00000000000E+00  0.00000000000E+00  0.69357074168E+03  0.69357074168E+03  0.00000000000E+00 0.  1.
         21   -1    0    0  501  503 -0.00000000000E+00 -0.00000000000E+00 -0.62589254976E+02  0.62589254976E+02  0.00000000000E+00 0.  1.
          6    2    1    2  501    0  0.58248496927E+02  0.83129711531E+02  0.27759191724E+03  0.34204811030E+03  0.17215167995E+03 0.  0.
         24    2    3    3    0    0  0.13086263386E+02  0.13755929222E+02  0.41224559941E+02  0.91560652316E+02  0.79519889537E+02 0.  0.
         -6    2    1    2    0  502 -0.58248496927E+02 -0.83129711531E+02  0.35338956947E+03  0.41411188636E+03  0.19052829261E+03 0.  0.
        -24    2    5    5    0    0 -0.72130365358E+02  0.44842318183E+01  0.10603961105E+03  0.15129445682E+03  0.80141846819E+02 0.  0.
          5    1    3    3  501    0  0.45162233541E+02  0.69373782309E+02  0.23636735730E+03  0.25048745798E+03  0.47000000000E+01 0. -1.
        -11    1    4    4    0    0  0.36153228539E+02 -0.26898750688E+01 -0.57485533431E+01  0.36706092508E+02  0.00000000000E+00 0.  1.
         12    1    4    4    0    0 -0.23066965153E+02  0.16445804291E+02  0.46973113284E+02  0.54854559808E+02  0.00000000000E+00 0. -1.
         -5    1    5    5    0  502  0.13881868431E+02 -0.87613943350E+02  0.24734995842E+03  0.26281742954E+03  0.47000000000E+01 0.  1.
         13    1    6    6    0    0 -0.55395799917E+02  0.32196450177E+02  0.99378968553E+02  0.11824333149E+03  0.00000000000E+00 0. -1.
        -14    1    6    6    0    0 -0.16734565441E+02 -0.27712218358E+02  0.66606424956E+01  0.33051125325E+02  0.00000000000E+00 0.  1.
</event>
<event>
12    1  0.8461994E-002  0.2355146E+03  0.7818608E-02  0.1126249E+00
         21   -1    0    0  503  502  0.00000000000E+00  0.00000000000E+00  0.25283251655E+03  0.25283251655E+03  0.00000000000E+00 0.  1.
         21   -1    0    0  501  503 -0.00000000000E+00 -0.00000000000E+00 -0.20958345108E+03  0.20958345108E+03  0.00000000000E+00 0. -1.
          6    2    1    2  501    0 -0.12436103427E+03  0.77819531618E+02  0.66885230969E+02  0.24482802465E+03  0.18424326633E+03 0.  0.
         24    2    3    3    0    0 -0.14573105919E+03  0.17858254373E+02  0.63832721689E+02  0.18092622071E+03  0.84280615324E+02 0.  0.
         -6    2    1    2    0  502  0.12436103427E+03 -0.77819531618E+02 -0.23636165502E+02  0.21758794297E+03  0.15894747013E+03 0.  0.
        -24    2    5    5    0    0  0.42398490463E+01 -0.30858263382E+02 -0.77612813970E+00  0.86518758335E+02  0.80713595076E+02 0.  0.
          5    1    3    3  501    0  0.21370024926E+02  0.59961277245E+02  0.30525092804E+01  0.63901803943E+02  0.47000000000E+01 0. -1.
        -11    1    4    4    0    0 -0.10057425037E+03  0.30587664542E+02  0.79132506466E+02  0.13157788051E+03  0.00000000000E+00 0.  1.
         12    1    4    4    0    0 -0.45156808828E+02 -0.12729410169E+02 -0.15299784777E+02  0.49348340205E+02  0.00000000000E+00 0. -1.
         -5    1    5    5    0  502  0.12012118522E+03 -0.46961268236E+02 -0.22860037362E+02  0.13106918464E+03  0.47000000000E+01 0.  1.
         11    1    6    6    0    0 -0.22603553197E+02  0.94927752056E+01 -0.22621985887E+02  0.33358471844E+02  0.00000000000E+00 0. -1.
        -12    1    6    6    0    0  0.26843402244E+02 -0.40351038587E+02  0.21845857748E+02  0.53160286491E+02  0.00000000000E+00 0.  1.
</event>
<event>
12    1  0.8461994E-002  0.1798051E+03  0.7818608E-02  0.1168168E+00
         21   -1    0    0  501  502  0.00000000000E+00  0.00000000000E+00  0.94421842299E+02  0.94421842299E+02  0.00000000000E+00 0.  1.
         21   -1    0    0  502  503 -0.00000000000E+00 -0.00000000000E+00 -0.34232483475E+03  0.34232483475E+03  0.00000000000E+00 0. -1.
         -6    2    1    2    0  503 -0.65938244111E+01  0.51588597857E+02 -0.13719430678E+03  0.22559203530E+03  0.17136110010E+03 0.  0.
        -24    2    3    3    0    0 -0.24149038997E+02 -0.20128198359E+02 -0.21155306296E+02  0.87974361823E+02  0.79395345582E+02 0.  0.
          6    2    1    2  501    0  0.65938244111E+01 -0.51588597857E+02 -0.11070868567E+03  0.21115464175E+03  0.17211916715E+03 0.  0.
         24    2    5    5    0    0  0.23613479520E+01  0.28499132298E+02 -0.99175371895E+02  0.12999390183E+03  0.79024576026E+02 0.  0.
          5    1    5    5  501    0  0.42324764591E+01 -0.80087730154E+02 -0.11533313774E+02  0.81160739923E+02  0.47000000000E+01 0. -1.
        -11    1    6    6    0    0  0.29741508448E+02 -0.14382078012E+02 -0.35596450369E+02  0.48564480555E+02  0.00000000000E+00 0.  1.
         12    1    6    6    0    0 -0.27380160496E+02  0.42881210310E+02 -0.63578921526E+02  0.81429421273E+02  0.00000000000E+00 0. -1.
         -5    1    3    3    0  503  0.17555214586E+02  0.71716796216E+02 -0.11603900049E+03  0.13761767348E+03  0.47000000000E+01 0.  1.
         13    1    4    4    0    0 -0.46249304817E+02  0.64018338135E+01 -0.25455227771E+02  0.53178475844E+02  0.00000000000E+00 0. -1.
        -14    1    4    4    0    0  0.22100265820E+02 -0.26530032172E+02  0.42999214749E+01  0.34795885979E+02  0.00000000000E+00 0.  1.
</event>
<event>
12    1  0.8461994E-002  0.2007887E+03  0.7818608E-02  0.1149624E+00
         21   -1    0    0  503  502  0.00000000000E+00  0.00000000000E+00  0.34853520915E+03  0.34853520915E+03  0.00000000000E+00 0. -1.
         21   -1    0    0  501  503 -0.00000000000E+00 -0.00000000000E+00 -0.19388702464E+03  0.19388702464E+03  0.00000000000E+00 0.  1.
          6    2    1    2  501    0 -0.48737338047E+02 -0.91367555893E+02 -0.96862449656E+02  0.22059354408E+03  0.16898467134E+03 0.  0.
         24    2    3    3    0    0 -0.31415542405E+02  0.12236119788E+02 -0.70582403002E+02  0.11221228615E+03  0.80455345490E+02 0.  0.
         -6    2    1    2    0  502  0.48737338047E+02  0.91367555893E+02  0.25151063417E+03  0.32182868971E+03  0.17202542843E+03 0.  0.
        -24    2    5    5    0    0  0.70969530447E+02  0.43512714244E+02  0.74903858152E+02  0.13744756382E+03  0.79694505959E+02 0.  0.
          5    1    3    3  501    0 -0.17321795642E+02 -0.10360367568E+03 -0.26280046654E+02  0.10838125793E+03  0.47000000000E+01 0. -1.
        -13    1    4    4    0    0 -0.37562965247E+02  0.20082296055E+02 -0.84772189120E+02  0.94871486871E+02  0.00000000000E+00 0.  1.
         14    1    4    4    0    0  0.61474228420E+01 -0.78461762669E+01  0.14189786118E+02  0.17340799281E+02  0.00000000000E+00 0. -1.
         -5    1    5    5    0  502 -0.22232192399E+02  0.47854841649E+02  0.17660677602E+03  0.18438112589E+03  0.47000000000E+01 0.  1.
         13    1    6    6    0    0  0.15257458651E+02  0.16166350710E+02  0.71960914201E+02  0.75316094644E+02  0.00000000000E+00 0. -1.
        -14    1    6    6    0    0  0.55712071796E+02  0.27346363534E+02  0.29429439510E+01  0.62131469172E+02  0.00000000000E+00 0.  1.
</event>
<event>
12    1  0.8461994E-002  0.1865814E+03  0.7818608E-02  0.1163408E+00
         21   -1    0    0  503  502  0.00000000000E+00  0.00000000000E+00  0.24006728240E+02  0.24006728240E+02  0.00000000000E+00 0.  1.
         21   -1    0    0  501  503 -0.00000000000E+00 -0.00000000000E+00 -0.18179199503E+04  0.18179199503E+04  0.00000000000E+00 0.  1.
          6    2    1    2  501    0 -0.45379544629E+02 -0.17795296741E+02 -0.13579023823E+04  0.13706609761E+04  0.18010179279E+03 0.  0.
         24    2    3    3    0    0 -0.23623214461E+02 -0.66583076836E+02 -0.11813789448E+04  0.11861719537E+04  0.79726595985E+02 0.  0.
         -6    2    1    2    0  502  0.45379544629E+02  0.17795296741E+02 -0.43601083977E+03  0.47126570249E+03  0.17207537388E+03 0.  0.
        -24    2    5    5    0    0  0.67983676037E+02 -0.41043217925E+02 -0.23091337731E+03  0.25664982081E+03  0.79005169168E+02 0.  0.
          5    1    3    3  501    0 -0.21756330168E+02  0.48787780096E+02 -0.17652343754E+03  0.18448902241E+03  0.47000000000E+01 0. -1.
        -13    1    4    4    0    0 -0.50684905936E+02 -0.31158285359E+02 -0.54626556847E+03  0.54949601431E+03  0.00000000000E+00 0.  1.
         14    1    4    4    0    0  0.27061691475E+02 -0.35424791478E+02 -0.63511337630E+03  0.63667593935E+03  0.00000000000E+00 0. -1.
         -5    1    5    5    0  502 -0.22604131408E+02  0.58838514666E+02 -0.20509746246E+03  0.21461588169E+03  0.47000000000E+01 0.  1.
         11    1    6    6    0    0  0.41223685035E+02 -0.12738138117E+02 -0.20586731983E+03  0.21034021428E+03  0.00000000000E+00 0. -1.
        -12    1    6    6    0    0  0.26759991002E+02 -0.28305079808E+02 -0.25046057482E+02  0.46309606527E+02  0.00000000000E+00 0.  1.
</event>
<event>
12    1  0.8461994E-002  0.2689744E+03  0.7818608E-02  0.1101888E+00
         21   -1    0    0  501  502  0.00000000000E+00  0.00000000000E+00  0.26350545786E+03  0.26350545786E+03  0.00000000000E+00 0.  1.
         21   -1    0    0  502  503 -0.00000000000E+00 -0.00000000000E+00 -0.28048200035E+03  0.28048200035E+03  0.00000000000E+00 0. -1.
         -6    2    1    2    0  503  0.19154015036E+03  0.76640350473E+02 -0.48494287012E+02  0.27331107889E+03  0.17258585530E+03 0.  0.
        -24    2    3    3    0    0  0.93045306618E+02  0.10491922230E+03 -0.18303072079E+01  0.16061438042E+03  0.78282545187E+02 0.  0.
          6    2    1    2  501    0 -0.19154015036E+03 -0.76640350473E+02  0.31517744516E+02  0.27067637932E+03  0.17236867923E+03 0.  0.
         24    2    5    5    0    0 -0.36783350247E+02 -0.21100709481E+01  0.44448327089E+02  0.98357721845E+02  0.79631152263E+02 0.  0.
          5    1    5    5  501    0 -0.15475680012E+03 -0.74530279525E+02 -0.12930582572E+02  0.17231865747E+03  0.47000000000E+01 0. -1.
        -11    1    6    6    0    0 -0.54326927120E+02  0.20687416161E+02  0.35998641418E+02  0.68376065854E+02  0.00000000000E+00 0.  1.
         12    1    6    6    0    0  0.17543576874E+02 -0.22797487109E+02  0.84496856708E+01  0.29981655991E+02  0.00000000000E+00 0. -1.
         -5    1    3    3    0  503  0.98494843745E+02 -0.28278871823E+02 -0.46663979804E+02  0.11269669847E+03  0.47000000000E+01 0.  1.
         13    1    4    4    0    0  0.28748633679E+02  0.75554731915E+02 -0.27536208787E+02  0.85400493251E+02  0.00000000000E+00 0. -1.
        -14    1    4    4    0    0  0.64296672939E+02  0.29364490381E+02  0.25705901579E+02  0.75213887164E+02  0.00000000000E+00 0.  1.
</event>
<event>
12    1  0.8461994E-002  0.2089578E+03  0.7818608E-02  0.1142411E+00
         21   -1    0    0  503  502  0.00000000000E+00  0.00000000000E+00  0.14984686125E+03  0.14984686125E+03  0.00000000000E+00 0.  1.
         21   -1    0    0  501  503 -0.00000000000E+00 -0.00000000000E+00 -0.56858679943E+03  0.56858679943E+03  0.00000000000E+00 0. -1.
          6    2    1    2  501    0 -0.11526519919E+03  0.31965263888E+02 -0.46026138338E+03  0.50547392439E+03  0.17133447687E+03 0.  0.
         24    2    3    3    0    0 -0.91270114518E+02  0.77336833532E+02 -0.40609388578E+03  0.43070393564E+03  0.79261696220E+02 0.  0.
         -6    2    1    2    0  502  0.11526519919E+03 -0.31965263888E+02  0.41521445205E+02  0.21295973629E+03  0.17123076426E+03 0.  0.
        -24    2    5    5    0    0  0.16135705229E+02 -0.21870837489E+02 -0.31139912620E+02  0.89548566058E+02  0.79439014403E+02 0.  0.
          5    1    3    3  501    0 -0.23995084670E+02 -0.45371569644E+02 -0.54167497606E+02  0.74769988747E+02  0.47000000000E+01 0. -1.
        -13    1    4    4    0    0 -0.42043668354E+01  0.69258630346E+01  0.12966180623E+01  0.82052116158E+01  0.00000000000E+00 0.  1.
         14    1    4    4    0    0 -0.87065747682E+02  0.70410970497E+02 -0.40739050384E+03  0.42249872403E+03  0.00000000000E+00 0. -1.
         -5    1    5    5    0  502  0.99129493958E+02 -0.10094426398E+02  0.72661357825E+02  0.12341117023E+03  0.47000000000E+01 0.  1.
         11    1    6    6    0    0  0.40710689319E+02 -0.25691655546E+02  0.19206861819E+01  0.48177903908E+02  0.00000000000E+00 0. -1.
        -12    1    6    6    0    0 -0.24574984089E+02  0.38208180571E+01 -0.33060598802E+02  0.41370662150E+02  0.00000000000E+00 0.  1.
</event>
<event>
12    1  0.8461994E-002  0.1842402E+03  0.7818608E-02  0.1164067E+00
         21   -1    0    0  501  502  0.00000000000E+00  0.00000000000E+00  0.29153426468E+03  0.29153426468E+03  0.00000000000E+00 0.  1.
         21   -1    0    0  502  503 -0.00000000000E+00 -0.00000000000E+00 -0.25371062367E+03  0.25371062367E+03  0.00000000000E+00 0.  1.
         -6    2    1    2    0  503  0.75275917000E+01  0.67959663609E+02 -0.18224991996E+03  0.25823128500E+03  0.16968554067E+03 0.  0.
        -24    2    3    3    0    0 -0.48114686895E+02 -0.17682410313E+01 -0.97434363956E+02  0.13504925550E+03  0.80166678609E+02 0.  0.
          6    2    1    2  501    0 -0.75275917000E+01 -0.67959663609E+02  0.22007356097E+03  0.28701360335E+03  0.17108259922E+03 0.  0.
         24    2    5    5    0    0  0.52923054909E+02 -0.22261920507E+02  0.16817848286E+03  0.19504755781E+03  0.80393437945E+02 0.  0.
          5    1    5    5  501    0 -0.60450646609E+02 -0.45697743102E+02  0.51895078110E+02  0.91966045540E+02  0.47000000000E+01 0. -1.
        -11    1    6    6    0    0  0.15735059446E+02 -0.39939976150E+02  0.13651379630E+03  0.14310419410E+03  0.00000000000E+00 0.  1.
         12    1    6    6    0    0  0.37187995463E+02  0.17678055643E+02  0.31664686562E+02  0.51943363705E+02  0.00000000000E+00 0. -1.
         -5    1    3    3    0  503  0.55642278595E+02  0.69727904641E+02 -0.84815556008E+02  0.12318202951E+03  0.47000000000E+01 0.  1.
         11    1    4    4    0    0  0.40735460530E+00  0.23021500751E+02  0.44078822190E+00  0.23029323239E+02  0.00000000000E+00 0. -1.
        -12    1    4    4    0    0 -0.48522041501E+02 -0.24789741782E+02 -0.97875152178E+02  0.11201993226E+03  0.00000000000E+00 0.  1.
</event>
<event>
12    1  0.8461994E-002  0.2071414E+03  0.7818608E-02  0.1143906E+00
         21   -1    0    0  501  502  0.00000000000E+00  0.00000000000E+00  0.11696801458E+03  0.11696801458E+03  0.00000000000E+00 0.  1.
         21   -1    0    0  502  503 -0.00000000000E+00 -0.00000000000E+00 -0.38084551878E+03  0.38084551878E+03  0.00000000000E+00 0.  1.
         -6    2    1    2    0  503 -0.80298498534E+02  0.85698270564E+02 -0.18043637094E+03  0.27449769164E+03  0.17029285456E+03 0.  0.
        -24    2    3    3    0    0 -0.86025423280E+02  0.42981537878E+01 -0.13531403639E+03  0.18113339572E+03  0.84146128988E+02 0.  0.
          6    2    1    2  501    0  0.80298498534E+02 -0.85698270564E+02 -0.83441133270E+02  0.22331584172E+03  0.17063264634E+03 0.  0.
         24    2    5    5    0    0  0.10493346809E+01 -0.74495784790E+02 -0.20590173566E+01  0.10907458626E+03  0.79638575828E+02 0.  0.
          5    1    5    5  501    0  0.79249163853E+02 -0.11202485774E+02 -0.81382115913E+02  0.11424125546E+03  0.47000000000E+01 0. -1.
        -13    1    6    6    0    0  0.23650473912E+02  0.19003718217E+01  0.14356142917E+02  0.27731843948E+02  0.00000000000E+00 0.  1.
         14    1    6    6    0    0 -0.22601139231E+02 -0.76396156611E+02 -0.16415160273E+02  0.81342742309E+02  0.00000000000E+00 0. -1.
         -5    1    3    3    0  503  0.57269247454E+01  0.81400116776E+02 -0.45122334547E+02  0.93364295923E+02  0.47000000000E+01 0.  1.
         13    1    4    4    0    0 -0.31132219844E+02 -0.82368510457E+01  0.24604114925E+01  0.32297282428E+02  0.00000000000E+00 0. -1.
        -14    1    4    4    0    0 -0.54893203436E+02  0.12535004834E+02 -0.13777444788E+03  0.14883611329E+03  0.00000000000E+00 0.  1.
</event>
<event>
12    1  0.8461994E-002  0.2546321E+03  0.7818608E-02  0.1110547E+00
         21   -1    0    0  501  502  0.00000000000E+00  0.00000000000E+00  0.95786471838E+02  0.95786471838E+02  0.00000000000E+00 0. -1.
         21   -1    0    0  502  503 -0.00000000000E+00 -0.00000000000E+00 -0.81546819282E+03  0.81546819282E+03  0.00000000000E+00 0.  1.
         -6    2    1    2    0  503 -0.33345831704E+02  0.18413337069E+03 -0.54974497002E+03  0.60585234482E+03  0.17268609952E+03 0.  0.
        -24    2    3    3    0    0 -0.84616239672E+02  0.12627042106E+03 -0.31621799142E+03  0.35981634053E+03  0.79811362372E+02 0.  0.
          6    2    1    2  501    0  0.33345831704E+02 -0.18413337069E+03 -0.16993675096E+03  0.30540231984E+03  0.17139146694E+03 0.  0.
         24    2    5    5    0    0 -0.76937246163E+01 -0.25518194164E+02 -0.89201876983E+02  0.12269153941E+03  0.79911622142E+02 0.  0.
          5    1    5    5  501    0  0.41039556321E+02 -0.15861517653E+03 -0.80734873979E+02  0.18271078043E+03  0.47000000000E+01 0. -1.
        -11    1    6    6    0    0  0.26659212794E+02  0.57972177074E+01 -0.64541951681E+02  0.70071284323E+02  0.00000000000E+00 0.  1.
         12    1    6    6    0    0 -0.34352937410E+02 -0.31315411872E+02 -0.24659925303E+02  0.52620255086E+02  0.00000000000E+00 0. -1.
         -5    1    3    3    0  503  0.51270407967E+02  0.57862949637E+02 -0.23352697859E+03  0.24603600429E+03  0.47000000000E+01 0.  1.
         13    1    4    4    0    0 -0.85242949415E+02  0.58365189250E+02 -0.20353379994E+03  0.22825175456E+03  0.00000000000E+00 0. -1.
        -14    1    4    4    0    0  0.62670974368E+00  0.67905231807E+02 -0.11268419148E+03  0.13156458597E+03  0.00000000000E+00 0.  1.
</event>
<event>
12    1  0.8461994E-002  0.2330752E+03  0.7818608E-02  0.1124517E+00
         21   -1    0    0  501  502  0.00000000000E+00  0.00000000000E+00  0.20814524777E+03  0.20814524777E+03  0.00000000000E+00 0. -1.
         21   -1    0    0  502  503 -0.00000000000E+00 -0.00000000000E+00 -0.49610244866E+03  0.49610244866E+03  0.00000000000E+00 0.  1.
         -6    2    1    2    0  503  0.15587708576E+03  0.21769551120E+02 -0.38648524608E+03  0.45132572287E+03  0.17190835776E+03 0.  0.
        -24    2    3    3    0    0  0.12109108757E+03  0.48871391134E+01 -0.38590633573E+03  0.41237053525E+03  0.80242275437E+02 0.  0.
          6    2    1    2  501    0 -0.15587708576E+03 -0.21769551120E+02  0.98528045194E+02  0.25292197355E+03  0.17172702116E+03 0.  0.
         24    2    5    5    0    0 -0.37210681613E+02 -0.12685673014E+02 -0.12529738609E+02  0.90071877888E+02  0.80064896870E+02 0.  0.
          5    1    5    5  501    0 -0.11866640415E+03 -0.90838781060E+01  0.11105778380E+03  0.16285009567E+03  0.47000000000E+01 0. -1.
        -11    1    6    6    0    0  0.16927553775E+02  0.18449703821E+02 -0.11641629092E+02  0.27612699539E+02  0.00000000000E+00 0.  1.
         12    1    6    6    0    0 -0.54138235388E+02 -0.31135376835E+02 -0.88810951663E+00  0.62459178350E+02  0.00000000000E+00 0. -1.
         -5    1    3    3    0  503  0.34785998195E+02  0.16882412007E+02 -0.57891034952E+00  0.38955187623E+02  0.47000000000E+01 0.  1.
         13    1    4    4    0    0  0.66886353003E+02  0.29891393942E+02 -0.12648827874E+03  0.14617306287E+03  0.00000000000E+00 0. -1.
        -14    1    4    4    0    0  0.54204734565E+02 -0.25004254829E+02 -0.25941805699E+03  0.26619747238E+03  0.00000000000E+00 0.  1.
</event>
<event>
12    1  0.8461994E-002  0.1885288E+03  0.7818608E-02  0.1160049E+00
         21   -1    0    0  501  502  0.00000000000E+00  0.00000000000E+00  0.44389611941E+02  0.44389611941E+02  0.00000000000E+00 0.  1.
         21   -1    0    0  502  503 -0.00000000000E+00 -0.00000000000E+00 -0.94948515995E+03  0.94948515995E+03  0.00000000000E+00 0. -1.
         -6    2    1    2    0  503 -0.69907111905E+02  0.34815287750E+02 -0.25387163389E+03  0.31621813158E+03  0.17159251642E+03 0.  0.
        -24    2    3    3    0    0 -0.67738210663E+02  0.57541683721E+02 -0.26491725546E+03  0.29042493554E+03  0.79157945879E+02 0.  0.
          6    2    1    2  501    0  0.69907111905E+02 -0.34815287750E+02 -0.65122391411E+03  0.67765664030E+03  0.17037261306E+03 0.  0.
         24    2    5    5    0    0  0.75591671730E+02 -0.34710067339E+02 -0.23919735772E+03  0.26556405548E+03  0.79937488169E+02 0.  0.
          5    1    5    5  501    0 -0.56845598246E+01 -0.10522041066E+00 -0.41202655639E+03  0.41209258482E+03  0.47000000000E+01 0. -1.
        -13    1    6    6    0    0  0.13563692644E+02  0.25518378926E+02 -0.58636800775E+02  0.65371521523E+02  0.00000000000E+00 0.  1.
         14    1    6    6    0    0  0.62027979085E+02 -0.60228446265E+02 -0.18056055694E+03  0.20019253396E+03  0.00000000000E+00 0. -1.
         -5    1    3    3    0  503 -0.21689012421E+01 -0.22726395971E+02  0.11045621563E+02  0.25793196044E+02  0.47000000000E+01 0.  1.
         13    1    4    4    0    0 -0.14742741374E+02  0.62201699568E+02 -0.11850727241E+03  0.13464907526E+03  0.00000000000E+00 0. -1.
        -14    1    4    4    0    0 -0.52995469289E+02 -0.46600158464E+01 -0.14640998304E+03  0.15577586028E+03  0.00000000000E+00 0.  1.
</event>
<event>
12    1  0.8461994E-002  0.3146471E+03  0.7818608E-02  0.1078431E+00
         21   -1    0    0  503  502  0.00000000000E+00  0.00000000000E+00  0.11916572040E+03  0.11916572040E+03  0.00000000000E+00 0.  1.
         21   -1    0    0  501  503 -0.00000000000E+00 -0.00000000000E+00 -0.89471355531E+03  0.89471355531E+03  0.00000000000E+00 0.  1.
          6    2    1    2  501    0 -0.26079598960E+03  0.41032313902E+02 -0.24695375323E+03  0.39998622527E+03  0.17118593750E+03 0.  0.
         24    2    3    3    0    0 -0.10988453095E+03  0.74716884651E+02 -0.14906453387E+03  0.21691982222E+03  0.84715707051E+02 0.  0.
         -6    2    1    2    0  502  0.26079598960E+03 -0.41032313902E+02 -0.52859408167E+03  0.61389305044E+03  0.16659764473E+03 0.  0.
        -24    2    5    5    0    0  0.14737156845E+03 -0.11399052197E+02 -0.42887941667E+03  0.45991794229E+03  0.75753825156E+02 0.  0.
          5    1    3    3  501    0 -0.15091145865E+03 -0.33684570749E+02 -0.97889219366E+02  0.18306640305E+03  0.47000000000E+01 0. -1.
        -11    1    4    4    0    0 -0.89275098747E+02  0.10611534466E+02 -0.78055761320E+02  0.11906027799E+03  0.00000000000E+00 0.  1.
         12    1    4    4    0    0 -0.20609432201E+02  0.64105350185E+02 -0.71008772547E+02  0.97859544229E+02  0.00000000000E+00 0. -1.
         -5    1    5    5    0  502  0.11342442115E+03 -0.29633261705E+02 -0.99714665007E+02  0.15397510815E+03  0.47000000000E+01 0.  1.
         13    1    6    6    0    0 -0.38272362995E+01 -0.13409591173E+01  0.94535516063E+00  0.41640851848E+01  0.00000000000E+00 0. -1.
        -14    1    6    6    0    0  0.15119880475E+03 -0.10058093080E+02 -0.42982477183E+03  0.45575385711E+03  0.00000000000E+00 0.  1.
</event>
<event>
12    1  0.8461994E-002  0.1951323E+03  0.7818608E-02  0.1154584E+00
         21   -1    0    0  501  502  0.00000000000E+00  0.00000000000E+00  0.54554230513E+03  0.54554230513E+03  0.00000000000E+00 0. -1.
         21   -1    0    0  502  503 -0.00000000000E+00 -0.00000000000E+00 -0.76592295209E+02  0.76592295209E+02  0.00000000000E+00 0. -1.
         -6    2    1    2    0  503 -0.38181738336E+02  0.83024436509E+02  0.13299825999E+03  0.23362439131E+03  0.16894057197E+03 0.  0.
        -24    2    3    3    0    0 -0.30389608680E+02  0.10471672289E+03  0.15051042739E+03  0.20429797694E+03  0.84824255148E+02 0.  0.
          6    2    1    2  501    0  0.38181738336E+02 -0.83024436509E+02  0.33595174993E+03  0.38851020902E+03  0.17241143244E+03 0.  0.
         24    2    5    5    0    0  0.45022369576E+02  0.18716747044E+02  0.12159793752E+03  0.15109136066E+03  0.75267592452E+02 0.  0.
          5    1    5    5  501    0 -0.68406312407E+01 -0.10174118355E+03  0.21435381241E+03  0.23741884837E+03  0.47000000000E+01 0. -1.
        -13    1    6    6    0    0  0.55352878365E+02 -0.10069552377E+02  0.95712867698E+02  0.11102382659E+03  0.00000000000E+00 0.  1.
         14    1    6    6    0    0 -0.10330508789E+02  0.28786299421E+02  0.25885069824E+02  0.40067534064E+02  0.00000000000E+00 0. -1.
         -5    1    3    3    0  503 -0.77921296556E+01 -0.21692286379E+02 -0.17512167398E+02  0.29326414372E+02  0.47000000000E+01 0.  1.
         11    1    4    4    0    0  0.25994467928E+02  0.40272903855E+02  0.80508632167E+02  0.93697700084E+02  0.00000000000E+00 0. -1.
        -12    1    4    4    0    0 -0.56384076608E+02  0.64443819033E+02  0.70001795222E+02  0.11060027686E+03  0.00000000000E+00 0.  1.
</event>
<event>
12    1  0.8461994E-002  0.1850168E+03  0.7818608E-02  0.1163282E+00
         21   -1    0    0  503  502  0.00000000000E+00  0.00000000000E+00  0.24668779210E+03  0.24668779210E+03  0.00000000000E+00 0.  1.
         21   -1    0    0  501  503 -0.00000000000E+00 -0.00000000000E+00 -0.16182597247E+03  0.16182597247E+03  0.00000000000E+00 0.  1.
          6    2    1    2  501    0  0.61885330073E+02 -0.28443570785E+02 -0.36097824980E+02  0.18746523274E+03  0.17088396566E+03 0.  0.
         24    2    3    3    0    0  0.33196361307E+01  0.10056990536E+02 -0.72141606048E+02  0.10851285543E+03  0.80364578186E+02 0.  0.
         -6    2    1    2    0  502 -0.61885330073E+02  0.28443570785E+02  0.12095964461E+03  0.22104853184E+03  0.17202437910E+03 0.  0.
        -24    2    5    5    0    0  0.19807760648E+02  0.32590534488E+02  0.22629217851E+02  0.93056652379E+02  0.81810566135E+02 0.  0.
          5    1    3    3  501    0  0.58565693942E+02 -0.38500561321E+02  0.36043781068E+02  0.78952377309E+02  0.47000000000E+01 0. -1.
        -11    1    4    4    0    0 -0.31205848883E+02 -0.18115829994E+02 -0.37770134126E+02  0.52235728509E+02  0.00000000000E+00 0.  1.
         12    1    4    4    0    0  0.34525485014E+02  0.28172820530E+02 -0.34371471922E+02  0.56277126918E+02  0.00000000000E+00 0. -1.
         -5    1    5    5    0  502 -0.81693090721E+02 -0.41469637034E+01  0.98330426763E+02  0.12799187946E+03  0.47000000000E+01 0.  1.
         13    1    6    6    0    0  0.36287027001E+02  0.26394503809E+02  0.45693051810E+02  0.64041183184E+02  0.00000000000E+00 0. -1.
        -14    1    6    6    0    0 -0.16479266353E+02  0.61960306796E+01 -0.23063833959E+02  0.29015469195E+02  0.00000000000E+00 0.  1.
</event>
<event>
12    1  0.8461994E-002  0.2206003E+03  0.7818608E-02  0.1133540E+00
         21   -1    0    0  503  502  0.00000000000E+00  0.00000000000E+00  0.70667681019E+03  0.70667681019E+03  0.00000000000E+00 0. -1.
         21   -1    0    0  501  503 -0.00000000000E+00 -0.00000000000E+00 -0.12303386087E+03  0.12303386087E+03  0.00000000000E+00 0. -1.
          6    2    1    2  501    0  0.79458144380E+02  0.11264499655E+03  0.15900797012E+02  0.22061655118E+03  0.17151191024E+03 0.  0.
         24    2    3    3    0    0  0.82054780016E+02  0.11322298196E+02  0.34066863876E+02  0.11753829109E+03  0.76115158142E+02 0.  0.
         -6    2    1    2    0  502 -0.79458144380E+02 -0.11264499655E+03  0.56774215231E+03  0.60909411988E+03  0.17222660483E+03 0.  0.
        -24    2    5    5    0    0 -0.33770142211E+02 -0.50843038254E+02  0.13048746749E+03  0.16511143442E+03  0.80680664112E+02 0.  0.
          5    1    3    3  501    0 -0.25966356357E+01  0.10132269835E+03 -0.18166066863E+02  0.10307826009E+03  0.47000000000E+01 0. -1.
        -11    1    4    4    0    0  0.64605447602E+01 -0.18912666191E+02 -0.12667522211E+02  0.23662073029E+02  0.00000000000E+00 0.  1.
         12    1    4    4    0    0  0.75594235256E+02  0.30234964387E+02  0.46734386086E+02  0.93876218065E+02  0.00000000000E+00 0. -1.
         -5    1    5    5    0  502 -0.45688002169E+02 -0.61801958291E+02  0.43725468482E+03  0.44398268546E+03  0.47000000000E+01 0.  1.
         13    1    6    6    0    0 -0.34400070175E+01 -0.38191259121E+02  0.12628773335E+03  0.13198104983E+03  0.00000000000E+00 0. -1.
        -14    1    6    6    0    0 -0.30330135194E+02 -0.12651779133E+02  0.41997341420E+01  0.33130384588E+02  0.00000000000E+00 0.  1.
</event>
<event>
12    1  0.8461994E-002  0.1927737E+03  0.7818608E-02  0.1156021E+00
         21   -1    0    0  501  502  0.00000000000E+00  0.00000000000E+00  0.42738195049E+03  0.42738195049E+03  0.00000000000E+00 0.  1.
         21   -1    0    0  502  503 -0.00000000000E+00 -0.00000000000E+00 -0.30366112276E+03  0.30366112276E+03  0.00000000000E+00 0.  1.
         -6    2    1    2    0  503 -0.58266980881E+02  0.59119171529E+02 -0.24697158251E+03  0.31329961493E+03  0.17398726575E+03 0.  0.
        -24    2    3    3    0    0 -0.50458698227E+00 -0.73699988567E+01 -0.41161273079E+02  0.89386065994E+02  0.79000296843E+02 0.  0.
          6    2    1    2  501    0  0.58266980881E+02 -0.59119171529E+02  0.37069241024E+03  0.41774345832E+03  0.17380050764E+03 0.  0.
         24    2    5    5    0    0  0.21779364222E+02 -0.11829859513E+02  0.64950111405E+02  0.10618597005E+03  0.80266163369E+02 0.  0.
          5    1    5    5  501    0  0.36487616659E+02 -0.47289312016E+02  0.30574229884E+03  0.31155748827E+03  0.47000000000E+01 0. -1.
        -11    1    6    6    0    0  0.30161957458E+02 -0.40303464206E+02  0.24422507771E+02  0.55951512853E+02  0.00000000000E+00 0.  1.
         12    1    6    6    0    0 -0.83825932363E+01  0.28473604693E+02  0.40527603634E+02  0.50234457197E+02  0.00000000000E+00 0. -1.
         -5    1    3    3    0  503 -0.57762393899E+02  0.66489170386E+02 -0.20581030943E+03  0.22391354893E+03  0.47000000000E+01 0.  1.
         11    1    4    4    0    0 -0.76637913517E+01 -0.26113420337E+02 -0.57432024965E+02  0.63553771809E+02  0.00000000000E+00 0. -1.
        -12    1    4    4    0    0  0.71592043694E+01  0.18743421480E+02  0.16270751885E+02  0.25832294186E+02  0.00000000000E+00 0.  1.
</event>
<event>
12    1  0.8461994E-002  0.1890966E+03  0.7818608E-02  0.1159984E+00
         21   -1    0    0  503  502  0.00000000000E+00  0.00000000000E+00  0.86086220571E+02  0.86086220571E+02  0.00000000000E+00 0.  1.
         21   -1    0    0  501  503 -0.00000000000E+00 -0.00000000000E+00 -0.52305915557E+03  0.52305915557E+03  0.00000000000E+00 0.  1.
          6    2    1    2  501    0 -0.82995913622E+01 -0.74056823519E+02 -0.36234178723E+03  0.40871639173E+03  0.17379361832E+03 0.  0.
         24    2    3    3    0    0  0.10530652982E+01 -0.46202327527E+02 -0.36649830783E+03  0.37867122910E+03  0.83277404464E+02 0.  0.
         -6    2    1    2    0  502  0.82995913622E+01  0.74056823519E+02 -0.74631147773E+02  0.20042898441E+03  0.17043671332E+03 0.  0.
        -24    2    5    5    0    0  0.69856903271E+02  0.54040503081E+02 -0.37299723955E+02  0.12555788894E+03  0.81074972464E+02 0.  0.
          5    1    3    3  501    0 -0.93526566604E+01 -0.27854495993E+02  0.41565206012E+01  0.30045162624E+02  0.47000000000E+01 0. -1.
        -13    1    4    4    0    0  0.11463252585E+02 -0.48613891510E+00 -0.28039628170E+03  0.28063092717E+03  0.00000000000E+00 0.  1.
         14    1    4    4    0    0 -0.10410187287E+02 -0.45716188611E+02 -0.86102026124E+02  0.98040301934E+02  0.00000000000E+00 0. -1.
         -5    1    5    5    0  502 -0.61557311909E+02  0.20016320438E+02 -0.37331423818E+02  0.74871095475E+02  0.47000000000E+01 0.  1.
         13    1    6    6    0    0  0.63248467318E+02  0.11831989726E+01 -0.34870337573E+02  0.72233711107E+02  0.00000000000E+00 0. -1.
        -14    1    6    6    0    0  0.66084359530E+01  0.52857304108E+02 -0.24293863821E+01  0.53324177832E+02  0.00000000000E+00 0.  1.
</event>
<event>
12    1  0.8461994E-002  0.1963078E+03  0.7818608E-02  0.1154596E+00
         21   -1    0    0  501  502  0.00000000000E+00  0.00000000000E+00  0.31638068676E+03  0.31638068676E+03  0.00000000000E+00 0.  1.
         21   -1    0    0  502  503 -0.00000000000E+00 -0.00000000000E+00 -0.26367980415E+03  0.26367980415E+03  0.00000000000E+00 0. -1.
         -6    2    1    2    0  503 -0.70551555395E+02  0.54243744790E+02 -0.19013375153E+03  0.26780192092E+03  0.16627423000E+03 0.  0.
        -24    2    3    3    0    0 -0.75138366620E+02 -0.15532186768E+02 -0.14933309659E+03  0.18670628044E+03  0.81681322558E+02 0.  0.
          6    2    1    2  501    0  0.70551555395E+02 -0.54243744790E+02  0.24283463413E+03  0.31225856998E+03  0.17497671038E+03 0.  0.
         24    2    5    5    0    0 -0.13163463522E+02  0.74886354087E+01  0.59320728038E+02  0.10126441156E+03  0.80660869332E+02 0.  0.
          5    1    5    5  501    0  0.83715018917E+02 -0.61732380198E+02  0.18351390610E+03  0.21099415842E+03  0.47000000000E+01 0. -1.
        -13    1    6    6    0    0 -0.12456039677E+02  0.21730900712E+02  0.75589124040E+02  0.79631028145E+02  0.00000000000E+00 0.  1.
         14    1    6    6    0    0 -0.70742384578E+00 -0.14242265303E+02 -0.16268396003E+02  0.21633383415E+02  0.00000000000E+00 0. -1.
         -5    1    3    3    0  503  0.45868112255E+01  0.69775931557E+02 -0.40800654932E+02  0.81095640480E+02  0.47000000000E+01 0.  1.
         11    1    4    4    0    0 -0.67796725214E+01  0.18385986894E+02 -0.83978385326E+02  0.86234434396E+02  0.00000000000E+00 0. -1.
        -12    1    4    4    0    0 -0.68358694099E+02 -0.33918173662E+02 -0.65354711267E+02  0.10047184605E+03  0.00000000000E+00 0.  1.
</event>
<event>
12    1  0.8461994E-002  0.1786284E+03  0.7818608E-02  0.1170872E+00
         21   -1    0    0  501  502  0.00000000000E+00  0.00000000000E+00  0.96856580593E+02  0.96856580593E+02  0.00000000000E+00 0.  1.
         21   -1    0    0  502  503 -0.00000000000E+00 -0.00000000000E+00 -0.32598035458E+03  0.32598035458E+03  0.00000000000E+00 0.  1.
         -6    2    1    2    0  503 -0.36465563505E+02  0.26576510731E+02 -0.76766952606E+02  0.18805892857E+03  0.16564101955E+03 0.  0.
        -24    2    3    3    0    0 -0.10496751052E+01 -0.32409980591E+02 -0.81035071383E+02  0.11896480329E+03  0.80835839632E+02 0.  0.
          6    2    1    2  501    0  0.36465563505E+02 -0.26576510731E+02 -0.15235682139E+03  0.23477800661E+03  0.17283536421E+03 0.  0.
         24    2    5    5    0    0  0.82036726025E+02 -0.27133531429E+02 -0.14761370307E+03  0.18871687010E+03  0.79737060261E+02 0.  0.
          5    1    5    5  501    0 -0.45571162520E+02  0.55702069755E+00 -0.47431183121E+01  0.46061136512E+02  0.47000000000E+01 0. -1.
        -11    1    6    6    0    0  0.28903916176E+02 -0.44325645649E+02 -0.36271589611E+02  0.64154714912E+02  0.00000000000E+00 0.  1.
         12    1    6    6    0    0  0.53132809849E+02  0.17192114221E+02 -0.11134211346E+03  0.12456215518E+03  0.00000000000E+00 0. -1.
         -5    1    3    3    0  503 -0.35415888400E+02  0.58986491322E+02  0.42681187763E+01  0.69094125275E+02  0.47000000000E+01 0.  1.
         13    1    4    4    0    0 -0.20903084293E+02 -0.45560564013E+02 -0.20942666552E+02  0.54325861323E+02  0.00000000000E+00 0. -1.
        -14    1    4    4    0    0  0.19853409188E+02  0.13150583422E+02 -0.60092404831E+02  0.64638941970E+02  0.00000000000E+00 0.  1.
</event>
<event>
12    1  0.8461994E-002  0.2226961E+03  0.7818608E-02  0.1132069E+00
         21   -1    0    0  503  502  0.00000000000E+00  0.00000000000E+00  0.32301376287E+03  0.32301376287E+03  0.00000000000E+00 0. -1.
         21   -1    0    0  501  503 -0.00000000000E+00 -0.00000000000E+00 -0.18925412706E+03  0.18925412706E+03  0.00000000000E+00 0. -1.
          6    2    1    2  501    0  0.13978352217E+03 -0.19784176164E+02 -0.45563249610E+02  0.22634788916E+03  0.17095762784E+03 0.  0.
         24    2    3    3    0    0  0.94357759610E+02 -0.73559290934E+02 -0.22801016882E+01  0.14357842760E+03  0.79342358976E+02 0.  0.
         -6    2    1    2    0  502 -0.13978352217E+03  0.19784176164E+02  0.17932288543E+03  0.28592000077E+03  0.17222863555E+03 0.  0.
        -24    2    5    5    0    0 -0.13590652160E+03  0.29321831459E+02  0.68403897053E+02  0.17442511307E+03  0.80091663258E+02 0.  0.
          5    1    3    3  501    0  0.45425762561E+02  0.53775114769E+02 -0.43283147922E+02  0.82769461559E+02  0.47000000000E+01 0. -1.
        -11    1    4    4    0    0  0.25322387488E+02 -0.14131283331E+02  0.34739731504E+02  0.45252242172E+02  0.00000000000E+00 0.  1.
         12    1    4    4    0    0  0.69035372122E+02 -0.59428007603E+02 -0.37019833192E+02  0.98326185430E+02  0.00000000000E+00 0. -1.
         -5    1    5    5    0  502 -0.38770005748E+01 -0.95376552944E+01  0.11091898838E+03  0.11149488770E+03  0.47000000000E+01 0.  1.
         13    1    6    6    0    0 -0.41095007647E+02  0.25782026854E+01  0.63639745140E+02  0.75798838672E+02  0.00000000000E+00 0. -1.
        -14    1    6    6    0    0 -0.94811513949E+02  0.26743628774E+02  0.47641519134E+01  0.98626274393E+02  0.00000000000E+00 0.  1.
</event>
<event>
12    1  0.8461994E-002  0.2404360E+03  0.7818608E-02  0.1119594E+00
         21   -1    0    0  501  502  0.00000000000E+00  0.00000000000E+00  0.90187246694E+03  0.90187246694E+03  0.00000000000E+00 0.  1.
         21   -1    0    0  502  503 -0.00000000000E+00 -0.00000000000E+00 -0.94541330834E+02  0.94541330834E+02  0.00000000000E+00 0. -1.
         -6    2    1    2    0  503 -0.14130548485E+03  0.90195007452E+02  0.12059385895E+03  0.26898391872E+03  0.17235744921E+03 0.  0.
        -24    2    3    3    0    0 -0.11823039548E+03 -0.23477731786E+01  0.90592965200E+02  0.16889011461E+03  0.79579187062E+02 0.  0.
          6    2    1    2  501    0  0.14130548485E+03 -0.90195007452E+02  0.68673727715E+03  0.72742987905E+03  0.17159184621E+03 0.  0.
         24    2    5    5    0    0  0.76323297930E+02  0.11665412213E+02  0.42524989812E+03  0.43933966904E+03  0.78870408203E+02 0.  0.
          5    1    5    5  501    0  0.64982186917E+02 -0.10186041967E+03  0.26148737904E+03  0.28809021002E+03  0.47000000000E+01 0. -1.
        -11    1    6    6    0    0 -0.12406952600E+02 -0.48900504639E+01  0.12786412715E+03  0.12855769164E+03  0.00000000000E+00 0.  1.
         12    1    6    6    0    0  0.88730250531E+02  0.16555462677E+02  0.29738577096E+03  0.31078197740E+03  0.00000000000E+00 0. -1.
         -5    1    3    3    0  503 -0.23075089364E+02  0.92542780631E+02  0.30000893748E+02  0.10009380411E+03  0.47000000000E+01 0.  1.
         13    1    4    4    0    0 -0.50261649433E+01 -0.25976384716E+02  0.11899011072E+02  0.29010711151E+02  0.00000000000E+00 0. -1.
        -14    1    4    4    0    0 -0.11320423054E+03  0.23628611538E+02  0.78693954127E+02  0.13987940346E+03  0.00000000000E+00 0.  1.
</event>
<event>
12    1  0.8461994E-002  0.2387674E+03  0.7818608E-02  0.1120639E+00
         21   -1    0    0  501  502  0.00000000000E+00  0.00000000000E+00  0.22235468761E+03  0.22235468761E+03  0.00000000000E+00 0.  1.
         21   -1    0    0  502  503 -0.00000000000E+00 -0.00000000000E+00 -0.11890924420E+04  0.11890924420E+04  0.00000000000E+00 0. -1.
         -6    2    1    2    0  503  0.16442951229E+03  0.21710640604E+02 -0.11084139884E+04  0.11338106545E+04  0.17157101796E+03 0.  0.
        -24    2    3    3    0    0  0.55924944073E+02  0.66989708841E+02 -0.48324704726E+03  0.49766662238E+03  0.80803080889E+02 0.  0.
          6    2    1    2  501    0 -0.16442951229E+03 -0.21710640604E+02  0.14167623398E+03  0.27763647511E+03  0.17175983411E+03 0.  0.
         24    2    5    5    0    0 -0.14607316505E+03  0.41646824572E+02  0.86049800201E+02  0.19122169621E+03  0.78034232503E+02 0.  0.
          5    1    5    5  501    0 -0.18356347234E+02 -0.63357465176E+02  0.55626433777E+02  0.86414778898E+02  0.47000000000E+01 0. -1.
        -11    1    6    6    0    0 -0.11095143655E+03  0.16051695576E+02  0.94888893360E+02  0.14687334778E+03  0.00000000000E+00 0.  1.
         12    1    6    6    0    0 -0.35121728499E+02  0.25595128995E+02 -0.88390931592E+01  0.44348348435E+02  0.00000000000E+00 0. -1.
         -5    1    3    3    0  503  0.10850456821E+03 -0.45279068237E+02 -0.62516694109E+03  0.63614403210E+03  0.47000000000E+01 0.  1.
         11    1    4    4    0    0  0.73481376922E+02  0.39656008575E+02 -0.29298853578E+03  0.30465454841E+03  0.00000000000E+00 0. -1.
        -12    1    4    4    0    0 -0.17556432850E+02  0.27333700266E+02 -0.19025851148E+03  0.19301207396E+03  0.00000000000E+00 0.  1.
</event>
<event>
12    1  0.8461994E-002  0.2044421E+03  0.7818608E-02  0.1147684E+00
         21   -1    0    0  503  502  0.00000000000E+00  0.00000000000E+00  0.42299624498E+03  0.42299624498E+03  0.00000000000E+00 0. -1.
         21   -1    0    0  501  503 -0.00000000000E+00 -0.00000000000E+00 -0.19807925215E+03  0.19807925215E+03  0.00000000000E+00 0. -1.
          6    2    1    2  501    0 -0.89131933961E+02  0.63263670533E+02 -0.11041721107E+03  0.23235434774E+03  0.17277091408E+03 0.  0.
         24    2    3    3    0    0  0.14859081127E+02  0.54335614346E+02 -0.72211609347E+02  0.12110867632E+03  0.79244202800E+02 0.  0.
         -6    2    1    2    0  502  0.89131933961E+02 -0.63263670533E+02  0.33533420390E+03  0.38872114939E+03  0.16342677265E+03 0.  0.
        -24    2    5    5    0    0  0.58780573223E+02 -0.72242967752E+02  0.12340329884E+03  0.17438815754E+03  0.80676224177E+02 0.  0.
          5    1    3    3  501    0 -0.10399101509E+03  0.89280561873E+01 -0.38205601719E+02  0.11124567142E+03  0.47000000000E+01 0. -1.
        -13    1    4    4    0    0  0.38578874803E+02  0.20710788986E+02 -0.66419446241E+02  0.79553813237E+02  0.00000000000E+00 0.  1.
         14    1    4    4    0    0 -0.23719793676E+02  0.33624825360E+02 -0.57921631054E+01  0.41554863084E+02  0.00000000000E+00 0. -1.
         -5    1    5    5    0  502  0.30351360738E+02  0.89792972184E+01  0.21193090506E+03  0.21433299185E+03  0.47000000000E+01 0.  1.
         13    1    6    6    0    0 -0.61612407500E+01 -0.19383352388E+02  0.74915574852E+02  0.77627434537E+02  0.00000000000E+00 0. -1.
        -14    1    6    6    0    0  0.64941813973E+02 -0.52859615364E+02  0.48487723989E+02  0.96760723003E+02  0.00000000000E+00 0.  1.
</event>
<event>
12    1  0.8461994E-002  0.2327038E+03  0.7818608E-02  0.1125009E+00
         21   -1    0    0  503  502  0.00000000000E+00  0.00000000000E+00  0.77105825710E+03  0.77105825710E+03  0.00000000000E+00 0.  1.
         21   -1    0    0  501  503 -0.00000000000E+00 -0.00000000000E+00 -0.17704274269E+03  0.17704274269E+03  0.00000000000E+00 0. -1.
          6    2    1    2  501    0 -0.12342094585E+03  0.10008329463E+03 -0.72346600652E+02  0.24227557625E+03  0.16797032024E+03 0.  0.
         24    2    3    3    0    0 -0.50481210565E+02  0.29423923879E+02  0.23555793221E+02  0.10251753244E+03  0.80875516358E+02 0.  0.
         -6    2    1    2    0  502  0.12342094585E+03 -0.10008329463E+03  0.66636211506E+03  0.70582542354E+03  0.17000489520E+03 0.  0.
        -24    2    5    5    0    0  0.14732592468E+03 -0.45852849988E+02  0.48572825408E+03  0.51565952000E+03  0.78520009033E+02 0.  0.
          5    1    3    3  501    0 -0.72939735288E+02  0.70659370753E+02 -0.95902393873E+02  0.13975804381E+03  0.47000000000E+01 0. -1.
        -11    1    4    4    0    0 -0.62229580782E+02  0.45227989970E+02  0.28792426874E+02  0.82140706390E+02  0.00000000000E+00 0.  1.
         12    1    4    4    0    0  0.11748370216E+02 -0.15804066091E+02 -0.52366336530E+01  0.20376826047E+02  0.00000000000E+00 0. -1.
         -5    1    5    5    0  502 -0.23904978821E+02 -0.54230444644E+02  0.18063386098E+03  0.19016590354E+03  0.47000000000E+01 0.  1.
         13    1    6    6    0    0  0.13625657999E+03 -0.14654401040E+02  0.42425423712E+03  0.44583883273E+03  0.00000000000E+00 0. -1.
        -14    1    6    6    0    0  0.11069344687E+02 -0.31198448948E+02  0.61474016958E+02  0.69820687260E+02  0.00000000000E+00 0.  1.
</event>
<event>
12    1  0.8461994E-002  0.1813995E+03  0.7818608E-02  0.1166737E+00
         21   -1    0    0  501  502  0.00000000000E+00  0.00000000000E+00  0.30950115283E+02  0.30950115283E+02  0.00000000000E+00 0.  1.
         21   -1    0    0  502  503 -0.00000000000E+00 -0.00000000000E+00 -0.17792938701E+04  0.17792938701E+04  0.00000000000E+00 0.  1.
         -6    2    1    2    0  503 -0.49821444815E+02 -0.26618574748E+02 -0.14528063589E+04  0.14640874565E+04  0.17238050620E+03 0.  0.
        -24    2    3    3    0    0 -0.26956495530E+01 -0.55061376092E+02 -0.47060304457E+03  0.48033175805E+03  0.78818465952E+02 0.  0.
          6    2    1    2  501    0  0.49821444815E+02  0.26618574748E+02 -0.29553739586E+03  0.34615652883E+03  0.17114691121E+03 0.  0.
         24    2    5    5    0    0  0.42887481395E+02  0.80416164675E+02 -0.23917976113E+03  0.26779497242E+03  0.78747022283E+02 0.  0.
          5    1    5    5  501    0  0.69339634203E+01 -0.53797589927E+02 -0.56357634728E+02  0.78361556409E+02  0.47000000000E+01 0. -1.
        -13    1    6    6    0    0  0.45128031501E+02  0.32991642674E+02 -0.58228708955E+02  0.80719082379E+02  0.00000000000E+00 0.  1.
         14    1    6    6    0    0 -0.22405501063E+01  0.47424522001E+02 -0.18095105218E+03  0.18707589005E+03  0.00000000000E+00 0. -1.
         -5    1    3    3    0  503 -0.47125795262E+02  0.28442801345E+02 -0.98220331436E+03  0.98375569847E+03  0.47000000000E+01 0.  1.
         11    1    4    4    0    0 -0.35068006941E+02 -0.42801831198E+02 -0.19963291617E+03  0.20715951121E+03  0.00000000000E+00 0. -1.
        -12    1    4    4    0    0  0.32372357388E+02 -0.12259544894E+02 -0.27097012840E+03  0.27317224685E+03  0.00000000000E+00 0.  1.
</event>
<event>
12    1  0.8461994E-002  0.2498552E+03  0.7818608E-02  0.1116049E+00
         21   -1    0    0  501  502  0.00000000000E+00  0.00000000000E+00  0.49339924191E+03  0.49339924191E+03  0.00000000000E+00 0.  1.
         21   -1    0    0  502  503 -0.00000000000E+00 -0.00000000000E+00 -0.15385298399E+03  0.15385298399E+03  0.00000000000E+00 0. -1.
         -6    2    1    2    0  503 -0.64105231146E+02 -0.14465952561E+03  0.19000018331E+02  0.25057661684E+03  0.19336954570E+03 0.  0.
        -24    2    3    3    0    0 -0.52450909391E+02 -0.14788401275E+03 -0.48383420247E+02  0.18195564099E+03  0.78397198984E+02 0.  0.
          6    2    1    2  501    0  0.64105231146E+02  0.14465952561E+03  0.32054623959E+03  0.39667560906E+03  0.17194705027E+03 0.  0.
         24    2    5    5    0    0  0.48057079188E+02  0.27677317917E+02  0.22210066128E+03  0.24287053116E+03  0.81128751859E+02 0.  0.
          5    1    5    5  501    0  0.16048151958E+02  0.11698220769E+03  0.98445578312E+02  0.15380507790E+03  0.47000000000E+01 0. -1.
        -11    1    6    6    0    0  0.54983711339E+02 -0.11168727080E+02  0.10144952197E+03  0.11593081766E+03  0.00000000000E+00 0.  1.
         12    1    6    6    0    0 -0.69266321508E+01  0.38846044997E+02  0.12065113932E+03  0.12693971350E+03  0.00000000000E+00 0. -1.
         -5    1    3    3    0  503 -0.11654321755E+02  0.32244871434E+01  0.67383438577E+02  0.68620975856E+02  0.47000000000E+01 0.  1.
         13    1    4    4    0    0  0.20813489212E+02 -0.27972314586E+02 -0.86230128820E+01  0.35916682302E+02  0.00000000000E+00 0. -1.
        -14    1    4    4    0    0 -0.73264398603E+02 -0.11991169817E+03 -0.39760407365E+02  0.14603895869E+03  0.00000000000E+00 0.  1.
</event>
<event>
12    1  0.8461994E-002  0.1783470E+03  0.7818608E-02  0.1169651E+00
         21   -1    0    0  501  502  0.00000000000E+00  0.00000000000E+00  0.32599910669E+04  0.32599910669E+04  0.00000000000E+00 0. -1.
         21   -1    0    0  502  503 -0.00000000000E+00 -0.00000000000E+00 -0.12496283649E+02  0.12496283649E+02  0.00000000000E+00 0. -1.
         -6    2    1    2    0  503 -0.10664604227E+02 -0.41700093898E+02  0.85371890748E+03  0.87214885369E+03  0.17307518136E+03 0.  0.
        -24    2    3    3    0    0  0.85302156286E+01 -0.28919956858E+02  0.16950416767E+03  0.18752948998E+03  0.74340556019E+02 0.  0.
          6    2    1    2  501    0  0.10664604227E+02  0.41700093898E+02  0.23937758758E+04  0.24003384969E+04  0.17207360178E+03 0.  0.
         24    2    5    5    0    0  0.28160301157E+01  0.76827997805E+02  0.10193571109E+04  0.10254404639E+04  0.80800706773E+02 0.  0.
          5    1    5    5  501    0  0.78485741113E+01 -0.35127903907E+02  0.13744187649E+04  0.13748980329E+04  0.47000000000E+01 0. -1.
        -13    1    6    6    0    0  0.18069227405E+02  0.84502402210E+02  0.95343375820E+03  0.95734167581E+03  0.00000000000E+00 0.  1.
         14    1    6    6    0    0 -0.15253197289E+02 -0.76744044051E+01  0.65923352700E+02  0.68098788108E+02  0.00000000000E+00 0. -1.
         -5    1    3    3    0  503 -0.19194819856E+02 -0.12780137040E+02  0.68421473980E+03  0.68461936372E+03  0.47000000000E+01 0.  1.
         11    1    4    4    0    0  0.30252983140E+02 -0.42607052640E+02  0.13302715255E+03  0.14292245184E+03  0.00000000000E+00 0. -1.
        -12    1    4    4    0    0 -0.21722767512E+02  0.13687095782E+02  0.36477015122E+02  0.44607038139E+02  0.00000000000E+00 0.  1.
</event>
<event>
12    1  0.8461994E-002  0.1862663E+03  0.7818608E-02  0.1162329E+00
         21   -1    0    0  503  502  0.00000000000E+00  0.00000000000E+00  0.19439959763E+03  0.19439959763E+03  0.00000000000E+00 0. -1.
         21   -1    0    0  501  503 -0.00000000000E+00 -0.00000000000E+00 -0.20758119638E+03  0.20758119638E+03  0.00000000000E+00 0. -1.
          6    2    1    2  501    0  0.14630446439E+02  0.61607583736E+02 -0.84209867726E+02  0.20263150791E+03  0.17308576441E+03 0.  0.
         24    2    3    3    0    0  0.25571012697E+01  0.69611059905E+02 -0.12120332191E+03  0.16262617144E+03  0.83095053801E+02 0.  0.
         -6    2    1    2    0  502 -0.14630446439E+02 -0.61607583736E+02  0.71028268976E+02  0.19934928610E+03  0.17517299603E+03 0.  0.
        -24    2    5    5    0    0  0.82692415693E+01 -0.41192120559E+02 -0.28105724462E+02  0.95470387849E+02  0.80990691171E+02 0.  0.
          5    1    3    3  501    0  0.12073345169E+02 -0.80034761688E+01  0.36993454182E+02  0.40005336477E+02  0.47000000000E+01 0. -1.
        -11    1    4    4    0    0  0.10823417806E+02  0.29722412432E+02  0.31331934753E+01  0.31786554942E+02  0.00000000000E+00 0.  1.
         12    1    4    4    0    0 -0.82663165359E+01  0.39888647473E+02 -0.12433651538E+03  0.13083961649E+03  0.00000000000E+00 0. -1.
         -5    1    5    5    0  502 -0.22899688008E+02 -0.20415463177E+02  0.99133993438E+02  0.10387889825E+03  0.47000000000E+01 0.  1.
         13    1    6    6    0    0  0.44089618360E+02 -0.25249282369E+02 -0.80864954754E+01  0.51447177924E+02  0.00000000000E+00 0. -1.
        -14    1    6    6    0    0 -0.35820376790E+02 -0.15942838189E+02 -0.20019228987E+02  0.44023209925E+02  0.00000000000E+00 0.  1.
</event>
<event>
12    1  0.8461994E-002  0.1944042E+03  0.7818608E-02  0.1154765E+00
         21   -1    0    0  503  502  0.00000000000E+00  0.00000000000E+00  0.19493195981E+03  0.19493195981E+03  0.00000000000E+00 0.  1.
         21   -1    0    0  501  503 -0.00000000000E+00 -0.00000000000E+00 -0.28244006926E+03  0.28244006926E+03  0.00000000000E+00 0.  1.
          6    2    1    2  501    0 -0.77549831437E+02  0.45895699413E+02 -0.17807458319E+03  0.26290691115E+03  0.17114057138E+03 0.  0.
         24    2    3    3    0    0 -0.10651259078E+03  0.74734738449E+02 -0.13671458690E+03  0.20456935126E+03  0.78914688608E+02 0.  0.
         -6    2    1    2    0  502  0.77549831437E+02 -0.45895699413E+02  0.90566473735E+02  0.21446511792E+03  0.17225739188E+03 0.  0.
        -24    2    5    5    0    0 -0.22587113220E+02 -0.38990146564E+02  0.58606075473E+02  0.10902010190E+03  0.80126782809E+02 0.  0.
          5    1    3    3  501    0  0.28962759341E+02 -0.28839039036E+02 -0.41359996292E+02  0.58337559894E+02  0.47000000000E+01 0. -1.
        -11    1    4    4    0    0  0.39843621236E+01 -0.13841407551E+01 -0.37394969940E+02  0.37632097523E+02  0.00000000000E+00 0.  1.
         12    1    4    4    0    0 -0.11049695290E+03  0.76118879204E+02 -0.99319616955E+02  0.16693725373E+03  0.00000000000E+00 0. -1.
         -5    1    5    5    0  502  0.10013694466E+03 -0.69055528482E+01  0.31960398262E+02  0.10544501601E+03  0.47000000000E+01 0.  1.
         13    1    6    6    0    0 -0.46617640231E+02 -0.24990095310E+01  0.40203899934E+02  0.61610088454E+02  0.00000000000E+00 0. -1.
        -14    1    6    6    0    0  0.24030527012E+02 -0.36491137033E+02  0.18402175539E+02  0.47410013447E+02  0.00000000000E+00 0.  1.
</event>
<event>
12    1  0.8461994E-002  0.2133170E+03  0.7818608E-02  0.1141810E+00
         21   -1    0    0  501  502  0.00000000000E+00  0.00000000000E+00  0.14526090129E+03  0.14526090129E+03  0.00000000000E+00 0.  1.
         21   -1    0    0  502  503 -0.00000000000E+00 -0.00000000000E+00 -0.32227900293E+03  0.32227900293E+03  0.00000000000E+00 0. -1.
         -6    2    1    2    0  503 -0.93065630166E+02 -0.37759023334E+02 -0.15148192272E+02  0.19976010395E+03  0.17201068583E+03 0.  0.
        -24    2    3    3    0    0 -0.11391776974E+03 -0.58944129392E+00  0.24141667620E+02  0.14160365423E+03  0.80567791770E+02 0.  0.
          6    2    1    2  501    0  0.93065630166E+02  0.37759023334E+02 -0.16186990936E+03  0.26777980028E+03  0.18819457622E+03 0.  0.
         24    2    5    5    0    0  0.43863205239E+02 -0.10149121012E+02  0.50404792825E+00  0.91418067126E+02  0.79561444819E+02 0.  0.
          5    1    5    5  501    0  0.49202424927E+02  0.47908144345E+02 -0.16237395729E+03  0.17636173315E+03  0.47000000000E+01 0. -1.
        -13    1    6    6    0    0  0.65584226948E+02 -0.94226577183E+01 -0.10456164691E+02  0.67077631763E+02  0.00000000000E+00 0.  1.
         14    1    6    6    0    0 -0.21721021709E+02 -0.72646329326E+00  0.10960212619E+02  0.24340435363E+02  0.00000000000E+00 0. -1.
         -5    1    3    3    0  503  0.20852139576E+02 -0.37169582040E+02 -0.39289859892E+02  0.58156449722E+02  0.47000000000E+01 0.  1.
         11    1    4    4    0    0 -0.64940154499E+02 -0.37356221977E+01 -0.27265222713E+02  0.70530638088E+02  0.00000000000E+00 0. -1.
        -12    1    4    4    0    0 -0.48977615243E+02  0.31461809038E+01  0.51406890334E+02  0.71073016138E+02  0.00000000000E+00 0.  1.
</event>
<event>
12    1  0.8461994E-002  0.1818109E+03  0.7818608E-02  0.1167940E+00
         21   -1    0    0  501  502  0.00000000000E+00  0.00000000000E+00  0.13157281913E+02  0.13157281913E+02  0.00000000000E+00 0. -1.
         21   -1    0    0  502  503 -0.00000000000E+00 -0.00000000000E+00 -0.26497006349E+04  0.26497006349E+04  0.00000000000E+00 0. -1.
         -6    2    1    2    0  503 -0.67369686713E+02  0.64095778035E+01 -0.16950624971E+04  0.17039828357E+04  0.16043963989E+03 0.  0.
        -24    2    3    3    0    0 -0.77417202156E+02  0.51609709866E+02 -0.13822421803E+04  0.13877192667E+04  0.80711416797E+02 0.  0.
          6    2    1    2  501    0  0.67369686713E+02 -0.64095778035E+01 -0.94148085593E+03  0.95887508111E+03  0.16874673842E+03 0.  0.
         24    2    5    5    0    0 -0.14189638689E+02 -0.39819932174E+02 -0.40053741642E+03  0.41077831038E+03  0.80756581677E+02 0.  0.
          5    1    5    5  501    0  0.81559325403E+02  0.33410354371E+02 -0.54094343950E+03  0.54809677073E+03  0.47000000000E+01 0. -1.
        -11    1    6    6    0    0 -0.37423439626E+02 -0.20133089603E+02 -0.34351586155E+03  0.34613437025E+03  0.00000000000E+00 0.  1.
         12    1    6    6    0    0  0.23233800936E+02 -0.19686842572E+02 -0.57021554869E+02  0.64643940134E+02  0.00000000000E+00 0. -1.
         -5    1    3    3    0  503  0.10047515443E+02 -0.45200132062E+02 -0.31282031673E+03  0.31626356898E+03  0.47000000000E+01 0.  1.
         11    1    4    4    0    0 -0.29897605049E+02  0.57682890312E+02 -0.50384455287E+03  0.50801625573E+03  0.00000000000E+00 0. -1.
        -12    1    4    4    0    0 -0.47519597108E+02 -0.60731804461E+01 -0.87839762745E+03  0.87970301098E+03  0.00000000000E+00 0.  1.
</event>
<event>
12    1  0.8461994E-002  0.1987715E+03  0.7818608E-02  0.1151097E+00
         21   -1    0    0  503  502  0.00000000000E+00  0.00000000000E+00  0.74303557906E+02  0.74303557906E+02  0.00000000000E+00 0.  1.
         21   -1    0    0  501  503 -0.00000000000E+00 -0.00000000000E+00 -0.59243735357E+03  0.59243735357E+03  0.00000000000E+00 0. -1.
          6    2    1    2  501    0  0.90683065868E+02  0.43578300746E+02 -0.36833941662E+03  0.41784642157E+03  0.16970332775E+03 0.  0.
         24    2    3    3    0    0  0.75339790425E+02  0.68579423288E+02 -0.35455582604E+03  0.38509661853E+03  0.11050045479E+03 0.  0.
         -6    2    1    2    0  502 -0.90683065868E+02 -0.43578300746E+02 -0.14979437904E+03  0.24889448990E+03  0.17142819016E+03 0.  0.
        -24    2    5    5    0    0 -0.68523330363E+02 -0.92945332769E+02 -0.13144674269E+03  0.19156314169E+03  0.77999419245E+02 0.  0.
          5    1    3    3  501    0  0.15343275442E+02 -0.25001122542E+02 -0.13783590587E+02  0.32749803039E+02  0.47000000000E+01 0. -1.
        -11    1    4    4    0    0 -0.12335763420E+02  0.15065639582E+02 -0.41007740974E+01  0.19898766378E+02  0.00000000000E+00 0.  1.
         12    1    4    4    0    0  0.87675553845E+02  0.53513783706E+02 -0.35045505194E+03  0.36519785216E+03  0.00000000000E+00 0. -1.
         -5    1    5    5    0  502 -0.22159735505E+02  0.49367032022E+02 -0.18347636350E+02  0.57331348213E+02  0.47000000000E+01 0.  1.
         13    1    6    6    0    0 -0.37815896898E+02 -0.69699977306E+02 -0.33071710533E+02  0.85917791709E+02  0.00000000000E+00 0. -1.
        -14    1    6    6    0    0 -0.30707433464E+02 -0.23245355463E+02 -0.98375032155E+02  0.10564534998E+03  0.00000000000E+00 0.  1.
</event>
<event>
12    1  0.8461994E-002  0.1844726E+03  0.7818608E-02  0.1163647E+00
         21   -1    0    0  503  502  0.00000000000E+00  0.00000000000E+00  0.38164806427E+03  0.38164806427E+03  0.00000000000E+00 0. -1.
         21   -1    0    0  501  503 -0.00000000000E+00 -0.00000000000E+00 -0.11133926033E+03  0.11133926033E+03  0.00000000000E+00 0. -1.
          6    2    1    2  501    0  0.39063454975E+02 -0.52779269238E+02  0.24496843210E+02  0.18565418903E+03  0.17191793915E+03 0.  0.
         24    2    3    3    0    0 -0.43877888702E+01 -0.94530963909E+02  0.14612122553E+02  0.12440868061E+03  0.79427009616E+02 0.  0.
         -6    2    1    2    0  502 -0.39063454975E+02  0.52779269238E+02  0.24581196073E+03  0.30733313557E+03  0.17239063606E+03 0.  0.
        -24    2    5    5    0    0  0.18495850917E+02 -0.57549239522E+01  0.51877818155E+02  0.96686827446E+02  0.79257926634E+02 0.  0.
          5    1    3    3  501    0  0.43451243845E+02  0.41751694671E+02  0.98847206563E+01  0.61245508424E+02  0.47000000000E+01 0. -1.
        -11    1    4    4    0    0 -0.19107323784E+02  0.64883510394E+01  0.92056250516E+01  0.22179541338E+02  0.00000000000E+00 0.  1.
         12    1    4    4    0    0  0.14719534914E+02 -0.10101931495E+03  0.54064975016E+01  0.10222913927E+03  0.00000000000E+00 0. -1.
         -5    1    5    5    0  502 -0.57559305892E+02  0.58534193190E+02  0.19393414258E+03  0.21064630812E+03  0.47000000000E+01 0.  1.
         13    1    6    6    0    0  0.40764491096E+02  0.16486992683E+02  0.47801302692E+02  0.64950205550E+02  0.00000000000E+00 0. -1.
        -14    1    6    6    0    0 -0.22268640179E+02 -0.22241916636E+02  0.40765154635E+01  0.31736621896E+02  0.00000000000E+00 0.  1.
</event>
<event>
12    1  0.8461994E-002  0.2089328E+03  0.7818608E-02  0.1143435E+00
         21   -1    0    0  503  502  0.00000000000E+00  0.00000000000E+00  0.24255722637E+03  0.24255722637E+03  0.00000000000E+00 0. -1.
         21   -1    0    0  501  503 -0.00000000000E+00 -0.00000000000E+00 -0.26304681451E+03  0.26304681451E+03  0.00000000000E+00 0. -1.
          6    2    1    2  501    0 -0.42640016172E+02 -0.10489092925E+03  0.13555868453E+03  0.24482832046E+03  0.16954194622E+03 0.  0.
         24    2    3    3    0    0 -0.33167658433E+01 -0.13218094201E+03  0.10570784974E+03  0.18822244488E+03  0.82284487567E+02 0.  0.
         -6    2    1    2    0  502  0.42640016172E+02  0.10489092925E+03 -0.15604827268E+03  0.26077572042E+03  0.17559224054E+03 0.  0.
        -24    2    5    5    0    0 -0.37357136382E+02  0.22971902597E+02 -0.82878071423E+02  0.12481160862E+03  0.82376568132E+02 0.  0.
          5    1    3    3  501    0 -0.39323250329E+02  0.27290012757E+02  0.29850834797E+02  0.56605875585E+02  0.47000000000E+01 0. -1.
        -11    1    4    4    0    0 -0.34347270813E+02 -0.11193269278E+03  0.68196869753E+02  0.13549714303E+03  0.00000000000E+00 0.  1.
         12    1    4    4    0    0  0.31030504970E+02 -0.20248249225E+02  0.37510979984E+02  0.52725301846E+02  0.00000000000E+00 0. -1.
         -5    1    5    5    0  502  0.79997152554E+02  0.81919026652E+02 -0.73170201255E+02  0.13596411179E+03  0.47000000000E+01 0.  1.
         11    1    6    6    0    0 -0.18729202694E+02 -0.26242570402E+01 -0.90330687630E+02  0.92289234942E+02  0.00000000000E+00 0. -1.
        -12    1    6    6    0    0 -0.18627933687E+02  0.25596159637E+02  0.74526162069E+01  0.32522373683E+02  0.00000000000E+00 0.  1.
</event>
<event>
12    1  0.8461994E-002  0.2046418E+03  0.7818608E-02  0.1146414E+00
         21   -1    0    0  501  502  0.00000000000E+00  0.00000000000E+00  0.31581070912E+03  0.31581070912E+03  0.00000000000E+00 0.  1.
         21   -1    0    0  502  503 -0.00000000000E+00 -0.00000000000E+00 -0.13324655011E+03  0.13324655011E+03  0.00000000000E+00 0.  1.
         -6    2    1    2    0  503  0.77948814592E+02 -0.74829811222E+02  0.62284079369E+02  0.21391020343E+03  0.17378938473E+03 0.  0.
        -24    2    3    3    0    0  0.21577868487E+02 -0.10475740423E+03  0.68281645827E+02  0.14963419553E+03  0.79298746298E+02 0.  0.
          6    2    1    2  501    0 -0.77948814592E+02  0.74829811222E+02  0.12028007964E+03  0.23514705581E+03  0.17073758213E+03 0.  0.
         24    2    5    5    0    0 -0.38931737247E+02  0.12646394325E+02  0.13244305435E+03  0.16058743124E+03  0.81065090958E+02 0.  0.
          5    1    5    5  501    0 -0.39017077345E+02  0.62183416897E+02 -0.12162974712E+02  0.74559624566E+02  0.47000000000E+01 0. -1.
        -11    1    6    6    0    0 -0.19117351297E+02  0.47062942991E+02  0.67767857778E+02  0.84692834829E+02  0.00000000000E+00 0.  1.
         12    1    6    6    0    0 -0.19814385950E+02 -0.34416548666E+02  0.64675196575E+02  0.75894596412E+02  0.00000000000E+00 0. -1.
         -5    1    3    3    0  503  0.56370946104E+02  0.29927593010E+02 -0.59975664584E+01  0.64276007900E+02  0.47000000000E+01 0.  1.
         11    1    4    4    0    0  0.28304879629E+02 -0.10255017273E+02  0.41332855222E+02  0.51134494335E+02  0.00000000000E+00 0. -1.
        -12    1    4    4    0    0 -0.67270111419E+01 -0.94502386959E+02  0.26948790605E+02  0.98499701192E+02  0.00000000000E+00 0.  1.
</event>
<event>
12    1  0.8461994E-002  0.2382146E+03  0.7818608E-02  0.1121432E+00
         21   -1    0    0  501  502  0.00000000000E+00  0.00000000000E+00  0.52093901557E+02  0.52093901557E+02  0.00000000000E+00 0. -1.
         21   -1    0    0  502  503 -0.00000000000E+00 -0.00000000000E+00 -0.10936194825E+04  0.10936194825E+04  0.00000000000E+00 0.  1.
         -6    2    1    2    0  503  0.12942522908E+03  0.97256567021E+02 -0.58782092081E+03  0.63327399841E+03  0.17115137265E+03 0.  0.
        -24    2    3    3    0    0  0.11743501730E+03  0.79496107340E+01 -0.29763334059E+03  0.32938188049E+03  0.77798702824E+02 0.  0.
          6    2    1    2  501    0 -0.12942522908E+03 -0.97256567021E+02 -0.45370466018E+03  0.51243938570E+03  0.17474689010E+03 0.  0.
         24    2    5    5    0    0  0.26286389964E+01 -0.17889133670E+02 -0.18559283244E+03  0.20317662408E+03  0.80679057223E+02 0.  0.
          5    1    5    5  501    0 -0.13205386807E+03 -0.79367433350E+02 -0.26811182774E+03  0.30926276161E+03  0.47000000000E+01 0. -1.
        -13    1    6    6    0    0  0.16593441256E+01  0.45385382576E+01 -0.17996956493E+03  0.18003443019E+03  0.00000000000E+00 0.  1.
         14    1    6    6    0    0  0.96929487077E+00 -0.22427671928E+02 -0.56232675068E+01  0.23142193891E+02  0.00000000000E+00 0. -1.
         -5    1    3    3    0  503  0.11990211779E+02  0.89306956287E+02 -0.29018758022E+03  0.30389211792E+03  0.47000000000E+01 0.  1.
         11    1    4    4    0    0  0.82662623794E+02  0.17227604261E+02 -0.11184496081E+03  0.14013991216E+03  0.00000000000E+00 0. -1.
        -12    1    4    4    0    0  0.34772393504E+02 -0.92779935270E+01 -0.18578837979E+03  0.18924196833E+03  0.00000000000E+00 0.  1.
</event>
<event>
12    1  0.8461994E-002  0.2023854E+03  0.7818608E-02  0.1147854E+00
         21   -1    0    0  503  502  0.00000000000E+00  0.00000000000E+00  0.21565545680E+03  0.21565545680E+03  0.00000000000E+00 0.  1.
         21   -1    0    0  501  503 -0.00000000000E+00 -0.00000000000E+00 -0.18956211310E+03  0.18956211310E+03  0.00000000000E+00 0. -1.
          6    2    1    2  501    0  0.98780202485E+02  0.39779275431E+02  0.18435991851E+02  0.20268736387E+03  0.17147117111E+03 0.  0.
         24    2    3    3    0    0  0.11931703317E+03  0.44823035621E+02  0.55111933449E+02  0.16009140604E+03  0.79663505773E+02 0.  0.
         -6    2    1    2    0  502 -0.98780202485E+02 -0.39779275431E+02  0.76573518566E+01  0.20253020603E+03  0.17210441644E+03 0.  0.
        -24    2    5    5    0    0 -0.30971543755E+02 -0.78742762753E+02  0.32356599920E+02  0.12038210564E+03  0.79279521885E+02 0.  0.
          5    1    3    3  501    0 -0.20536830687E+02 -0.50437601906E+01 -0.36675941598E+02  0.42595957832E+02  0.47000000000E+01 0. -1.
        -13    1    4    4    0    0  0.27059845790E+02 -0.19277385303E+02  0.30469757525E+02  0.45080582982E+02  0.00000000000E+00 0.  1.
         14    1    4    4    0    0  0.92257187381E+02  0.64100420925E+02  0.24642175924E+02  0.11501082306E+03  0.00000000000E+00 0. -1.
         -5    1    5    5    0  502 -0.67808658730E+02  0.38963487322E+02 -0.24699248064E+02  0.82148100392E+02  0.47000000000E+01 0.  1.
         11    1    6    6    0    0 -0.39848368379E+02 -0.55968402363E+02  0.54270724202E+02  0.87553789358E+02  0.00000000000E+00 0. -1.
        -12    1    6    6    0    0  0.88768246245E+01 -0.22774360390E+02 -0.21914124281E+02  0.32828316277E+02  0.00000000000E+00 0.  1.
</event>
<event>
12    1  0.8461994E-002  0.2775526E+03  0.7818608E-02  0.1097041E+00
         21   -1    0    0  501  502  0.00000000000E+00  0.00000000000E+00  0.21476119661E+04  0.21476119661E+04  0.00000000000E+00 0.  1.
         21   -1    0    0  502  503 -0.00000000000E+00 -0.00000000000E+00 -0.37263409949E+02  0.37263409949E+02  0.00000000000E+00 0.  1.
         -6    2    1    2    0  503 -0.18498062856E+03  0.11479306847E+03  0.84332617145E+03  0.88780899997E+03  0.17207703928E+03 0.  0.
        -24    2    3    3    0    0 -0.62261238970E+02 -0.23904926870E+01  0.41239299653E+03  0.42464863159E+03  0.79851740039E+02 0.  0.
          6    2    1    2  501    0  0.18498062856E+03 -0.11479306847E+03  0.12670223847E+04  0.12970663761E+04  0.17216323398E+03 0.  0.
         24    2    5    5    0    0  0.17701272227E+03 -0.12756387069E+03  0.12573528210E+04  0.12785685010E+04  0.78709912450E+02 0.  0.
          5    1    5    5  501    0  0.79679062931E+01  0.12770802223E+02  0.96695636690E+01  0.18497875058E+02  0.47000000000E+01 0. -1.
        -11    1    6    6    0    0  0.12758724195E+03 -0.77332613424E+02  0.63762535183E+03  0.65484725448E+03  0.00000000000E+00 0.  1.
         12    1    6    6    0    0  0.49425480323E+02 -0.50231257268E+02  0.61972746920E+03  0.62372124654E+03  0.00000000000E+00 0. -1.
         -5    1    3    3    0  503 -0.12271938959E+03  0.11718356116E+03  0.43093317492E+03  0.46316036838E+03  0.47000000000E+01 0.  1.
         13    1    4    4    0    0 -0.43835389429E+02 -0.52001041476E+01  0.39962585179E+03  0.40205646851E+03  0.00000000000E+00 0. -1.
        -14    1    4    4    0    0 -0.18425849541E+02  0.28096114606E+01  0.12767144746E+02  0.22592163085E+02  0.00000000000E+00 0.  1.
</event>
<event>
12    1  0.8461994E-002  0.2378689E+03  0.7818608E-02  0.1121332E+00
         21   -1    0    0  501  502  0.00000000000E+00  0.00000000000E+00  0.48182990024E+03  0.48182990024E+03  0.00000000000E+00 0.  1.
         21   -1    0    0  502  503 -0.00000000000E+00 -0.00000000000E+00 -0.12832947366E+03  0.12832947366E+03  0.00000000000E+00 0.  1.
         -6    2    1    2    0  503 -0.81207559712E+01  0.16293684493E+03  0.86296575495E+02  0.25241714442E+03  0.17220033026E+03 0.  0.
        -24    2    3    3    0    0 -0.17061159621E+02  0.23245875860E+02  0.69822705426E+02  0.11139595434E+03  0.81868153385E+02 0.  0.
          6    2    1    2  501    0  0.81207559712E+01 -0.16293684493E+03  0.26720385109E+03  0.35774222948E+03  0.17311049247E+03 0.  0.
         24    2    5    5    0    0  0.48385570728E+02 -0.99453760001E+02  0.83199647059E+02  0.15891820055E+03  0.78106333690E+02 0.  0.
          5    1    5    5  501    0 -0.40264814757E+02 -0.63483084926E+02  0.18400420403E+03  0.19882402893E+03  0.47000000000E+01 0. -1.
        -13    1    6    6    0    0  0.26153826357E+01 -0.86706557909E+02  0.63402996168E+02  0.10744676512E+03  0.00000000000E+00 0.  1.
         14    1    6    6    0    0  0.45770188092E+02 -0.12747202091E+02  0.19796650891E+02  0.51471435434E+02  0.00000000000E+00 0. -1.
         -5    1    3    3    0  503  0.89404036500E+01  0.13969096907E+03  0.16473870069E+02  0.14102119008E+03  0.47000000000E+01 0.  1.
         11    1    4    4    0    0 -0.39312052101E+02  0.40297693472E+02  0.58423826507E+02  0.81133747869E+02  0.00000000000E+00 0. -1.
        -12    1    4    4    0    0  0.22250892480E+02 -0.17051817612E+02  0.11398878919E+02  0.30262206473E+02  0.00000000000E+00 0.  1.
</event>
<event>
12    1  0.8461994E-002  0.2440292E+03  0.7818608E-02  0.1117185E+00
         21   -1    0    0  501  502  0.00000000000E+00  0.00000000000E+00  0.81827661428E+03  0.81827661428E+03  0.00000000000E+00 0. -1.
         21   -1    0    0  502  503 -0.00000000000E+00 -0.00000000000E+00 -0.10670410156E+03  0.10670410156E+03  0.00000000000E+00 0. -1.
         -6    2    1    2    0  503  0.31468992678E+02  0.16939019033E+03  0.94802191864E+02  0.26179708868E+03  0.17282050220E+03 0.  0.
        -24    2    3    3    0    0 -0.32489113438E+02  0.13931033731E+03  0.31919071135E+02  0.16707742986E+03  0.80206782087E+02 0.  0.
          6    2    1    2  501    0 -0.31468992678E+02 -0.16939019033E+03  0.61677032085E+03  0.66318362715E+03  0.17240522196E+03 0.  0.
         24    2    5    5    0    0 -0.58197395651E+02 -0.18623262872E+03  0.55084811914E+03  0.58993131022E+03  0.80720329307E+02 0.  0.
          5    1    5    5  501    0  0.26728402973E+02  0.16842438394E+02  0.65922201719E+02  0.73252316932E+02  0.47000000000E+01 0. -1.
        -11    1    6    6    0    0  0.12883676916E+02 -0.49259487015E+02  0.20478597625E+03  0.21102081002E+03  0.00000000000E+00 0.  1.
         12    1    6    6    0    0 -0.71081072567E+02 -0.13697314171E+03  0.34606214289E+03  0.37891050021E+03  0.00000000000E+00 0. -1.
         -5    1    3    3    0  503  0.63958106116E+02  0.30079853024E+02  0.62883120729E+02  0.94719658828E+02  0.47000000000E+01 0.  1.
         13    1    4    4    0    0  0.26366399502E+02  0.52913972606E+02  0.16733403664E+02  0.61441698527E+02  0.00000000000E+00 0. -1.
        -14    1    4    4    0    0 -0.58855512940E+02  0.86396364700E+02  0.15185667471E+02  0.10563573133E+03  0.00000000000E+00 0.  1.
</event>
<event>
12    1  0.8461994E-002  0.2013209E+03  0.7818608E-02  0.1148700E+00
         21   -1    0    0  503  502  0.00000000000E+00  0.00000000000E+00  0.58671157058E+03  0.58671157058E+03  0.00000000000E+00 0.  1.
         21   -1    0    0  501  503 -0.00000000000E+00 -0.00000000000E+00 -0.14419426445E+03  0.14419426445E+03  0.00000000000E+00 0. -1.
          6    2    1    2  501    0  0.57241343431E+02 -0.86011092618E+02 -0.42621324073E+02  0.20578310001E+03  0.17278781072E+03 0.  0.
         24    2    3    3    0    0  0.84234765749E+02 -0.74053047637E+02  0.19458770342E+02  0.13687977781E+03  0.76013684325E+02 0.  0.
         -6    2    1    2    0  502 -0.57241343431E+02  0.86011092618E+02  0.48513863020E+03  0.52512273501E+03  0.17239465438E+03 0.  0.
        -24    2    5    5    0    0 -0.65599340056E+02  0.24975877074E+02  0.15051992405E+03  0.18484796052E+03  0.81150804817E+02 0.  0.
          5    1    3    3  501    0 -0.26993422317E+02 -0.11958044981E+02 -0.62080094415E+02  0.68903322204E+02  0.47000000000E+01 0. -1.
        -13    1    4    4    0    0  0.26979706891E+02 -0.18492541775E+02  0.42694095985E+02  0.53783496699E+02  0.00000000000E+00 0.  1.
         14    1    4    4    0    0  0.57255058858E+02 -0.55560505862E+02 -0.23235325643E+02  0.83096281109E+02  0.00000000000E+00 0. -1.
         -5    1    5    5    0  502  0.83579966250E+01  0.61035215544E+02  0.33461870616E+03  0.34027477449E+03  0.47000000000E+01 0.  1.
         13    1    6    6    0    0 -0.76119971737E+02  0.33538261953E+02  0.14970128061E+03  0.17125868891E+03  0.00000000000E+00 0. -1.
        -14    1    6    6    0    0  0.10520631681E+02 -0.85623848784E+01  0.81864343761E+00  0.13589271609E+02  0.00000000000E+00 0.  1.
</event>
<event>
12    1  0.8461994E-002  0.1992797E+03  0.7818608E-02  0.1150411E+00
         21   -1    0    0  501  502  0.00000000000E+00  0.00000000000E+00  0.16116839707E+03  0.16116839707E+03  0.00000000000E+00 0. -1.
         21   -1    0    0  502  503 -0.00000000000E+00 -0.00000000000E+00 -0.38878276210E+03  0.38878276210E+03  0.00000000000E+00 0.  1.
         -6    2    1    2    0  503 -0.10090132406E+03 -0.79968967773E+01 -0.28048058517E+03  0.34406649704E+03  0.17166061916E+03 0.  0.
        -24    2    3    3    0    0 -0.56095035341E+02  0.13713117260E+02 -0.54412572401E+02  0.11253299057E+03  0.79801274152E+02 0.  0.
          6    2    1    2  501    0  0.10090132406E+03  0.79968967773E+01  0.52866220134E+02  0.20588466213E+03  0.17131441654E+03 0.  0.
         24    2    5    5    0    0  0.11874048895E+03 -0.36179705510E+02  0.22840257621E+02  0.14937398687E+03  0.79891399915E+02 0.  0.
          5    1    5    5  501    0 -0.17839164887E+02  0.44176602288E+02  0.30025962513E+02  0.56510675260E+02  0.47000000000E+01 0. -1.
        -13    1    6    6    0    0  0.22630392618E+02  0.24559974136E+02  0.10517784438E+02  0.35013580067E+02  0.00000000000E+00 0.  1.
         14    1    6    6    0    0  0.96110096327E+02 -0.60739679646E+02  0.12322473183E+02  0.11436040681E+03  0.00000000000E+00 0. -1.
         -5    1    3    3    0  503 -0.44806288717E+02 -0.21710014037E+02 -0.22606801277E+03  0.23153350647E+03  0.47000000000E+01 0.  1.
         13    1    4    4    0    0 -0.69733680192E+02  0.22024700561E+02 -0.21947108568E+02  0.76351484350E+02  0.00000000000E+00 0. -1.
        -14    1    4    4    0    0  0.13638644851E+02 -0.83115833014E+01 -0.32465463833E+02  0.36181506219E+02  0.00000000000E+00 0.  1.
</event>
<event>
12    1  0.8461994E-002  0.2526342E+03  0.7818608E-02  0.1112820E+00
         21   -1    0    0  501  502  0.00000000000E+00  0.00000000000E+00  0.82199676376E+03  0.82199676376E+03  0.00000000000E+00 0.  1.
         21   -1    0    0  502  503 -0.00000000000E+00 -0.00000000000E+00 -0.75599709995E+02  0.75599709995E+02  0.00000000000E+00 0.  1.
         -6    2    1    2    0  503  0.95553251761E+02 -0.14306579931E+03  0.40212891077E+03  0.47490178697E+03  0.18500216090E+03 0.  0.
        -24    2    3    3    0    0  0.11629633807E+03 -0.16311655147E+03  0.30477238921E+03  0.37325194397E+03  0.79365967754E+02 0.  0.
          6    2    1    2  501    0 -0.95553251761E+02  0.14306579931E+03  0.34426814300E+03  0.42269468679E+03  0.17479129584E+03 0.  0.
         24    2    5    5    0    0 -0.33861466497E+02  0.14130963748E+03  0.16859987633E+03  0.23644112202E+03  0.79771381624E+02 0.  0.
          5    1    5    5  501    0 -0.61691785264E+02  0.17561618220E+01  0.17566826667E+03  0.18625356477E+03  0.47000000000E+01 0. -1.
        -11    1    6    6    0    0 -0.17739776006E+02  0.10809239753E+03  0.16670163365E+03  0.19946954835E+03  0.00000000000E+00 0.  1.
         12    1    6    6    0    0 -0.16121690491E+02  0.33217239952E+02  0.18982426727E+01  0.36971573669E+02  0.00000000000E+00 0. -1.
         -5    1    3    3    0  503 -0.20743086314E+02  0.20050752163E+02  0.97356521558E+02  0.10164984300E+03  0.47000000000E+01 0.  1.
         11    1    4    4    0    0  0.18631485824E+02 -0.87342556606E+02  0.10011011032E+03  0.13415620987E+03  0.00000000000E+00 0. -1.
        -12    1    4    4    0    0  0.97664852250E+02 -0.75773994863E+02  0.20466227889E+03  0.23909573410E+03  0.00000000000E+00 0.  1.
</event>
<event>
12    1  0.8461994E-002  0.2375104E+03  0.7818608E-02  0.1121584E+00
         21   -1    0    0  503  502  0.00000000000E+00  0.00000000000E+00  0.55833894018E+03  0.55833894018E+03  0.00000000000E+00 0.  1.
         21   -1    0    0  501  503 -0.00000000000E+00 -0.00000000000E+00 -0.12594029332E+03  0.12594029332E+03  0.00000000000E+00 0.  1.
          6    2    1    2  501    0 -0.61862620769E+02  0.15124844068E+03  0.62859014096E+02  0.24499487115E+03  0.17137139954E+03 0.  0.
         24    2    3    3    0    0 -0.27123239808E+02  0.66203530365E+02  0.99258318485E+02  0.14606832911E+03  0.79781986757E+02 0.  0.
         -6    2    1    2    0  502  0.61862620769E+02 -0.15124844068E+03  0.36953963276E+03  0.43928436235E+03  0.17236048318E+03 0.  0.
        -24    2    5    5    0    0  0.54755001308E+02 -0.92267541211E+02  0.35321362111E+03  0.37749525802E+03  0.78939206769E+02 0.  0.
          5    1    3    3  501    0 -0.34739380961E+02  0.85044910315E+02 -0.36399304389E+02  0.98926542041E+02  0.47000000000E+01 0. -1.
        -11    1    4    4    0    0  0.14838010128E+02  0.63102593463E+02  0.65134718148E+02  0.91894697097E+02  0.00000000000E+00 0.  1.
         12    1    4    4    0    0 -0.41961249936E+02  0.31009369025E+01  0.34123600338E+02  0.54173632017E+02  0.00000000000E+00 0. -1.
         -5    1    5    5    0  502  0.71076194608E+01 -0.58980899470E+02  0.16326011657E+02  0.61789104325E+02  0.47000000000E+01 0.  1.
         11    1    6    6    0    0  0.31723565517E+02  0.93602819811E+00  0.48047217340E+02  0.57582947580E+02  0.00000000000E+00 0. -1.
        -12    1    6    6    0    0  0.23031435791E+02 -0.93203569409E+02  0.30516640377E+03  0.31991231044E+03  0.00000000000E+00 0.  1.
</event>
<event>
12    1  0.8461994E-002  0.2210874E+03  0.7818608E-02  0.1133359E+00
         21   -1    0    0  501  502  0.00000000000E+00  0.00000000000E+00  0.18780992814E+03  0.18780992814E+03  0.00000000000E+00 0.  1.
         21   -1    0    0  502  503 -0.00000000000E+00 -0.00000000000E+00 -0.26328406741E+03  0.26328406741E+03  0.00000000000E+00 0. -1.
         -6    2    1    2    0  503 -0.11087568014E+03 -0.82355051887E+02 -0.68383655087E+02  0.23142162028E+03  0.17263797680E+03 0.  0.
        -24    2    3    3    0    0 -0.96724884495E+02 -0.17629456597E+02 -0.96914320465E+02  0.15913236402E+03  0.79146842947E+02 0.  0.
          6    2    1    2  501    0  0.11087568014E+03  0.82355051887E+02 -0.70904841832E+01  0.21967237527E+03  0.17067485601E+03 0.  0.
         24    2    5    5    0    0  0.48883928399E+02  0.82671174422E+02  0.51107218387E+02  0.13451287902E+03  0.79105027115E+02 0.  0.
          5    1    5    5  501    0  0.61991751738E+02 -0.31612253480E+00 -0.58197702570E+02  0.85159496250E+02  0.47000000000E+01 0. -1.
        -11    1    6    6    0    0  0.38027076807E+02 -0.13786923285E+01  0.26132722387E+02  0.46161439995E+02  0.00000000000E+00 0.  1.
         12    1    6    6    0    0  0.10856851592E+02  0.84049866751E+02  0.24974496000E+02  0.88351439025E+02  0.00000000000E+00 0. -1.
         -5    1    3    3    0  503 -0.14150795642E+02 -0.64725595291E+02  0.28530665378E+02  0.72289256255E+02  0.47000000000E+01 0.  1.
         11    1    4    4    0    0  0.50223056518E+01 -0.10713799977E+02  0.68253061502E+01  0.13659936605E+02  0.00000000000E+00 0. -1.
        -12    1    4    4    0    0 -0.10174719015E+03 -0.69156566201E+01 -0.10373962661E+03  0.14547242742E+03  0.00000000000E+00 0.  1.
</event>
<event>
12    1  0.8461994E-002  0.2299468E+03  0.7818608E-02  0.1126853E+00
         21   -1    0    0  501  502  0.00000000000E+00  0.00000000000E+00  0.36402770939E+03  0.36402770939E+03  0.00000000000E+00 0. -1.
         21   -1    0    0  502  503 -0.00000000000E+00 -0.00000000000E+00 -0.28957580063E+03  0.28957580063E+03  0.00000000000E+00 0. -1.
         -6    2    1    2    0  503  0.90073381617E+02 -0.12368216584E+03 -0.19402864757E+03  0.30011044084E+03  0.17031931305E+03 0.  0.
        -24    2    3    3    0    0 -0.11451256318E+02 -0.60640791495E+02 -0.12518390426E+03  0.16211350004E+03  0.82470237940E+02 0.  0.
          6    2    1    2  501    0 -0.90073381617E+02  0.12368216584E+03  0.26848055633E+03  0.35349306918E+03  0.17165386278E+03 0.  0.
         24    2    5    5    0    0 -0.11300555921E+03  0.75182956010E+02  0.12853574800E+03  0.20354408618E+03  0.80535850518E+02 0.  0.
          5    1    5    5  501    0  0.22932177594E+02  0.48499209830E+02  0.13994480833E+03  0.14994898300E+03  0.47000000000E+01 0. -1.
        -11    1    6    6    0    0 -0.93906653829E+02  0.50432276298E+02  0.13460403709E+03  0.17169776040E+03  0.00000000000E+00 0.  1.
         12    1    6    6    0    0 -0.19098905382E+02  0.24750679712E+02 -0.60682890938E+01  0.31846325777E+02  0.00000000000E+00 0. -1.
         -5    1    3    3    0  503  0.10152463793E+03 -0.63041374346E+02 -0.68844743318E+02  0.13799694080E+03  0.47000000000E+01 0.  1.
         11    1    4    4    0    0  0.21542456184E+02 -0.98047970367E+01 -0.87736742455E+02  0.90873249309E+02  0.00000000000E+00 0. -1.
        -12    1    4    4    0    0 -0.32993712501E+02 -0.50835994458E+02 -0.37447161801E+02  0.71240250730E+02  0.00000000000E+00 0.  1.
</event>
<event>
12    1  0.8461994E-002  0.1937816E+03  0.7818608E-02  0.1155282E+00
         21   -1    0    0  503  502  0.00000000000E+00  0.00000000000E+00  0.14259042804E+03  0.14259042804E+03  0.00000000000E+00 0.  1.
         21   -1    0    0  501  503 -0.00000000000E+00 -0.00000000000E+00 -0.30031372457E+03  0.30031372457E+03  0.00000000000E+00 0.  1.
          6    2    1    2  501    0  0.72426942145E+02  0.49235651206E+02 -0.15760592869E+03  0.24912256703E+03  0.17190873552E+03 0.  0.
         24    2    3    3    0    0  0.71164562083E+02  0.97324977346E+02 -0.13191600801E+03  0.19438465588E+03  0.76465777722E+02 0.  0.
         -6    2    1    2    0  502 -0.72426942145E+02 -0.49235651206E+02 -0.11736784107E+00  0.19378158558E+03  0.17286259814E+03 0.  0.
        -24    2    5    5    0    0  0.10468317550E+02 -0.11161186246E+01 -0.36227696503E+02  0.91247887063E+02  0.83083689773E+02 0.  0.
          5    1    3    3  501    0  0.12623800623E+01 -0.48089326140E+02 -0.25689920678E+02  0.54737911144E+02  0.47000000000E+01 0. -1.
        -13    1    4    4    0    0  0.24251586354E+02 -0.40911419362E+01 -0.46587897493E+01  0.25031604123E+02  0.00000000000E+00 0.  1.
         14    1    4    4    0    0  0.46912975729E+02  0.10141611928E+03 -0.12725721826E+03  0.16935305176E+03  0.00000000000E+00 0. -1.
         -5    1    5    5    0  502 -0.82895259695E+02 -0.48119532582E+02  0.36110328662E+02  0.10253369852E+03  0.47000000000E+01 0.  1.
         11    1    6    6    0    0  0.16694127338E+02 -0.30285356505E+02  0.10209338175E+02  0.36057277936E+02  0.00000000000E+00 0. -1.
        -12    1    6    6    0    0 -0.62258097883E+01  0.29169237880E+02 -0.46437034678E+02  0.55190609126E+02  0.00000000000E+00 0.  1.
</event>
<event>
12    1  0.8461994E-002  0.1804092E+03  0.7818608E-02  0.1167766E+00
         21   -1    0    0  501  502  0.00000000000E+00  0.00000000000E+00  0.39564816378E+02  0.39564816378E+02  0.00000000000E+00 0. -1.
         21   -1    0    0  502  503 -0.00000000000E+00 -0.00000000000E+00 -0.14860796255E+04  0.14860796255E+04  0.00000000000E+00 0. -1.
         -6    2    1    2    0  503  0.26885836462E+02  0.47735083157E+02 -0.21262721289E+03  0.27885086814E+03  0.17188946633E+03 0.  0.
        -24    2    3    3    0    0 -0.42878442794E+02  0.56535189173E+02 -0.15274631877E+03  0.18637217866E+03  0.79802021355E+02 0.  0.
          6    2    1    2  501    0 -0.26885836462E+02 -0.47735083157E+02 -0.12338875962E+04  0.12467935737E+04  0.17033534281E+03 0.  0.
         24    2    5    5    0    0  0.24266406336E+02 -0.12379421182E+02 -0.32531615541E+03  0.33608465874E+03  0.79876081054E+02 0.  0.
          5    1    5    5  501    0 -0.51152242798E+02 -0.35355661975E+02 -0.90857144080E+03  0.91070891498E+03  0.47000000000E+01 0. -1.
        -13    1    6    6    0    0  0.43845927851E+02 -0.29077521419E+02 -0.15152812560E+03  0.16040180950E+03  0.00000000000E+00 0.  1.
         14    1    6    6    0    0 -0.19579521514E+02  0.16698100237E+02 -0.17378802980E+03  0.17568284924E+03  0.00000000000E+00 0. -1.
         -5    1    3    3    0  503  0.69764279256E+02 -0.88001060166E+01 -0.59880894123E+02  0.92478689475E+02  0.47000000000E+01 0.  1.
         13    1    4    4    0    0 -0.10587857215E+02  0.51821318310E+02 -0.33191618194E+02  0.62443856944E+02  0.00000000000E+00 0. -1.
        -14    1    4    4    0    0 -0.32290585579E+02  0.47138708635E+01 -0.11955470057E+03  0.12392832172E+03  0.00000000000E+00 0.  1.
</event>
<event>
12    1  0.8461994E-002  0.2115590E+03  0.7818608E-02  0.1140844E+00
         21   -1    0    0  503  502  0.00000000000E+00  0.00000000000E+00  0.47640121272E+03  0.47640121272E+03  0.00000000000E+00 0.  1.
         21   -1    0    0  501  503 -0.00000000000E+00 -0.00000000000E+00 -0.10896111045E+03  0.10896111045E+03  0.00000000000E+00 0. -1.
          6    2    1    2  501    0 -0.11173980365E+03  0.45719712777E+02  0.70092919287E+02  0.22043415163E+03  0.17059344071E+03 0.  0.
         24    2    3    3    0    0 -0.76717017698E+02  0.10749052325E+02 -0.24435737312E+02  0.11362919132E+03  0.79457189296E+02 0.  0.
         -6    2    1    2    0  502  0.11173980365E+03 -0.45719712777E+02  0.29734718298E+03  0.36492817154E+03  0.17372722097E+03 0.  0.
        -24    2    5    5    0    0 -0.84140700663E+01 -0.43173259447E+02  0.12851370850E+03  0.15763545604E+03  0.79990229556E+02 0.  0.
          5    1    3    3  501    0 -0.35022785950E+02  0.34970660453E+02  0.94528656599E+02  0.10680496031E+03  0.47000000000E+01 0. -1.
        -13    1    4    4    0    0 -0.66932526749E+02  0.35357165829E+02  0.26565879884E+01  0.75743975155E+02  0.00000000000E+00 0.  1.
         14    1    4    4    0    0 -0.97844909496E+01 -0.24608113505E+02 -0.27092325301E+02  0.37885216162E+02  0.00000000000E+00 0. -1.
         -5    1    5    5    0  502  0.12015387371E+03 -0.25464533302E+01  0.16883347448E+03  0.20729271550E+03  0.47000000000E+01 0.  1.
         11    1    6    6    0    0  0.17288758772E+02 -0.30017141627E+02  0.12357963315E+03  0.12834272749E+03  0.00000000000E+00 0. -1.
        -12    1    6    6    0    0 -0.25702828839E+02 -0.13156117821E+02  0.49340753477E+01  0.29292728551E+02  0.00000000000E+00 0.  1.
</event>
<event>
12    1  0.8461994E-002  0.1914628E+03  0.7818608E-02  0.1157314E+00
         21   -1    0    0  503  502  0.00000000000E+00  0.00000000000E+00  0.46164482868E+03  0.46164482868E+03  0.00000000000E+00 0.  1.
         21   -1    0    0  501  503 -0.00000000000E+00 -0.00000000000E+00 -0.11541895799E+03  0.11541895799E+03  0.00000000000E+00 0. -1.
          6    2    1    2  501    0 -0.62699557033E+01 -0.83941708205E+02  0.11492210318E+02  0.19180742077E+03  0.17196654630E+03 0.  0.
         24    2    3    3    0    0  0.33454004871E+02 -0.66749889052E+02  0.61663445461E+02  0.12537855261E+03  0.79640961938E+02 0.  0.
         -6    2    1    2    0  502  0.62699557033E+01  0.83941708205E+02  0.33473366037E+03  0.38525636589E+03  0.17114415372E+03 0.  0.
        -24    2    5    5    0    0  0.86990059126E+01  0.12319066711E+03  0.29147443301E+03  0.32660628651E+03  0.80390970397E+02 0.  0.
          5    1    3    3  501    0 -0.39723960575E+02 -0.17191819153E+02 -0.50171235143E+02  0.66428868162E+02  0.47000000000E+01 0. -1.
        -13    1    4    4    0    0 -0.25601380530E+02 -0.27126049981E+02  0.28324317110E+02  0.46835031893E+02  0.00000000000E+00 0.  1.
         14    1    4    4    0    0  0.59055385402E+02 -0.39623839071E+02  0.33339128351E+02  0.78543520719E+02  0.00000000000E+00 0. -1.
         -5    1    5    5    0  502 -0.24290502093E+01 -0.39248958902E+02  0.43259227361E+02  0.58650079384E+02  0.47000000000E+01 0.  1.
         13    1    6    6    0    0 -0.18046693019E+02  0.93701466302E+02  0.13614527748E+03  0.16625638182E+03  0.00000000000E+00 0. -1.
        -14    1    6    6    0    0  0.26745698931E+02  0.29489200806E+02  0.15532915553E+03  0.16034990469E+03  0.00000000000E+00 0.  1.
</event>
<event>
12    1  0.8461994E-002  0.1880708E+03  0.7818608E-02  0.1161284E+00
         21   -1    0    0  501  502  0.00000000000E+00  0.00000000000E+00  0.24836530478E+03  0.24836530478E+03  0.00000000000E+00 0. -1.
         21   -1    0    0  502  503 -0.00000000000E+00 -0.00000000000E+00 -0.39880788201E+03  0.39880788201E+03  0.00000000000E+00 0.  1.
         -6    2    1    2    0  503  0.38931760586E+02  0.67839476305E+02 -0.33609891935E+03  0.38290268363E+03  0.16593403816E+03 0.  0.
        -24    2    3    3    0    0  0.17226692130E+02 -0.25911844533E+02 -0.15374469975E+03  0.17666114669E+03  0.81262201791E+02 0.  0.
          6    2    1    2  501    0 -0.38931760586E+02 -0.67839476305E+02  0.18565634211E+03  0.26427050316E+03  0.17103433850E+03 0.  0.
         24    2    5    5    0    0  0.97038019912E+01 -0.58997488652E+02  0.36459070390E+02  0.10702701495E+03  0.80936090072E+02 0.  0.
          5    1    5    5  501    0 -0.48635562577E+02 -0.88419876522E+01  0.14919727172E+03  0.15724348820E+03  0.47000000000E+01 0. -1.
        -11    1    6    6    0    0 -0.32634311038E+02 -0.45508188849E+02  0.17050310050E+02  0.58538078052E+02  0.00000000000E+00 0.  1.
         12    1    6    6    0    0  0.42338113029E+02 -0.13489299803E+02  0.19408760340E+02  0.48488936903E+02  0.00000000000E+00 0. -1.
         -5    1    3    3    0  503  0.21705068456E+02  0.93751320837E+02 -0.18235421959E+03  0.20624153694E+03  0.47000000000E+01 0.  1.
         11    1    4    4    0    0 -0.32781832964E+02 -0.68059206026E+01 -0.59526057287E+02  0.68295831672E+02  0.00000000000E+00 0. -1.
        -12    1    4    4    0    0  0.50008525094E+02 -0.19105923930E+02 -0.94218642468E+02  0.10836531502E+03  0.00000000000E+00 0.  1.
</event>
<event>
12    1  0.8461994E-002  0.1727642E+03  0.7818608E-02  0.1175963E+00
         21   -1    0    0  503  502  0.00000000000E+00  0.00000000000E+00  0.18367276660E+03  0.18367276660E+03  0.00000000000E+00 0. -1.
         21   -1    0    0  501  503 -0.00000000000E+00 -0.00000000000E+00 -0.11340242570E+04  0.11340242570E+04  0.00000000000E+00 0. -1.
          6    2    1    2  501    0 -0.97557015531E+01 -0.17168074319E+02 -0.10853574229E+04  0.10984390030E+04  0.16786182236E+03 0.  0.
         24    2    3    3    0    0  0.50097301099E+02 -0.16370901777E+02 -0.85978819965E+03  0.86501539262E+03  0.78981866349E+02 0.  0.
         -6    2    1    2    0  502  0.97557015531E+01  0.17168074319E+02  0.13500593245E+03  0.21925802063E+03  0.17163205215E+03 0.  0.
        -24    2    5    5    0    0  0.65847133610E+02  0.22592882364E+02  0.12335170231E+03  0.16152078504E+03  0.77634001580E+02 0.  0.
          5    1    3    3  501    0 -0.59853002653E+02 -0.79717254245E+00 -0.22556922324E+03  0.23342361038E+03  0.47000000000E+01 0. -1.
        -11    1    4    4    0    0  0.25922139279E+02  0.28579649657E+02 -0.23505417772E+03  0.23819995832E+03  0.00000000000E+00 0.  1.
         12    1    4    4    0    0  0.24175161820E+02 -0.44950551434E+02 -0.62473402193E+03  0.62681543430E+03  0.00000000000E+00 0. -1.
         -5    1    5    5    0  502 -0.56091432057E+02 -0.54248080441E+01  0.11654230146E+02  0.57737235583E+02  0.47000000000E+01 0.  1.
         11    1    6    6    0    0  0.47179827235E+02  0.27339019827E+02  0.13013709552E+03  0.14109933286E+03  0.00000000000E+00 0. -1.
        -12    1    6    6    0    0  0.18667306375E+02 -0.47461374639E+01 -0.67853932166E+01  0.20421452182E+02  0.00000000000E+00 0.  1.
</event>
<event>
12    1  0.8461994E-002  0.2181603E+03  0.7818608E-02  0.1135671E+00
         21   -1    0    0  501  502  0.00000000000E+00  0.00000000000E+00  0.90987694181E+02  0.90987694181E+02  0.00000000000E+00 0. -1.
         21   -1    0    0  502  503 -0.00000000000E+00 -0.00000000000E+00 -0.51796079476E+03  0.51796079476E+03  0.00000000000E+00 0. -1.
         -6    2    1    2    0  503 -0.55827902669E+02 -0.12035107689E+03 -0.21181597993E+03  0.30407226143E+03  0.17318427871E+03 0.  0.
        -24    2    3    3    0    0  0.17909106348E+02 -0.78506423380E+01 -0.71154467959E+02  0.10938983998E+03  0.80751533140E+02 0.  0.
          6    2    1    2  501    0  0.55827902669E+02  0.12035107689E+03 -0.21515712066E+03  0.30487622752E+03  0.17045759328E+03 0.  0.
         24    2    5    5    0    0  0.91926236906E+02  0.11621087332E+03 -0.13145224460E+03  0.21350431008E+03  0.79680598032E+02 0.  0.
          5    1    5    5  501    0 -0.36098334238E+02  0.41402035788E+01 -0.83704876057E+02  0.91371917437E+02  0.47000000000E+01 0. -1.
        -13    1    6    6    0    0  0.94398612302E+01  0.62224180342E+02 -0.23164315260E+02  0.67063739090E+02  0.00000000000E+00 0.  1.
         14    1    6    6    0    0  0.82486375676E+02  0.53986692974E+02 -0.10828792934E+03  0.14644057099E+03  0.00000000000E+00 0. -1.
         -5    1    3    3    0  503 -0.73737009017E+02 -0.11250043456E+03 -0.14066151197E+03  0.19468242145E+03  0.47000000000E+01 0.  1.
         11    1    4    4    0    0  0.11952123226E+02 -0.27616332056E+02  0.49845619047E+01  0.30501818032E+02  0.00000000000E+00 0. -1.
        -12    1    4    4    0    0  0.59569831228E+01  0.19765689718E+02 -0.76139029864E+02  0.78888021946E+02  0.00000000000E+00 0.  1.
</event>
<event>
12    1  0.8461994E-002  0.1766036E+03  0.7818608E-02  0.1172272E+00
         21   -1    0    0  501  502  0.00000000000E+00  0.00000000000E+00  0.24108932525E+03  0.24108932525E+03  0.00000000000E+00 0.  1.
         21   -1    0    0  502  503 -0.00000000000E+00 -0.00000000000E+00 -0.14420053031E+03  0.14420053031E+03  0.00000000000E+00 0.  1.
         -6    2    1    2    0  503  0.13005565885E+02 -0.65244585465E+01 -0.19315631912E+02  0.17765674514E+03  0.17600315950E+03 0.  0.
        -24    2    3    3    0    0  0.30543446688E+02 -0.38928504158E+02  0.45303425204E+02  0.10312277988E+03  0.78317155354E+02 0.  0.
          6    2    1    2  501    0 -0.13005565885E+02  0.65244585465E+01  0.11620442685E+03  0.20763311042E+03  0.17145356928E+03 0.  0.
         24    2    5    5    0    0  0.57738636196E+02 -0.12762980818E+02  0.63230745702E+02  0.11705138854E+03  0.78779797963E+02 0.  0.
          5    1    5    5  501    0 -0.70744202081E+02  0.19287439364E+02  0.52973681152E+02  0.90581721887E+02  0.47000000000E+01 0. -1.
        -13    1    6    6    0    0  0.66955493963E+02  0.71380681440E+01  0.22862888493E+02  0.71110490498E+02  0.00000000000E+00 0.  1.
         14    1    6    6    0    0 -0.92168577673E+01 -0.19901048962E+02  0.40367857208E+02  0.45940898037E+02  0.00000000000E+00 0. -1.
         -5    1    3    3    0  503 -0.17537880803E+02  0.32404045612E+02 -0.64619057115E+02  0.74533965261E+02  0.47000000000E+01 0.  1.
         11    1    4    4    0    0  0.10290872188E+02 -0.15285341034E+01 -0.21525406837E+02  0.23907772928E+02  0.00000000000E+00 0. -1.
        -12    1    4    4    0    0  0.20252574499E+02 -0.37399970055E+02  0.66828832040E+02  0.79215006948E+02  0.00000000000E+00 0.  1.
</event>
<event>
12    1  0.8461994E-002  0.3107180E+03  0.7818608E-02  0.1080025E+00
         21   -1    0    0  501  502  0.00000000000E+00  0.00000000000E+00  0.20108970589E+03  0.20108970589E+03  0.00000000000E+00 0.  1.
         21   -1    0    0  502  503 -0.00000000000E+00 -0.00000000000E+00 -0.97442197001E+03  0.97442197001E+03  0.00000000000E+00 0. -1.
         -6    2    1    2    0  503  0.15848338421E+03  0.20465360835E+03 -0.80547193262E+03  0.86332537709E+03  0.17188830679E+03 0.  0.
        -24    2    3    3    0    0  0.91133253841E+02  0.31689304739E+02 -0.30033583130E+03  0.32514579625E+03  0.78795274365E+02 0.  0.
          6    2    1    2  501    0 -0.15848338421E+03 -0.20465360835E+03  0.32139668502E+02  0.31218629881E+03  0.17154370986E+03 0.  0.
         24    2    5    5    0    0 -0.67729836088E+02 -0.72199688522E+02  0.69896618761E+02  0.14717743642E+03  0.83519666888E+02 0.  0.
          5    1    5    5  501    0 -0.90753548123E+02 -0.13245391983E+03 -0.37756950259E+02  0.16500886239E+03  0.47000000000E+01 0. -1.
        -11    1    6    6    0    0 -0.87257471005E+02 -0.57927558707E+02  0.62115188290E+02  0.12176931026E+03  0.00000000000E+00 0.  1.
         12    1    6    6    0    0  0.19527634917E+02 -0.14272129815E+02  0.77814304712E+01  0.25408126162E+02  0.00000000000E+00 0. -1.
         -5    1    3    3    0  503  0.67350130370E+02  0.17296430361E+03 -0.50513610131E+03  0.53817958084E+03  0.47000000000E+01 0.  1.
         13    1    4    4    0    0 -0.36187136102E+00  0.32073945978E+02 -0.61044902032E+02  0.68959038751E+02  0.00000000000E+00 0. -1.
        -14    1    4    4    0    0  0.91495125202E+02 -0.38464123921E+00 -0.23929092927E+03  0.25618675750E+03  0.00000000000E+00 0.  1.
</event>
<event>
12    1  0.8461994E-002  0.2754696E+03  0.7818608E-02  0.1098329E+00
         21   -1    0    0  503  502  0.00000000000E+00  0.00000000000E+00  0.22250880564E+03  0.22250880564E+03  0.00000000000E+00 0.  1.
         21   -1    0    0  501  503 -0.00000000000E+00 -0.00000000000E+00 -0.48452817492E+03  0.48452817492E+03  0.00000000000E+00 0. -1.
          6    2    1    2  501    0  0.21021056323E+03  0.44679093440E+02 -0.32438944605E+03  0.42557253955E+03  0.17233331490E+03 0.  0.
         24    2    3    3    0    0  0.10770207227E+03  0.75930803431E+02 -0.12034387825E+03  0.19504847608E+03  0.78714901449E+02 0.  0.
         -6    2    1    2    0  502 -0.21021056323E+03 -0.44679093440E+02  0.62370076769E+02  0.28146444100E+03  0.17072639745E+03 0.  0.
        -24    2    5    5    0    0 -0.54397271245E+02  0.28933617770E+02  0.28439185088E+02  0.10576581089E+03  0.81125841440E+02 0.  0.
          5    1    3    3  501    0  0.10250849097E+03 -0.31251709991E+02 -0.20404556780E+03  0.23052406346E+03  0.47000000000E+01 0. -1.
        -11    1    4    4    0    0  0.24165565642E+02 -0.14369508057E+02 -0.10133723721E+02  0.29885609933E+02  0.00000000000E+00 0.  1.
         12    1    4    4    0    0  0.83536506623E+02  0.90300311487E+02 -0.11021015453E+03  0.16516286615E+03  0.00000000000E+00 0. -1.
         -5    1    5    5    0  502 -0.15581329199E+03 -0.73612711210E+02  0.33930891682E+02  0.17569863011E+03  0.47000000000E+01 0.  1.
         13    1    6    6    0    0 -0.12180834474E+02  0.13745262353E+02 -0.28111567851E+02  0.33579237822E+02  0.00000000000E+00 0. -1.
        -14    1    6    6    0    0 -0.42216436771E+02  0.15188355417E+02  0.56550752939E+02  0.72186573072E+02  0.00000000000E+00 0.  1.
</event>
<event>
12    1  0.8461994E-002  0.2505319E+03  0.7818608E-02  0.1113008E+00
         21   -1    0    0  503  502  0.00000000000E+00  0.00000000000E+00  0.68683580097E+02  0.68683580097E+02  0.00000000000E+00 0.  1.
         21   -1    0    0  501  503 -0.00000000000E+00 -0.00000000000E+00 -0.10930321599E+04  0.10930321599E+04  0.00000000000E+00 0.  1.
          6    2    1    2  501    0  0.18793800067E+02  0.18067027061E+03 -0.74815274314E+03  0.78898589559E+03  0.17254350976E+03 0.  0.
         24    2    3    3    0    0  0.34589538559E+02  0.19065182378E+03 -0.53001041077E+03  0.56999433427E+03  0.80236846160E+02 0.  0.
         -6    2    1    2    0  502 -0.18793800067E+02 -0.18067027061E+03 -0.27619583667E+03  0.37272984442E+03  0.17218723275E+03 0.  0.
        -24    2    5    5    0    0 -0.70221356455E+02 -0.10023198989E+03 -0.11531221362E+03  0.18559155137E+03  0.78548243953E+02 0.  0.
          5    1    3    3  501    0 -0.15795738491E+02 -0.99815531644E+01 -0.21814233237E+03  0.21899156132E+03  0.47000000000E+01 0. -1.
        -13    1    4    4    0    0 -0.25265667903E+02  0.36981283097E+02 -0.11611028355E+03  0.12444905471E+03  0.00000000000E+00 0.  1.
         14    1    4    4    0    0  0.59855206462E+02  0.15367054068E+03 -0.41390012723E+03  0.44554527955E+03  0.00000000000E+00 0. -1.
         -5    1    5    5    0  502  0.51427556388E+02 -0.80438280725E+02 -0.16088362305E+03  0.18713829306E+03  0.47000000000E+01 0.  1.
         13    1    6    6    0    0 -0.43311208808E+02 -0.59333040216E+01 -0.55791163944E+02  0.70878197489E+02  0.00000000000E+00 0. -1.
        -14    1    6    6    0    0 -0.26910147647E+02 -0.94298685868E+02 -0.59521049679E+02  0.11471335388E+03  0.00000000000E+00 0.  1.
</event>
<event>
12    1  0.8461994E-002  0.2041851E+03  0.7818608E-02  0.1146460E+00
         21   -1    0    0  503  502  0.00000000000E+00  0.00000000000E+00  0.46905862502E+03  0.46905862502E+03  0.00000000000E+00 0.  1.
         21   -1    0    0  501  503 -0.00000000000E+00 -0.00000000000E+00 -0.13019465465E+03  0.13019465465E+03  0.00000000000E+00 0. -1.
          6    2    1    2  501    0  0.56753448761E+02 -0.92825384491E+02  0.52448146712E-01  0.20418507653E+03  0.17278320744E+03 0.  0.
         24    2    3    3    0    0  0.23595737759E+00 -0.11387478299E+03 -0.19443782546E+02  0.14062803899E+03  0.80191413474E+02 0.  0.
         -6    2    1    2    0  502 -0.56753448761E+02  0.92825384491E+02  0.33881152222E+03  0.39506820314E+03  0.17160457916E+03 0.  0.
        -24    2    5    5    0    0  0.87864320980E+01  0.10504162343E+03  0.24112593673E+03  0.27670741533E+03  0.85523869741E+02 0.  0.
          5    1    3    3  501    0  0.56517491383E+02  0.21049398497E+02  0.19496230693E+02  0.63557037537E+02  0.47000000000E+01 0. -1.
        -11    1    4    4    0    0  0.14853494086E+01 -0.65594702156E+02  0.29436783844E+02  0.71912415179E+02  0.00000000000E+00 0.  1.
         12    1    4    4    0    0 -0.12493920310E+01 -0.48280080831E+02 -0.48880566390E+02  0.68715623814E+02  0.00000000000E+00 0. -1.
         -5    1    5    5    0  502 -0.65539880859E+02 -0.12216238940E+02  0.97685585490E+02  0.11836078780E+03  0.47000000000E+01 0.  1.
         11    1    6    6    0    0  0.34925671672E+02  0.15543079920E+02  0.10473199320E+03  0.11149071833E+03  0.00000000000E+00 0. -1.
        -12    1    6    6    0    0 -0.26139239574E+02  0.89498543511E+02  0.13639394353E+03  0.16521669700E+03  0.00000000000E+00 0.  1.
</event>
<event>
12    1  0.8461994E-002  0.2054298E+03  0.7818608E-02  0.1145636E+00
         21   -1    0    0  503  502  0.00000000000E+00  0.00000000000E+00  0.10699917240E+03  0.10699917240E+03  0.00000000000E+00 0.  1.
         21   -1    0    0  501  503 -0.00000000000E+00 -0.00000000000E+00 -0.10582154311E+04  0.10582154311E+04  0.00000000000E+00 0.  1.
          6    2    1    2  501    0 -0.60809339287E+02 -0.90922610261E+02 -0.93917389606E+03  0.96137869473E+03  0.17388700595E+03 0.  0.
         24    2    3    3    0    0 -0.10262069171E+02 -0.77404181839E+02 -0.85424624924E+03  0.86151594082E+03  0.79852016397E+02 0.  0.
         -6    2    1    2    0  502  0.60809339287E+02  0.90922610261E+02 -0.12042362654E+02  0.20383590878E+03  0.17157902672E+03 0.  0.
        -24    2    5    5    0    0 -0.12617023753E+02  0.80063636317E+01  0.32220356582E+02  0.84471705363E+02  0.76642197788E+02 0.  0.
          5    1    3    3  501    0 -0.50547270116E+02 -0.13518428421E+02 -0.84927646819E+02  0.99862753904E+02  0.47000000000E+01 0. -1.
        -11    1    4    4    0    0 -0.39754090015E+02 -0.54596825723E+02 -0.67884425206E+03  0.68219551421E+03  0.00000000000E+00 0.  1.
         12    1    4    4    0    0  0.29492020845E+02 -0.22807356116E+02 -0.17540199719E+03  0.17932042662E+03  0.00000000000E+00 0. -1.
         -5    1    5    5    0  502  0.73426363039E+02  0.82916246629E+02 -0.44262719236E+02  0.11936420342E+03  0.47000000000E+01 0.  1.
         13    1    6    6    0    0  0.14684114082E+02 -0.21388326954E+02 -0.85082425405E+01  0.27303368426E+02  0.00000000000E+00 0. -1.
        -14    1    6    6    0    0 -0.27301137835E+02  0.29394690586E+02  0.40728599122E+02  0.57168336937E+02  0.00000000000E+00 0.  1.
</event>
<event>
12    1  0.8461994E-002  0.1898992E+03  0.7818608E-02  0.1158743E+00
         21   -1    0    0  501  502  0.00000000000E+00  0.00000000000E+00  0.74965024889E+03  0.74965024889E+03  0.00000000000E+00 0. -1.
         21   -1    0    0  502  503 -0.00000000000E+00 -0.00000000000E+00 -0.97317091308E+02  0.97317091308E+02  0.00000000000E+00 0. -1.
         -6    2    1    2    0  503  0.65832996522E+02  0.48940196568E+02  0.24723916191E+02  0.19150185232E+03  0.17126751337E+03 0.  0.
        -24    2    3    3    0    0  0.85143771988E+01 -0.12713461012E+02 -0.34592635811E+02  0.88413827040E+02  0.79913876452E+02 0.  0.
          6    2    1    2  501    0 -0.65832996522E+02 -0.48940196568E+02  0.62760924139E+03  0.65546548788E+03  0.17033061866E+03 0.  0.
         24    2    5    5    0    0 -0.10611711085E+03 -0.60492137430E+02  0.45549815718E+03  0.47826342099E+03  0.79606461743E+02 0.  0.
          5    1    5    5  501    0  0.40284114326E+02  0.11551940863E+02  0.17211108421E+03  0.17720206689E+03  0.47000000000E+01 0. -1.
        -13    1    6    6    0    0 -0.29844557294E+02 -0.29990461536E+02  0.54804738342E+02  0.69236440752E+02  0.00000000000E+00 0.  1.
         14    1    6    6    0    0 -0.76272553553E+02 -0.30501675895E+02  0.40069341884E+03  0.40902698023E+03  0.00000000000E+00 0. -1.
         -5    1    3    3    0  503  0.57318619323E+02  0.61653657580E+02  0.59316552002E+02  0.10308802528E+03  0.47000000000E+01 0.  1.
         11    1    4    4    0    0  0.41271063058E+02 -0.22465169934E+02 -0.23064036087E+02  0.52344381425E+02  0.00000000000E+00 0. -1.
        -12    1    4    4    0    0 -0.32756685859E+02  0.97517089222E+01 -0.11528599724E+02  0.36069445615E+02  0.00000000000E+00 0.  1.
</event>
<event>
12    1  0.8461994E-002  0.2632983E+03  0.7818608E-02  0.1105283E+00
         21   -1    0    0  501  502  0.00000000000E+00  0.00000000000E+00  0.10675093575E+04  0.10675093575E+04  0.00000000000E+00 0. -1.
         21   -1    0    0  502  503 -0.00000000000E+00 -0.00000000000E+00 -0.12514274694E+03  0.12514274694E+03  0.00000000000E+00 0. -1.
         -6    2    1    2    0  503 -0.19610142164E+03  0.34314276686E+02  0.57309312876E+02  0.26946311756E+03  0.17231592274E+03 0.  0.
        -24    2    3    3    0    0 -0.18065945623E+03 -0.13699443934E+01 -0.26088928882E+01  0.19788030320E+03  0.80685142372E+02 0.  0.
          6    2    1    2  501    0  0.19610142164E+03 -0.34314276686E+02  0.88505729769E+03  0.92318898688E+03  0.17122572282E+03 0.  0.
         24    2    5    5    0    0  0.78469226340E+02 -0.19057394380E+02  0.23026447614E+03  0.25772235738E+03  0.82936606867E+02 0.  0.
          5    1    5    5  501    0  0.11763219530E+03 -0.15256882306E+02  0.65479282156E+03  0.66546662951E+03  0.47000000000E+01 0. -1.
        -11    1    6    6    0    0  0.87341017230E+02  0.75710188182E+01  0.17637487110E+03  0.19696159212E+03  0.00000000000E+00 0.  1.
         12    1    6    6    0    0 -0.88717908901E+01 -0.26628413198E+02  0.53889605036E+02  0.60760765252E+02  0.00000000000E+00 0. -1.
         -5    1    3    3    0  503 -0.15441965407E+02  0.35684221079E+02  0.59918205764E+02  0.71582814360E+02  0.47000000000E+01 0.  1.
         13    1    4    4    0    0 -0.82861059290E+02 -0.40262955444E+02 -0.81589025463E+01  0.92485828204E+02  0.00000000000E+00 0. -1.
        -14    1    4    4    0    0 -0.97798396943E+02  0.38893011051E+02  0.55500096581E+01  0.10539447500E+03  0.00000000000E+00 0.  1.
</event>
<event>
12    1  0.8461994E-002  0.1937672E+03  0.7818608E-02  0.1155150E+00
         21   -1    0    0  501  502  0.00000000000E+00  0.00000000000E+00  0.19181532685E+03  0.19181532685E+03  0.00000000000E+00 0.  1.
         21   -1    0    0  502  503 -0.00000000000E+00 -0.00000000000E+00 -0.21078506672E+03  0.21078506672E+03  0.00000000000E+00 0. -1.
         -6    2    1    2    0  503 -0.71629363372E+02 -0.48101838929E+02 -0.63615883613E+02  0.20375624488E+03  0.17327744826E+03 0.  0.
        -24    2    3    3    0    0 -0.33364601193E+02 -0.65750365980E+02  0.13737636065E+02  0.11554445691E+03  0.87894775941E+02 0.  0.
          6    2    1    2  501    0  0.71629363372E+02  0.48101838929E+02  0.44646143746E+02  0.19884414868E+03  0.17349687233E+03 0.  0.
         24    2    5    5    0    0  0.60016272525E+02  0.12713885387E+02 -0.39298874698E+02  0.10688748902E+03  0.78210855430E+02 0.  0.
          5    1    5    5  501    0  0.11613090847E+02  0.35387953541E+02  0.83945018444E+02  0.91956659663E+02  0.47000000000E+01 0. -1.
        -13    1    6    6    0    0  0.66267783501E+02  0.24444626292E+01 -0.54872115293E+00  0.66315123634E+02  0.00000000000E+00 0.  1.
         14    1    6    6    0    0 -0.62515109760E+01  0.10269422758E+02 -0.38750153545E+02  0.40572365386E+02  0.00000000000E+00 0. -1.
         -5    1    3    3    0  503 -0.38264762180E+02  0.17648527051E+02 -0.77353519678E+02  0.88211787978E+02  0.47000000000E+01 0.  1.
         13    1    4    4    0    0  0.19423871081E+02 -0.42738099324E+02  0.29992427859E+02  0.55707967388E+02  0.00000000000E+00 0. -1.
        -14    1    4    4    0    0 -0.52788472273E+02 -0.23012266656E+02 -0.16254791794E+02  0.59836489518E+02  0.00000000000E+00 0.  1.
</event>
<event>
12    1  0.8461994E-002  0.2970791E+03  0.7818608E-02  0.1086729E+00
         21   -1    0    0  501  502  0.00000000000E+00  0.00000000000E+00  0.82874406695E+03  0.82874406695E+03  0.00000000000E+00 0.  1.
         21   -1    0    0  502  503 -0.00000000000E+00 -0.00000000000E+00 -0.18786799318E+03  0.18786799318E+03  0.00000000000E+00 0.  1.
         -6    2    1    2    0  503  0.14979891811E+03 -0.18978502665E+03 -0.14253201836E+02  0.29727182563E+03  0.17236389513E+03 0.  0.
        -24    2    3    3    0    0  0.88039333139E+02 -0.20339018220E+02  0.30054777871E+01  0.11603676243E+03  0.72738555785E+02 0.  0.
          6    2    1    2  501    0 -0.14979891811E+03  0.18978502665E+03  0.65512927561E+03  0.71934023450E+03  0.17262077801E+03 0.  0.
         24    2    5    5    0    0 -0.68583156352E+02  0.18824708895E+03  0.49221940836E+03  0.53724114044E+03  0.78787569953E+02 0.  0.
          5    1    5    5  501    0 -0.81215761754E+02  0.15379376974E+01  0.16290986725E+03  0.18209909406E+03  0.47000000000E+01 0. -1.
        -11    1    6    6    0    0 -0.54442747507E+02  0.14537514105E+03  0.44765389330E+03  0.47380581738E+03  0.00000000000E+00 0.  1.
         12    1    6    6    0    0 -0.14140408845E+02  0.42871947908E+02  0.44565515055E+02  0.63435323061E+02  0.00000000000E+00 0. -1.
         -5    1    3    3    0  503  0.61759584966E+02 -0.16944600843E+03 -0.17258679623E+02  0.18123506319E+03  0.47000000000E+01 0.  1.
         13    1    4    4    0    0  0.49149913590E+02 -0.61465750109E+01  0.37519353462E+02  0.62138524882E+02  0.00000000000E+00 0. -1.
        -14    1    4    4    0    0  0.38889419550E+02 -0.14192443209E+02 -0.34513875675E+02  0.53898237552E+02  0.00000000000E+00 0.  1.
</event>
<event>
12    1  0.8461994E-002  0.3272530E+03  0.7818608E-02  0.1072416E+00
         21   -1    0    0  501  502  0.00000000000E+00  0.00000000000E+00  0.43232339488E+03  0.43232339488E+03  0.00000000000E+00 0.  1.
         21   -1    0    0  502  503 -0.00000000000E+00 -0.00000000000E+00 -0.49473182279E+03  0.49473182279E+03  0.00000000000E+00 0. -1.
         -6    2    1    2    0  503 -0.76736956959E+02  0.26758185606E+03 -0.35900122949E+03  0.48577404672E+03  0.17206374238E+03 0.  0.
        -24    2    3    3    0    0 -0.70786225923E+01  0.13488356295E+03 -0.10060343426E+03  0.18702225825E+03  0.81317843318E+02 0.  0.
          6    2    1    2  501    0  0.76736956959E+02 -0.26758185606E+03  0.29659280158E+03  0.44128117095E+03  0.17109404325E+03 0.  0.
         24    2    5    5    0    0  0.69005493478E+02 -0.27259183608E+03  0.30887679521E+03  0.42522309115E+03  0.79635013655E+02 0.  0.
          5    1    5    5  501    0  0.77314634803E+01  0.50099800223E+01 -0.12283993633E+02  0.16058079803E+02  0.47000000000E+01 0. -1.
        -13    1    6    6    0    0  0.47173714891E+01 -0.11090085534E+03  0.16791432046E+03  0.20128703963E+03  0.00000000000E+00 0.  1.
         14    1    6    6    0    0  0.64288121989E+02 -0.16169098073E+03  0.14096247475E+03  0.22393605152E+03  0.00000000000E+00 0. -1.
         -5    1    3    3    0  503 -0.69658334366E+02  0.13269829310E+03 -0.25839779523E+03  0.29875178848E+03  0.47000000000E+01 0.  1.
         13    1    4    4    0    0 -0.95398372422E+01  0.63992382103E+02 -0.96224429971E+02  0.11595332848E+03  0.00000000000E+00 0. -1.
        -14    1    4    4    0    0  0.24612146499E+01  0.70891180850E+02 -0.43790042892E+01  0.71068929769E+02  0.00000000000E+00 0.  1.
</event>
<event>
12    1  0.8461994E-002  0.2678330E+03  0.7818608E-02  0.1103619E+00
         21   -1    0    0  503  502  0.00000000000E+00  0.00000000000E+00  0.12323473485E+04  0.12323473485E+04  0.00000000000E+00 0.  1.
         21   -1    0    0  501  503 -0.00000000000E+00 -0.00000000000E+00 -0.71430684257E+02  0.71430684257E+02  0.00000000000E+00 0. -1.
          6    2    1    2  501    0 -0.29458911553E+02  0.19386209702E+03  0.28995161882E+03  0.39472329320E+03  0.18243957029E+03 0.  0.
         24    2    3    3    0    0 -0.57324139108E+02  0.68675545617E+02  0.66902244937E+02  0.13738838156E+03  0.79982932682E+02 0.  0.
         -6    2    1    2    0  502  0.29458911553E+02 -0.19386209702E+03  0.87096504544E+03  0.90905473957E+03  0.17131861847E+03 0.  0.
        -24    2    5    5    0    0  0.57412623115E+02 -0.47184060587E+02  0.33133338127E+03  0.34912592327E+03  0.81145276409E+02 0.  0.
          5    1    3    3  501    0  0.27865227555E+02  0.12518655140E+03  0.22304937389E+03  0.25733491164E+03  0.47000000000E+01 0. -1.
        -13    1    4    4    0    0  0.88657482759E+01  0.96401369038E+01  0.43829266374E+02  0.45744270930E+02  0.00000000000E+00 0.  1.
         14    1    4    4    0    0 -0.66189887384E+02  0.59035408713E+02  0.23072978563E+02  0.91644110632E+02  0.00000000000E+00 0. -1.
         -5    1    5    5    0  502 -0.27953711562E+02 -0.14667803643E+03  0.53963166416E+03  0.55992881630E+03  0.47000000000E+01 0.  1.
         13    1    6    6    0    0  0.72752161392E+02 -0.56434132537E+02  0.28097575241E+03  0.29567729325E+03  0.00000000000E+00 0. -1.
        -14    1    6    6    0    0 -0.15339538276E+02  0.92500719502E+01  0.50357628864E+02  0.53448630014E+02  0.00000000000E+00 0.  1.
</event>
<event>
12    1  0.8461994E-002  0.1743414E+03  0.7818608E-02  0.1173898E+00
         21   -1    0    0  501  502  0.00000000000E+00  0.00000000000E+00  0.16212978357E+03  0.16212978357E+03  0.00000000000E+00 0.  1.
         21   -1    0    0  502  503 -0.00000000000E+00 -0.00000000000E+00 -0.43624223809E+03  0.43624223809E+03  0.00000000000E+00 0.  1.
         -6    2    1    2    0  503  0.42132480744E+01 -0.13643199664E+02  0.89503406078E+02  0.19597389395E+03  0.17375563028E+03 0.  0.
        -24    2    3    3    0    0 -0.23313025300E+02 -0.55223349154E+02  0.10209145307E+03  0.14432940262E+03  0.82554201775E+02 0.  0.
          6    2    1    2  501    0 -0.42132480744E+01  0.13643199664E+02 -0.36361586059E+03  0.40239812771E+03  0.17176690821E+03 0.  0.
         24    2    5    5    0    0  0.18273359782E+02  0.51644782778E+02 -0.33662080947E+03  0.35043092039E+03  0.80542916076E+02 0.  0.
          5    1    5    5  501    0 -0.22486607857E+02 -0.38001583114E+02 -0.26995051126E+02  0.51967207327E+02  0.47000000000E+01 0. -1.
        -11    1    6    6    0    0  0.36598800929E+02  0.51062129990E+02 -0.14616171217E+03  0.15909135569E+03  0.00000000000E+00 0.  1.
         12    1    6    6    0    0 -0.18325441147E+02  0.58265278864E+00 -0.19045909729E+03  0.19133956470E+03  0.00000000000E+00 0. -1.
         -5    1    3    3    0  503  0.27526273374E+02  0.41580149490E+02 -0.12588046991E+02  0.51644491328E+02  0.47000000000E+01 0.  1.
         11    1    4    4    0    0  0.24965822699E+02 -0.11160940364E+02  0.61710941708E+02  0.67498883097E+02  0.00000000000E+00 0. -1.
        -12    1    4    4    0    0 -0.48278847999E+02 -0.44062408790E+02  0.40380511361E+02  0.76830519524E+02  0.00000000000E+00 0.  1.
</event>
<event>
12    1  0.8461994E-002  0.2025054E+03  0.7818608E-02  0.1147921E+00
         21   -1    0    0  501  502  0.00000000000E+00  0.00000000000E+00  0.65121300706E+03  0.65121300706E+03  0.00000000000E+00 0.  1.
         21   -1    0    0  502  503 -0.00000000000E+00 -0.00000000000E+00 -0.85614789821E+02  0.85614789821E+02  0.00000000000E+00 0. -1.
         -6    2    1    2    0  503  0.84746991737E+02 -0.63374305265E+02  0.90925647654E+02  0.22076335879E+03  0.17108662136E+03 0.  0.
        -24    2    3    3    0    0  0.10553228941E+03 -0.92149122647E+02  0.90351665428E+02  0.18495221290E+03  0.80096021736E+02 0.  0.
          6    2    1    2  501    0 -0.84746991737E+02  0.63374305265E+02  0.47467256959E+03  0.51606443809E+03  0.17265601862E+03 0.  0.
         24    2    5    5    0    0 -0.62996789560E+02  0.14368289835E+01  0.41378563215E+03  0.42640602290E+03  0.81442538174E+02 0.  0.
          5    1    5    5  501    0 -0.21750202177E+02  0.61937476281E+02  0.60886937443E+02  0.89658415188E+02  0.47000000000E+01 0. -1.
        -13    1    6    6    0    0 -0.67497583702E+01  0.36181585535E+02  0.14137657811E+03  0.14608902494E+03  0.00000000000E+00 0.  1.
         14    1    6    6    0    0 -0.56247031190E+02 -0.34744756552E+02  0.27240905404E+03  0.28031699797E+03  0.00000000000E+00 0. -1.
         -5    1    3    3    0  503 -0.20785297673E+02  0.28774817382E+02  0.57398222586E+00  0.35811145895E+02  0.47000000000E+01 0.  1.
         11    1    4    4    0    0  0.72002046549E+02 -0.36796839744E+02  0.95391433173E+01  0.81420497282E+02  0.00000000000E+00 0. -1.
        -12    1    4    4    0    0  0.33530242862E+02 -0.55352282902E+02  0.80812522110E+02  0.10353171562E+03  0.00000000000E+00 0.  1.
</event>
<event>
12    1  0.8461994E-002  0.2617806E+03  0.7818608E-02  0.1106331E+00
         21   -1    0    0  501  502  0.00000000000E+00  0.00000000000E+00  0.15362248136E+03  0.15362248136E+03  0.00000000000E+00 0.  1.
         21   -1    0    0  502  503 -0.00000000000E+00 -0.00000000000E+00 -0.45888651925E+03  0.45888651925E+03  0.00000000000E+00 0.  1.
         -6    2    1    2    0  503 -0.14160902965E+03 -0.13709122866E+03 -0.96497764556E+02  0.27899983731E+03  0.17228455648E+03 0.  0.
        -24    2    3    3    0    0 -0.14807237501E+03 -0.13683418424E+03 -0.37844351536E+02  0.21980394418E+03  0.78946543384E+02 0.  0.
          6    2    1    2  501    0  0.14160902965E+03  0.13709122866E+03 -0.20876627333E+03  0.33350916329E+03  0.16969938970E+03 0.  0.
         24    2    5    5    0    0  0.59443906363E+02  0.13769781524E+03 -0.10078526407E+03  0.19773927049E+03  0.80304939533E+02 0.  0.
          5    1    5    5  501    0  0.82165123285E+02 -0.60658657609E+00 -0.10798100926E+03  0.13576989281E+03  0.47000000000E+01 0. -1.
        -13    1    6    6    0    0  0.69624789032E+02  0.69664913768E+02 -0.41318399579E+02  0.10680834051E+03  0.00000000000E+00 0.  1.
         14    1    6    6    0    0 -0.10180882669E+02  0.68032901471E+02 -0.59466864493E+02  0.90930929980E+02  0.00000000000E+00 0. -1.
         -5    1    3    3    0  503  0.64633453657E+01 -0.25704441801E+00 -0.58653413020E+02  0.59195893135E+02  0.47000000000E+01 0.  1.
         11    1    4    4    0    0 -0.75057359011E+02 -0.95784884912E+02  0.12086233210E+02  0.12228830015E+03  0.00000000000E+00 0. -1.
        -12    1    4    4    0    0 -0.73015016003E+02 -0.41049299333E+02 -0.49930584747E+02  0.97515644031E+02  0.00000000000E+00 0.  1.
</event>
<event>
12    1  0.8461994E-002  0.1795667E+03  0.7818608E-02  0.1168252E+00
         21   -1    0    0  501  502  0.00000000000E+00  0.00000000000E+00  0.11005436794E+03  0.11005436794E+03  0.00000000000E+00 0. -1.
         21   -1    0    0  502  503 -0.00000000000E+00 -0.00000000000E+00 -0.59644663792E+03  0.59644663792E+03  0.00000000000E+00 0. -1.
         -6    2    1    2    0  503 -0.41152332928E+02 -0.31895422325E+02 -0.49520787915E+03  0.52671800993E+03  0.17172706816E+03 0.  0.
        -24    2    3    3    0    0 -0.34036743460E+02 -0.56044436360E+02 -0.48971763350E+03  0.50052565819E+03  0.80019342612E+02 0.  0.
          6    2    1    2  501    0  0.41152332928E+02  0.31895422325E+02  0.88156091657E+01  0.17978299593E+03  0.17185278057E+03 0.  0.
         24    2    5    5    0    0  0.62181847553E+02 -0.22607496219E+01 -0.39693909486E+02  0.11666288846E+03  0.90348934353E+02 0.  0.
          5    1    5    5  501    0 -0.21029514625E+02  0.34156171947E+02  0.48509518652E+02  0.63120107472E+02  0.47000000000E+01 0. -1.
        -11    1    6    6    0    0  0.27204826841E+02 -0.43507045319E+02 -0.35550475681E+02  0.62424369576E+02  0.00000000000E+00 0.  1.
         12    1    6    6    0    0  0.34977020713E+02  0.41246295697E+02 -0.41434338058E+01  0.54238518881E+02  0.00000000000E+00 0. -1.
         -5    1    3    3    0  503 -0.71155894689E+01  0.24149014035E+02 -0.54902456496E+01  0.26192351740E+02  0.47000000000E+01 0.  1.
         13    1    4    4    0    0 -0.59217368848E+02 -0.32204247747E+02 -0.28280298211E+03  0.29072553558E+03  0.00000000000E+00 0. -1.
        -14    1    4    4    0    0  0.25180625388E+02 -0.23840188613E+02 -0.20691465138E+03  0.20980012261E+03  0.00000000000E+00 0.  1.
</event>
<event>
12    1  0.8461994E-002  0.2102963E+03  0.7818608E-02  0.1141389E+00
         21   -1    0    0  503  502  0.00000000000E+00  0.00000000000E+00  0.37308768510E+03  0.37308768510E+03  0.00000000000E+00 0. -1.
         21   -1    0    0  501  503 -0.00000000000E+00 -0.00000000000E+00 -0.15736394329E+03  0.15736394329E+03  0.00000000000E+00 0.  1.
          6    2    1    2  501    0  0.11731976876E+03  0.28436191271E+02 -0.24103120914E+02  0.21167306712E+03  0.17219750808E+03 0.  0.
         24    2    3    3    0    0  0.22052806847E+02 -0.31703495935E+02  0.12192049181E+02  0.93216301241E+02  0.83959483142E+02 0.  0.
         -6    2    1    2    0  502 -0.11731976876E+03 -0.28436191271E+02  0.23982686272E+03  0.31877856128E+03  0.17184383007E+03 0.  0.
        -24    2    5    5    0    0 -0.79752751662E+02  0.46183601030E+02  0.17793793975E+03  0.21470299756E+03  0.77084631133E+02 0.  0.
          5    1    3    3  501    0  0.95266961915E+02  0.60139687206E+02 -0.36295170095E+02  0.11845676588E+03  0.47000000000E+01 0. -1.
        -13    1    4    4    0    0  0.20487897237E+02 -0.29941925422E+02 -0.32352030166E+02  0.48609944322E+02  0.00000000000E+00 0.  1.
         14    1    4    4    0    0  0.15649096108E+01 -0.17615705127E+01  0.44544079346E+02  0.44606356919E+02  0.00000000000E+00 0. -1.
         -5    1    5    5    0  502 -0.37567017100E+02 -0.74619792300E+02  0.61888922967E+02  0.10407556372E+03  0.47000000000E+01 0.  1.
         13    1    6    6    0    0 -0.13881116472E+02 -0.63036589890E+01  0.95977141544E+02  0.97180415774E+02  0.00000000000E+00 0. -1.
        -14    1    6    6    0    0 -0.65871635190E+02  0.52487260019E+02  0.81960798207E+02  0.11752258179E+03  0.00000000000E+00 0.  1.
</event>
<event>
12    1  0.8461994E-002  0.3170651E+03  0.7818608E-02  0.1077084E+00
         21   -1    0    0  501  502  0.00000000000E+00  0.00000000000E+00  0.99874885963E+02  0.99874885963E+02  0.00000000000E+00 0. -1.
         21   -1    0    0  502  503 -0.00000000000E+00 -0.00000000000E+00 -0.13808306973E+04  0.13808306973E+04  0.00000000000E+00 0.  1.
         -6    2    1    2    0  503  0.15881155943E+03 -0.21282048314E+03 -0.10265077681E+04  0.10741664122E+04  0.17205119464E+03 0.  0.
        -24    2    3    3    0    0  0.96276178839E+02 -0.53751522905E+02 -0.32876855420E+03  0.35578231674E+03  0.79586216420E+02 0.  0.
          6    2    1    2  501    0 -0.15881155943E+03  0.21282048314E+03 -0.25444804322E+03  0.40653917109E+03  0.17325305619E+03 0.  0.
         24    2    5    5    0    0 -0.32921536886E+02  0.66501031486E+02 -0.15965055487E+03  0.19144306813E+03  0.75205943163E+02 0.  0.
          5    1    5    5  501    0 -0.12589002255E+03  0.14631945166E+03 -0.94797488352E+02  0.21509610296E+03  0.47000000000E+01 0. -1.
        -13    1    6    6    0    0 -0.21169950292E+02 -0.93157923329E+01 -0.68511583279E+02  0.72310357664E+02  0.00000000000E+00 0.  1.
         14    1    6    6    0    0 -0.11751586594E+02  0.75816823819E+02 -0.91138971591E+02  0.11913271047E+03  0.00000000000E+00 0. -1.
         -5    1    3    3    0  503  0.62535380594E+02 -0.15906896024E+03 -0.69773921391E+03  0.71838409543E+03  0.47000000000E+01 0.  1.
         13    1    4    4    0    0  0.49125272124E+02  0.15623970126E+02 -0.14104846844E+03  0.15017347054E+03  0.00000000000E+00 0. -1.
        -14    1    4    4    0    0  0.47150906716E+02 -0.69375493031E+02 -0.18772008576E+03  0.20560884620E+03  0.00000000000E+00 0.  1.
</event>
<event>
12    1  0.8461994E-002  0.1899689E+03  0.7818608E-02  0.1158778E+00
         21   -1    0    0  503  502  0.00000000000E+00  0.00000000000E+00  0.20895673223E+02  0.20895673223E+02  0.00000000000E+00 0. -1.
         21   -1    0    0  501  503 -0.00000000000E+00 -0.00000000000E+00 -0.17572040276E+04  0.17572040276E+04  0.00000000000E+00 0. -1.
          6    2    1    2  501    0  0.76455110193E+02  0.53093361741E+01 -0.10079479639E+04  0.10256935548E+04  0.17382346673E+03 0.  0.
         24    2    3    3    0    0  0.75858745058E+02  0.56932535880E+02 -0.50693593885E+03  0.52200669810E+03  0.80691287820E+02 0.  0.
         -6    2    1    2    0  502 -0.76455110193E+02 -0.53093361741E+01 -0.72836039047E+03  0.75240614598E+03  0.17243136944E+03 0.  0.
        -24    2    5    5    0    0 -0.36620925439E+02 -0.59500655493E+02 -0.28552652299E+03  0.30446933620E+03  0.79339530943E+02 0.  0.
          5    1    3    3  501    0  0.59636513513E+00 -0.51623199706E+02 -0.50101202505E+03  0.50368685673E+03  0.47000000000E+01 0. -1.
        -11    1    4    4    0    0  0.13860699181E+02  0.87386444001E+01 -0.10640498301E+02  0.19537223238E+02  0.00000000000E+00 0.  1.
         12    1    4    4    0    0  0.61998045876E+02  0.48193891480E+02 -0.49629544054E+03  0.50246947487E+03  0.00000000000E+00 0. -1.
         -5    1    5    5    0  502 -0.39834184754E+02  0.54191319319E+02 -0.44283386748E+03  0.44793680978E+03  0.47000000000E+01 0.  1.
         11    1    6    6    0    0 -0.58018633372E+02 -0.60927684008E+02 -0.22101527093E+03  0.23648698586E+03  0.00000000000E+00 0. -1.
        -12    1    6    6    0    0  0.21397707933E+02  0.14270285153E+01 -0.64511252060E+02  0.67982350339E+02  0.00000000000E+00 0.  1.
</event>
<event>
12    1  0.8461994E-002  0.1813005E+03  0.7818608E-02  0.1166962E+00
         21   -1    0    0  501  502  0.00000000000E+00  0.00000000000E+00  0.31346870593E+03  0.31346870593E+03  0.00000000000E+00 0.  1.
         21   -1    0    0  502  503 -0.00000000000E+00 -0.00000000000E+00 -0.10771173784E+03  0.10771173784E+03  0.00000000000E+00 0. -1.
         -6    2    1    2    0  503  0.45263655112E+02  0.27316671623E+02  0.14217151864E+03  0.22905289963E+03  0.17163184756E+03 0.  0.
        -24    2    3    3    0    0  0.79389724515E+02 -0.24677264656E+02  0.96163852125E+02  0.15154965196E+03  0.82511301062E+02 0.  0.
          6    2    1    2  501    0 -0.45263655112E+02 -0.27316671623E+02  0.63585449442E+02  0.19212754413E+03  0.17342111985E+03 0.  0.
         24    2    5    5    0    0 -0.15138231728E+02  0.27140197382E+02 -0.14984401756E+02  0.91786110851E+02  0.85055284818E+02 0.  0.
          5    1    5    5  501    0 -0.30125423384E+02 -0.54456869005E+02  0.78569851198E+02  0.10034143328E+03  0.47000000000E+01 0. -1.
        -11    1    6    6    0    0  0.95219735719E+01 -0.21409472925E+02  0.16710776920E+02  0.28779916207E+02  0.00000000000E+00 0.  1.
         12    1    6    6    0    0 -0.24660205300E+02  0.48549670306E+02 -0.31695178676E+02  0.63006194644E+02  0.00000000000E+00 0. -1.
         -5    1    3    3    0  503 -0.34126069403E+02  0.51993936279E+02  0.46007666515E+02  0.77503247679E+02  0.47000000000E+01 0.  1.
         11    1    4    4    0    0  0.10506478676E+02  0.26582674698E+02  0.11037482811E+02  0.30640670931E+02  0.00000000000E+00 0. -1.
        -12    1    4    4    0    0  0.68883245839E+02 -0.51259939354E+02  0.85126369314E+02  0.12090898102E+03  0.00000000000E+00 0.  1.
</event>
<event>
12    1  0.8461994E-002  0.1906434E+03  0.7818608E-02  0.1158054E+00
         21   -1    0    0  503  502  0.00000000000E+00  0.00000000000E+00  0.44219981872E+03  0.44219981872E+03  0.00000000000E+00 0.  1.
         21   -1    0    0  501  503 -0.00000000000E+00 -0.00000000000E+00 -0.84995939767E+02  0.84995939767E+02  0.00000000000E+00 0. -1.
          6    2    1    2  501    0 -0.40649498887E+02 -0.70927791941E+02  0.12833366929E+03  0.22981393859E+03  0.17222596282E+03 0.  0.
         24    2    3    3    0    0 -0.19889530829E+01  0.56652843644E+01  0.11915293349E+03  0.14339916526E+03  0.79560339730E+02 0.  0.
         -6    2    1    2    0  502  0.40649498887E+02  0.70927791941E+02  0.22887020966E+03  0.29738181990E+03  0.17138039708E+03 0.  0.
        -24    2    5    5    0    0 -0.22534753471E+02  0.35889440807E+02  0.20023330111E+03  0.21952234181E+03  0.79377683291E+02 0.  0.
          5    1    3    3  501    0 -0.38660545804E+02 -0.76593076306E+02  0.91807358053E+01  0.86414773330E+02  0.47000000000E+01 0. -1.
        -13    1    4    4    0    0  0.10835084406E+02 -0.17589720473E+02  0.11460970424E+03  0.11645678007E+03  0.00000000000E+00 0.  1.
         14    1    4    4    0    0 -0.12824037489E+02  0.23255004838E+02  0.45432292512E+01  0.26942385187E+02  0.00000000000E+00 0. -1.
         -5    1    5    5    0  502  0.63184252357E+02  0.35038351134E+02  0.28636908548E+02  0.77859478083E+02  0.47000000000E+01 0.  1.
         13    1    6    6    0    0  0.37449866862E+01  0.12532729583E+02 -0.28757208297E+01  0.13392684808E+02  0.00000000000E+00 0. -1.
        -14    1    6    6    0    0 -0.26279740157E+02  0.23356711224E+02  0.20310902194E+03  0.20612965700E+03  0.00000000000E+00 0.  1.
</event>
<event>
12    1  0.8461994E-002  0.2012934E+03  0.7818608E-02  0.1149496E+00
         21   -1    0    0  503  502  0.00000000000E+00  0.00000000000E+00  0.92470421272E+02  0.92470421272E+02  0.00000000000E+00 0. -1.
         21   -1    0    0  501  503 -0.00000000000E+00 -0.00000000000E+00 -0.90852228024E+03  0.90852228024E+03  0.00000000000E+00 0. -1.
          6    2    1    2  501    0  0.94212987374E+02 -0.30184139995E+02 -0.46559225441E+02  0.20660783387E+03  0.17530506623E+03 0.  0.
         24    2    3    3    0    0  0.13218497261E+03 -0.96034494275E+01 -0.19350294314E+02  0.15534525083E+03  0.78693200726E+02 0.  0.
         -6    2    1    2    0  502 -0.94212987374E+02  0.30184139995E+02 -0.76949263352E+03  0.79438486764E+03  0.17070804197E+03 0.  0.
        -24    2    5    5    0    0 -0.10097219403E+03  0.73076596966E+01 -0.33096434089E+03  0.35518312167E+03  0.79805194816E+02 0.  0.
          5    1    3    3  501    0 -0.37971985234E+02 -0.20580690568E+02 -0.27208931127E+02  0.51262583040E+02  0.47000000000E+01 0. -1.
        -11    1    4    4    0    0  0.11281912366E+03  0.97023725157E+01 -0.41039354897E+02  0.12044301286E+03  0.00000000000E+00 0.  1.
         12    1    4    4    0    0  0.19365848949E+02 -0.19305821943E+02  0.21689060583E+02  0.34902237971E+02  0.00000000000E+00 0. -1.
         -5    1    5    5    0  502  0.67592066561E+01  0.22876480299E+02 -0.43852829263E+03  0.43920174597E+03  0.47000000000E+01 0.  1.
         11    1    6    6    0    0 -0.27986286756E+02 -0.33592996336E+02 -0.14067908079E+03  0.14731709141E+03  0.00000000000E+00 0. -1.
        -12    1    6    6    0    0 -0.72985907274E+02  0.40900656032E+02 -0.19028526010E+03  0.20786603026E+03  0.00000000000E+00 0.  1.
</event>
<event>
12    1  0.8461994E-002  0.2927022E+03  0.7818608E-02  0.1089007E+00
         21   -1    0    0  503  502  0.00000000000E+00  0.00000000000E+00  0.12666260559E+03  0.12666260559E+03  0.00000000000E+00 0.  1.
         21   -1    0    0  501  503 -0.00000000000E+00 -0.00000000000E+00 -0.68750400686E+03  0.68750400686E+03  0.00000000000E+00 0.  1.
          6    2    1    2  501    0  0.85632200970E+02 -0.22113873984E+03 -0.33437450513E+03  0.44408303230E+03  0.17078704224E+03 0.  0.
         24    2    3    3    0    0  0.10032646953E+03 -0.18535072593E+03 -0.33700013841E+03  0.40502298342E+03  0.77808943720E+02 0.  0.
         -6    2    1    2    0  502 -0.85632200970E+02  0.22113873984E+03 -0.22646689614E+03  0.37008358016E+03  0.17157909300E+03 0.  0.
        -24    2    5    5    0    0 -0.12485453306E+03  0.17111628353E+03 -0.15477628771E+03  0.27415511302E+03  0.79598303039E+02 0.  0.
          5    1    3    3  501    0 -0.14694268560E+02 -0.35788013909E+02  0.26256332799E+01  0.39060048876E+02  0.47000000000E+01 0. -1.
        -13    1    4    4    0    0  0.21282254212E+02 -0.10645465807E+03 -0.20619073378E+03  0.23302391994E+03  0.00000000000E+00 0.  1.
         14    1    4    4    0    0  0.79044215317E+02 -0.78896067860E+02 -0.13080940463E+03  0.17199906348E+03  0.00000000000E+00 0. -1.
         -5    1    5    5    0  502  0.39222332086E+02  0.50022456309E+02 -0.71690608433E+02  0.95928467135E+02  0.47000000000E+01 0.  1.
         11    1    6    6    0    0 -0.54118931953E+02  0.18359595235E+02 -0.49515005684E+02  0.75615271743E+02  0.00000000000E+00 0. -1.
        -12    1    6    6    0    0 -0.70735601102E+02  0.15275668829E+03 -0.10526128202E+03  0.19853984128E+03  0.00000000000E+00 0.  1.
</event>
<event>
12    1  0.8461994E-002  0.2071025E+03  0.7818608E-02  0.1143994E+00
         21   -1    0    0  501  502  0.00000000000E+00  0.00000000000E+00  0.39153842335E+03  0.39153842335E+03  0.00000000000E+00 0.  1.
         21   -1    0    0  502  503 -0.00000000000E+00 -0.00000000000E+00 -0.26574939840E+03  0.26574939840E+03  0.00000000000E+00 0.  1.
         -6    2    1    2    0  503 -0.94731467137E+02 -0.64411277641E+02 -0.18933929651E+03  0.28019724315E+03  0.17186699019E+03 0.  0.
        -24    2    3    3    0    0  0.78108169708E+01 -0.40866431765E+01 -0.11440392262E+03  0.13951539709E+03  0.79363587365E+02 0.  0.
          6    2    1    2  501    0  0.94731467137E+02  0.64411277641E+02  0.31512832146E+03  0.37709057860E+03  0.17253574101E+03 0.  0.
         24    2    5    5    0    0  0.12628244942E+03  0.20917254962E+02  0.24958597821E+03  0.29220781680E+03  0.81899078717E+02 0.  0.
          5    1    5    5  501    0 -0.31550982279E+02  0.43494022679E+02  0.65542343256E+02  0.84882761801E+02  0.47000000000E+01 0. -1.
        -11    1    6    6    0    0 -0.10342763491E+00  0.23998792485E+02  0.56853313773E+02  0.61711036493E+02  0.00000000000E+00 0.  1.
         12    1    6    6    0    0  0.12638587705E+03 -0.30815375227E+01  0.19273266443E+03  0.23049678031E+03  0.00000000000E+00 0. -1.
         -5    1    3    3    0  503 -0.10254228411E+03 -0.60324634465E+02 -0.74935373888E+02  0.14068184607E+03  0.47000000000E+01 0.  1.
         13    1    4    4    0    0  0.30750350456E+01 -0.41748788510E+02 -0.61939996478E+02  0.74759483320E+02  0.00000000000E+00 0. -1.
        -14    1    4    4    0    0  0.47357819252E+01  0.37662145334E+02 -0.52463926141E+02  0.64755913767E+02  0.00000000000E+00 0.  1.
</event>
<event>
12    1  0.8461994E-002  0.1831492E+03  0.7818608E-02  0.1167121E+00
         21   -1    0    0  503  502  0.00000000000E+00  0.00000000000E+00  0.37746285807E+02  0.37746285807E+02  0.00000000000E+00 0.  1.
         21   -1    0    0  501  503 -0.00000000000E+00 -0.00000000000E+00 -0.87604123896E+03  0.87604123896E+03  0.00000000000E+00 0.  1.
          6    2    1    2  501    0  0.64059806208E+02 -0.75652442482E+01 -0.49728544460E+03  0.52670726597E+03  0.16114229402E+03 0.  0.
         24    2    3    3    0    0 -0.18117936212E+01 -0.20237419514E+02 -0.40069238067E+03  0.40901290888E+03  0.79525718875E+02 0.  0.
         -6    2    1    2    0  502 -0.64059806208E+02  0.75652442482E+01 -0.34100950855E+03  0.38708025879E+03  0.17141397299E+03 0.  0.
        -24    2    5    5    0    0  0.76512242312E+01  0.39394119401E+02 -0.89129645900E+02  0.12322214467E+03  0.75027763419E+02 0.  0.
          5    1    3    3  501    0  0.65871599829E+02  0.12672175266E+02 -0.96593063931E+02  0.11769435709E+03  0.47000000000E+01 0. -1.
        -11    1    4    4    0    0  0.39335181068E+01  0.27440055727E+02 -0.78270077488E+02  0.83033934346E+02  0.00000000000E+00 0.  1.
         12    1    4    4    0    0 -0.57453117280E+01 -0.47677475241E+02 -0.32242230318E+03  0.32597897454E+03  0.00000000000E+00 0. -1.
         -5    1    5    5    0  502 -0.71711030439E+02 -0.31828875153E+02 -0.25187986265E+03  0.26385811412E+03  0.47000000000E+01 0.  1.
         13    1    6    6    0    0  0.29150048450E+02  0.48919901804E+02 -0.79547917306E+02  0.97830226745E+02  0.00000000000E+00 0. -1.
        -14    1    6    6    0    0 -0.21498824219E+02 -0.95257824033E+01 -0.95817285940E+01  0.25391917927E+02  0.00000000000E+00 0.  1.
</event>
<event>
12    1  0.8461994E-002  0.2421042E+03  0.7818608E-02  0.1118421E+00
         21   -1    0    0  501  502  0.00000000000E+00  0.00000000000E+00  0.76212333763E+02  0.76212333763E+02  0.00000000000E+00 0. -1.
         21   -1    0    0  502  503 -0.00000000000E+00 -0.00000000000E+00 -0.76995634193E+03  0.76995634193E+03  0.00000000000E+00 0.  1.
         -6    2    1    2    0  503 -0.86776900030E+02 -0.14669522215E+03 -0.32972848268E+03  0.40906641085E+03  0.17194399557E+03 0.  0.
        -24    2    3    3    0    0  0.24462523029E+02 -0.59404575621E+02 -0.77984785939E+02  0.12029168019E+03  0.65277429854E+02 0.  0.
          6    2    1    2  501    0  0.86776900030E+02  0.14669522215E+03 -0.36401552549E+03  0.43710226485E+03  0.17175962436E+03 0.  0.
         24    2    5    5    0    0  0.83789853584E+01  0.90723597240E+02 -0.92004612208E+02  0.14850031967E+03  0.72708443674E+02 0.  0.
          5    1    5    5  501    0  0.78397914672E+02  0.55971624911E+02 -0.27201091328E+03  0.28860194518E+03  0.47000000000E+01 0. -1.
        -11    1    6    6    0    0  0.96787274743E+01  0.72793043885E+02 -0.10368941090E+03  0.12705903721E+03  0.00000000000E+00 0.  1.
         12    1    6    6    0    0 -0.12997421159E+01  0.17930553355E+02  0.11684798688E+02  0.21441282461E+02  0.00000000000E+00 0. -1.
         -5    1    3    3    0  503 -0.11123942306E+03 -0.87290646529E+02 -0.25174369674E+03  0.28877473065E+03  0.47000000000E+01 0.  1.
         13    1    4    4    0    0  0.12312429963E+02 -0.59270474485E+02 -0.86410569687E+02  0.10550531565E+03  0.00000000000E+00 0. -1.
        -14    1    4    4    0    0  0.12150093066E+02 -0.13410113676E+00  0.84257837474E+01  0.14786364543E+02  0.00000000000E+00 0.  1.
</event>
<event>
12    1  0.8461994E-002  0.1809002E+03  0.7818608E-02  0.1166959E+00
         21   -1    0    0  501  502  0.00000000000E+00  0.00000000000E+00  0.64909889721E+02  0.64909889721E+02  0.00000000000E+00 0.  1.
         21   -1    0    0  502  503 -0.00000000000E+00 -0.00000000000E+00 -0.50398411654E+03  0.50398411654E+03  0.00000000000E+00 0.  1.
         -6    2    1    2    0  503  0.92999549131E+01  0.53896183810E+02 -0.21530248000E+03  0.28114640940E+03  0.17232776281E+03 0.  0.
        -24    2    3    3    0    0  0.49844599514E+02  0.63811260940E+02 -0.20969993828E+03  0.23877123466E+03  0.80506380271E+02 0.  0.
          6    2    1    2  501    0 -0.92999549131E+01 -0.53896183810E+02 -0.22377174682E+03  0.28774759686E+03  0.17243432673E+03 0.  0.
         24    2    5    5    0    0  0.33786738585E+01 -0.77223433683E+02 -0.23390533499E+03  0.25894329470E+03  0.79781263369E+02 0.  0.
          5    1    5    5  501    0 -0.12678628772E+02  0.23327249873E+02  0.10133588168E+02  0.28804302167E+02  0.47000000000E+01 0. -1.
        -13    1    6    6    0    0 -0.27016801427E+02 -0.32501979924E+01 -0.93273893561E+02  0.97162186916E+02  0.00000000000E+00 0.  1.
         14    1    6    6    0    0  0.30395475285E+02 -0.73973235690E+02 -0.14063144143E+03  0.16178110778E+03  0.00000000000E+00 0. -1.
         -5    1    3    3    0  503 -0.40544644601E+02 -0.99150771306E+01 -0.56025417205E+01  0.42375174738E+02  0.47000000000E+01 0.  1.
         11    1    4    4    0    0 -0.19527058533E+02  0.14595543348E+02 -0.80305494315E+02  0.83924420271E+02  0.00000000000E+00 0. -1.
        -12    1    4    4    0    0  0.69371658047E+02  0.49215717593E+02 -0.12939444396E+03  0.15484681439E+03  0.00000000000E+00 0.  1.
</event>
<event>
12    1  0.8461994E-002  0.3641627E+03  0.7818608E-02  0.1057154E+00
         21   -1    0    0  501  502  0.00000000000E+00  0.00000000000E+00  0.75363106805E+03  0.75363106805E+03  0.00000000000E+00 0. -1.
         21   -1    0    0  502  503 -0.00000000000E+00 -0.00000000000E+00 -0.45322907188E+03  0.45322907188E+03  0.00000000000E+00 0.  1.
         -6    2    1    2    0  503  0.30366508000E+03 -0.94381748397E+02 -0.32246277959E+03  0.48641208722E+03  0.17746571255E+03 0.  0.
        -24    2    3    3    0    0  0.88266740222E+02 -0.74371988773E+02 -0.76619558104E+02  0.15890969820E+03  0.77842953156E+02 0.  0.
          6    2    1    2  501    0 -0.30366508000E+03  0.94381748397E+02  0.62286477576E+03  0.72044805270E+03  0.17310249135E+03 0.  0.
         24    2    5    5    0    0 -0.68556360028E+02  0.73716432874E+02  0.17782872618E+03  0.21667991069E+03  0.72062756452E+02 0.  0.
          5    1    5    5  501    0 -0.23510871998E+03  0.20665315523E+02  0.44503604958E+03  0.50376814201E+03  0.47000000000E+01 0. -1.
        -13    1    6    6    0    0 -0.99655023858E+01 -0.14677576048E+02  0.24406827025E+02  0.30173426750E+02  0.00000000000E+00 0.  1.
         14    1    6    6    0    0 -0.58590857642E+02  0.88394008922E+02  0.15342189916E+03  0.18650648394E+03  0.00000000000E+00 0. -1.
         -5    1    3    3    0  503  0.21539833978E+03 -0.20009759625E+02 -0.24584322149E+03  0.32750238902E+03  0.47000000000E+01 0.  1.
         11    1    4    4    0    0  0.29809799804E+02 -0.27150370832E+02  0.12615074832E+02  0.42248158702E+02  0.00000000000E+00 0. -1.
        -12    1    4    4    0    0  0.58456940418E+02 -0.47221617941E+02 -0.89234632936E+02  0.11666153950E+03  0.00000000000E+00 0.  1.
</event>
<event>
12    1  0.8461994E-002  0.2897929E+03  0.7818608E-02  0.1090576E+00
         21   -1    0    0  501  502  0.00000000000E+00  0.00000000000E+00  0.49155739558E+03  0.49155739558E+03  0.00000000000E+00 0.  1.
         21   -1    0    0  502  503 -0.00000000000E+00 -0.00000000000E+00 -0.30382237628E+03  0.30382237628E+03  0.00000000000E+00 0. -1.
         -6    2    1    2    0  503 -0.20219169292E+03  0.11520362046E+03 -0.16984406233E+03  0.33511600363E+03  0.17117936653E+03 0.  0.
        -24    2    3    3    0    0 -0.17195203627E+03  0.49032073547E+02 -0.17503107034E+03  0.26202629500E+03  0.77783395875E+02 0.  0.
          6    2    1    2  501    0  0.20219169292E+03 -0.11520362046E+03  0.35757908164E+03  0.46026376823E+03  0.17270374016E+03 0.  0.
         24    2    5    5    0    0  0.93957012090E+02 -0.12455313996E+03  0.18153576246E+03  0.25334470222E+03  0.82987350221E+02 0.  0.
          5    1    5    5  501    0  0.10823468083E+03  0.93495195011E+01  0.17604331918E+03  0.20691906600E+03  0.47000000000E+01 0. -1.
        -13    1    6    6    0    0  0.56298646384E+02 -0.55766011013E+02  0.14835710413E+03  0.16819398299E+03  0.00000000000E+00 0.  1.
         14    1    6    6    0    0  0.37658365707E+02 -0.68787128950E+02  0.33178658330E+02  0.85150719230E+02  0.00000000000E+00 0. -1.
         -5    1    3    3    0  503 -0.30239656651E+02  0.66171546914E+02  0.51870080099E+01  0.73089708629E+02  0.47000000000E+01 0.  1.
         11    1    4    4    0    0 -0.58589315727E+02  0.53042017857E+02 -0.51586765310E+02  0.94378800220E+02  0.00000000000E+00 0. -1.
        -12    1    4    4    0    0 -0.11336272054E+03 -0.40099443094E+01 -0.12344430503E+03  0.16764749478E+03  0.00000000000E+00 0.  1.
</event>
<event>
12    1  0.8461994E-002  0.2498118E+03  0.7818608E-02  0.1114080E+00
         21   -1    0    0  501  502  0.00000000000E+00  0.00000000000E+00  0.70027011359E+03  0.70027011359E+03  0.00000000000E+00 0. -1.
         21   -1    0    0  502  503 -0.00000000000E+00 -0.00000000000E+00 -0.20682401147E+03  0.20682401147E+03  0.00000000000E+00 0.  1.
         -6    2    1    2    0  503 -0.14515732939E+03  0.97793781310E+02 -0.98413106025E+02  0.26467428373E+03  0.17243277848E+03 0.  0.
        -24    2    3    3    0    0 -0.10236965152E+03  0.42463223105E+02 -0.12940851789E+03  0.18802533328E+03  0.79525408430E+02 0.  0.
          6    2    1    2  501    0  0.14515732939E+03 -0.97793781310E+02  0.59185920815E+03  0.64241984133E+03  0.17824605556E+03 0.  0.
         24    2    5    5    0    0 -0.85999308678E+00 -0.27952693835E+02  0.24598513856E+03  0.26051697675E+03  0.81106806740E+02 0.  0.
          5    1    5    5  501    0  0.14601732247E+03 -0.69841087474E+02  0.34587406958E+03  0.38190286458E+03  0.47000000000E+01 0. -1.
        -13    1    6    6    0    0 -0.18888563869E+02  0.24033686872E+02  0.79469685258E+02  0.85145914903E+02  0.00000000000E+00 0.  1.
         14    1    6    6    0    0  0.18028570782E+02 -0.51986380707E+02  0.16651545330E+03  0.17537106184E+03  0.00000000000E+00 0. -1.
         -5    1    3    3    0  503 -0.42787677873E+02  0.55330558204E+02  0.30995411863E+02  0.76648950453E+02  0.47000000000E+01 0.  1.
         13    1    4    4    0    0 -0.46089349713E+02  0.56186906259E+02 -0.98377220245E+02  0.12230811116E+03  0.00000000000E+00 0. -1.
        -14    1    4    4    0    0 -0.56280301802E+02 -0.13723683154E+02 -0.31031297643E+02  0.65717222123E+02  0.00000000000E+00 0.  1.
</event>
<event>
12    1  0.8461994E-002  0.1883750E+03  0.7818608E-02  0.1160232E+00
         21   -1    0    0  501  502  0.00000000000E+00  0.00000000000E+00  0.41208141311E+02  0.41208141311E+02  0.00000000000E+00 0. -1.
         21   -1    0    0  502  503 -0.00000000000E+00 -0.00000000000E+00 -0.13932992144E+04  0.13932992144E+04  0.00000000000E+00 0. -1.
         -6    2    1    2    0  503  0.68239373037E+02 -0.25456156800E+02 -0.11203512674E+04  0.11358629857E+04  0.17231695217E+03 0.  0.
        -24    2    3    3    0    0  0.10340818041E+03 -0.24936985886E+02 -0.10330620781E+04  0.10416366247E+04  0.80464250274E+02 0.  0.
          6    2    1    2  501    0 -0.68239373037E+02  0.25456156800E+02 -0.23173980571E+03  0.29864437001E+03  0.17372534139E+03 0.  0.
         24    2    5    5    0    0  0.39475709281E+01 -0.35968045733E+02 -0.80162753030E+02  0.11981042348E+03  0.81358385984E+02 0.  0.
          5    1    5    5  501    0 -0.72186943965E+02  0.61424202533E+02 -0.15157705268E+03  0.17883394654E+03  0.47000000000E+01 0. -1.
        -11    1    6    6    0    0  0.82308934752E+01  0.10431493870E+02 -0.71111938129E+02  0.72342735752E+02  0.00000000000E+00 0.  1.
         12    1    6    6    0    0 -0.42833225471E+01 -0.46399539603E+02 -0.90508149011E+01  0.47467687723E+02  0.00000000000E+00 0. -1.
         -5    1    3    3    0  503 -0.35168807368E+02 -0.51917091386E+00 -0.87289189268E+02  0.94226361031E+02  0.47000000000E+01 0.  1.
         11    1    4    4    0    0  0.87116403740E+02 -0.42255500089E+02 -0.58620201059E+03  0.59414442042E+03  0.00000000000E+00 0. -1.
        -12    1    4    4    0    0  0.16291776665E+02  0.17318514203E+02 -0.44686006751E+03  0.44749220425E+03  0.00000000000E+00 0.  1.
</event>
<event>
12    1  0.8461994E-002  0.1755466E+03  0.7818608E-02  0.1172867E+00
         21   -1    0    0  501  502  0.00000000000E+00  0.00000000000E+00  0.31355922763E+03  0.31355922763E+03  0.00000000000E+00 0.  1.
         21   -1    0    0  502  503 -0.00000000000E+00 -0.00000000000E+00 -0.22656462827E+03  0.22656462827E+03  0.00000000000E+00 0.  1.
         -6    2    1    2    0  503 -0.24731250060E+02 -0.19022609990E+02 -0.16076356023E+03  0.23803680876E+03  0.17275157194E+03 0.  0.
        -24    2    3    3    0    0 -0.72345970815E+02 -0.69267402781E+01 -0.15276644602E+03  0.18804165367E+03  0.82098460769E+02 0.  0.
          6    2    1    2  501    0  0.24731250060E+02  0.19022609990E+02  0.24775815959E+03  0.30208704714E+03  0.16999701170E+03 0.  0.
         24    2    5    5    0    0 -0.31417605192E+02  0.51663274382E+02  0.18759445559E+03  0.21343114945E+03  0.81884161766E+02 0.  0.
          5    1    5    5  501    0  0.56148855252E+02 -0.32640664393E+02  0.60163703997E+02  0.88655897698E+02  0.47000000000E+01 0. -1.
        -13    1    6    6    0    0 -0.59006556259E+02  0.42439137089E+02  0.13222465885E+03  0.15088477208E+03  0.00000000000E+00 0.  1.
         14    1    6    6    0    0  0.27588951067E+02  0.92241372935E+01  0.55369796748E+02  0.62546377367E+02  0.00000000000E+00 0. -1.
         -5    1    3    3    0  503  0.47614720755E+02 -0.12095869712E+02 -0.79971142039E+01  0.49995155088E+02  0.47000000000E+01 0.  1.
         13    1    4    4    0    0 -0.40877220640E+02  0.37269514028E+02 -0.73682649494E+02  0.92136294041E+02  0.00000000000E+00 0. -1.
        -14    1    4    4    0    0 -0.31468750175E+02 -0.44196254306E+02 -0.79083796528E+02  0.95905359629E+02  0.00000000000E+00 0.  1.
</event>
<event>
12    1  0.8461994E-002  0.1847714E+03  0.7818608E-02  0.1163295E+00
         21   -1    0    0  503  502  0.00000000000E+00  0.00000000000E+00  0.26608802768E+02  0.26608802768E+02  0.00000000000E+00 0.  1.
         21   -1    0    0  501  503 -0.00000000000E+00 -0.00000000000E+00 -0.15149231079E+04  0.15149231079E+04  0.00000000000E+00 0. -1.
          6    2    1    2  501    0 -0.90142708023E+01 -0.66577258600E+02 -0.10460826369E+04  0.10622519176E+04  0.17197809399E+03 0.  0.
         24    2    3    3    0    0 -0.40453989967E+02 -0.85072358576E+02 -0.50301897104E+03  0.51794432090E+03  0.79777207451E+02 0.  0.
         -6    2    1    2    0  502  0.90142708023E+01  0.66577258600E+02 -0.44223166826E+03  0.47927999308E+03  0.17212401028E+03 0.  0.
        -24    2    5    5    0    0 -0.48492360983E+02  0.33408497597E+01 -0.29150961741E+03  0.30594481860E+03  0.79130933462E+02 0.  0.
          5    1    3    3  501    0  0.31439719164E+02  0.18495099976E+02 -0.54306366588E+03  0.54430759674E+03  0.47000000000E+01 0. -1.
        -11    1    4    4    0    0 -0.41113493099E+02 -0.28958820222E+01 -0.16121462563E+03  0.16639970242E+03  0.00000000000E+00 0.  1.
         12    1    4    4    0    0  0.65950313257E+00 -0.82176476554E+02 -0.34180434541E+03  0.35154461848E+03  0.00000000000E+00 0. -1.
         -5    1    5    5    0  502  0.57506631785E+02  0.63236408840E+02 -0.15072205085E+03  0.17333517448E+03  0.47000000000E+01 0.  1.
         11    1    6    6    0    0 -0.80217811105E+01 -0.34037911319E+02 -0.15156198336E+03  0.15554408757E+03  0.00000000000E+00 0. -1.
        -12    1    6    6    0    0 -0.40470579872E+02  0.37378761079E+02 -0.13994763405E+03  0.15040073102E+03  0.00000000000E+00 0.  1.
</event>
<event>
12    1  0.8461994E-002  0.1786040E+03  0.7818608E-02  0.1169266E+00
         21   -1    0    0  503  502  0.00000000000E+00  0.00000000000E+00  0.30209800923E+03  0.30209800923E+03  0.00000000000E+00 0.  1.
         21   -1    0    0  501  503 -0.00000000000E+00 -0.00000000000E+00 -0.12448772733E+03  0.12448772733E+03  0.00000000000E+00 0.  1.
          6    2    1    2  501    0  0.46919058211E+02 -0.56661071614E+00  0.50611605705E+01  0.17824608607E+03  0.17188464964E+03 0.  0.
         24    2    3    3    0    0  0.14966753792E+02 -0.21659105179E+02  0.66499942862E+02  0.10570191297E+03  0.77830144863E+02 0.  0.
         -6    2    1    2    0  502 -0.46919058211E+02  0.56661071614E+00  0.17254912134E+03  0.24833965049E+03  0.17233010086E+03 0.  0.
        -24    2    5    5    0    0 -0.51988078698E+02 -0.63372207436E+02  0.11838048744E+03  0.16425517908E+03  0.79038136647E+02 0.  0.
          5    1    3    3  501    0  0.31952304419E+02  0.21092494463E+02 -0.61438782291E+02  0.72544173094E+02  0.47000000000E+01 0. -1.
        -11    1    4    4    0    0 -0.10792271603E+02 -0.34095249195E+02  0.27969841272E+01  0.35871747437E+02  0.00000000000E+00 0.  1.
         12    1    4    4    0    0  0.25759025394E+02  0.12436144016E+02  0.63702958735E+02  0.69830165536E+02  0.00000000000E+00 0. -1.
         -5    1    5    5    0  502  0.50690204874E+01  0.63938818152E+02  0.54168633895E+02  0.84084471416E+02  0.47000000000E+01 0.  1.
         13    1    6    6    0    0 -0.11435828725E+02 -0.12742757906E+01 -0.10487550598E+02  0.15568900891E+02  0.00000000000E+00 0. -1.
        -14    1    6    6    0    0 -0.40552249974E+02 -0.62097931645E+02  0.12886803804E+03  0.14868627819E+03  0.00000000000E+00 0.  1.
</event>
<event>
12    1  0.8461994E-002  0.1966273E+03  0.7818608E-02  0.1152700E+00
         21   -1    0    0  503  502  0.00000000000E+00  0.00000000000E+00  0.16759106059E+03  0.16759106059E+03  0.00000000000E+00 0.  1.
         21   -1    0    0  501  503 -0.00000000000E+00 -0.00000000000E+00 -0.52848864823E+03  0.52848864823E+03  0.00000000000E+00 0.  1.
          6    2    1    2  501    0  0.31168525778E+02  0.88980416859E+02  0.80930804236E+02  0.21263138152E+03  0.17254946464E+03 0.  0.
         24    2    3    3    0    0 -0.48551483489E+01  0.11414659781E+03  0.93911518704E+02  0.16657021881E+03  0.76637107147E+02 0.  0.
         -6    2    1    2    0  502 -0.31168525778E+02 -0.88980416859E+02 -0.44182839187E+03  0.48344832730E+03  0.17210742494E+03 0.  0.
        -24    2    5    5    0    0 -0.75328953986E+02 -0.13332407498E+02 -0.23588783204E+03  0.25960380777E+03  0.76804057862E+02 0.  0.
          5    1    3    3  501    0  0.36023674127E+02 -0.25166180955E+02 -0.12980714468E+02  0.46061162703E+02  0.47000000000E+01 0. -1.
        -13    1    4    4    0    0  0.35875459706E+02  0.54848131669E+02  0.41694065554E+02  0.77677289211E+02  0.00000000000E+00 0.  1.
         14    1    4    4    0    0 -0.40730608055E+02  0.59298466145E+02  0.52217453150E+02  0.88892929602E+02  0.00000000000E+00 0. -1.
         -5    1    5    5    0  502  0.44160428208E+02 -0.75648009361E+02 -0.20594055983E+03  0.22384451953E+03  0.47000000000E+01 0.  1.
         13    1    6    6    0    0 -0.67330331326E+02 -0.11351425369E+02 -0.87506134922E+02  0.11099347739E+03  0.00000000000E+00 0. -1.
        -14    1    6    6    0    0 -0.79986226597E+01 -0.19809821294E+01 -0.14838169712E+03  0.14861033038E+03  0.00000000000E+00 0.  1.
</event>
<event>
12    1  0.8461994E-002  0.1937858E+03  0.7818608E-02  0.1156023E+00
         21   -1    0    0  501  502  0.00000000000E+00  0.00000000000E+00  0.60743257199E+02  0.60743257199E+02  0.00000000000E+00 0.  1.
         21   -1    0    0  502  503 -0.00000000000E+00 -0.00000000000E+00 -0.23622694724E+04  0.23622694724E+04  0.00000000000E+00 0.  1.
         -6    2    1    2    0  503 -0.23459672412E+02  0.81564410607E+02 -0.21924615081E+04  0.22006435459E+04  0.16953301315E+03 0.  0.
        -24    2    3    3    0    0 -0.69767458416E+02  0.86878741844E+02 -0.14400010938E+04  0.14467261644E+04  0.83654231823E+02 0.  0.
          6    2    1    2  501    0  0.23459672412E+02 -0.81564410607E+02 -0.10906470709E+03  0.22236918363E+03  0.17421203801E+03 0.  0.
         24    2    5    5    0    0  0.39043772621E+01 -0.10170170057E+01 -0.11405331401E+03  0.13919906650E+03  0.79699078994E+02 0.  0.
          5    1    5    5  501    0  0.19555295150E+02 -0.80547393601E+02  0.49886069222E+01  0.83170117130E+02  0.47000000000E+01 0. -1.
        -13    1    6    6    0    0 -0.28833967237E+02 -0.12794691371E+02 -0.16443287582E+02  0.35573634906E+02  0.00000000000E+00 0.  1.
         14    1    6    6    0    0  0.32738344499E+02  0.11777674365E+02 -0.97610026429E+02  0.10362543160E+03  0.00000000000E+00 0. -1.
         -5    1    3    3    0  503  0.46307786004E+02 -0.53143312368E+01 -0.75246041429E+03  0.75391738157E+03  0.47000000000E+01 0.  1.
         13    1    4    4    0    0 -0.61075923947E+02  0.10198695981E+02 -0.59919401051E+03  0.60238504640E+03  0.00000000000E+00 0. -1.
        -14    1    4    4    0    0 -0.86915344687E+01  0.76680045862E+02 -0.84080708326E+03  0.84434111796E+03  0.00000000000E+00 0.  1.
</event>
<event>
12    1  0.8461994E-002  0.2395547E+03  0.7818608E-02  0.1120152E+00
         21   -1    0    0  501  502  0.00000000000E+00  0.00000000000E+00  0.13990494228E+04  0.13990494228E+04  0.00000000000E+00 0.  1.
         21   -1    0    0  502  503 -0.00000000000E+00 -0.00000000000E+00 -0.60472804212E+02  0.60472804212E+02  0.00000000000E+00 0.  1.
         -6    2    1    2    0  503  0.16260230832E+03  0.35319548908E+02  0.25504748176E+03  0.34990810924E+03  0.17233538741E+03 0.  0.
        -24    2    3    3    0    0  0.93398903736E+02  0.90236537801E+02  0.14409736958E+03  0.20800319647E+03  0.75068567650E+02 0.  0.
          6    2    1    2  501    0 -0.16260230832E+03 -0.35319548908E+02  0.10835291368E+04  0.11096141177E+04  0.17181710858E+03 0.  0.
         24    2    5    5    0    0 -0.17398466748E+03  0.31069313860E+01  0.77670771600E+03  0.80015066796E+03  0.81767339514E+02 0.  0.
          5    1    5    5  501    0  0.11382359163E+02 -0.38426480294E+02  0.30682142078E+03  0.30946344976E+03  0.47000000000E+01 0. -1.
        -11    1    6    6    0    0 -0.11694777313E+03  0.18100658449E+02  0.64606076546E+03  0.65680965899E+03  0.00000000000E+00 0.  1.
         12    1    6    6    0    0 -0.57036894354E+02 -0.14993727063E+02  0.13064695054E+03  0.14334100897E+03  0.00000000000E+00 0. -1.
         -5    1    3    3    0  503  0.69203404582E+02 -0.54916988893E+02  0.11095011218E+03  0.14190491277E+03  0.47000000000E+01 0.  1.
         13    1    4    4    0    0  0.11679635124E+02  0.50388772479E+02  0.85213234599E+02  0.99683186242E+02  0.00000000000E+00 0. -1.
        -14    1    4    4    0    0  0.81719268612E+02  0.39847765322E+02  0.58884134981E+02  0.10832001023E+03  0.00000000000E+00 0.  1.
</event>
<event>
12    1  0.8461994E-002  0.1849775E+03  0.7818608E-02  0.1163291E+00
         21   -1    0    0  501  502  0.00000000000E+00  0.00000000000E+00  0.42364090735E+02  0.42364090735E+02  0.00000000000E+00 0.  1.
         21   -1    0    0  502  503 -0.00000000000E+00 -0.00000000000E+00 -0.80750738528E+03  0.80750738528E+03  0.00000000000E+00 0.  1.
         -6    2    1    2    0  503  0.25994011587E+02 -0.60538725992E+02 -0.35390915913E+03  0.39933488811E+03  0.17284685118E+03 0.  0.
        -24    2    3    3    0    0  0.52636471340E+02 -0.95575479371E+02 -0.31194545361E+03  0.33833950033E+03  0.72514695649E+02 0.  0.
          6    2    1    2  501    0 -0.25994011587E+02  0.60538725992E+02 -0.41123413541E+03  0.45053658791E+03  0.17184026574E+03 0.  0.
         24    2    5    5    0    0  0.84238506222E+00 -0.11408004588E+02 -0.32560527000E+03  0.33542396124E+03  0.79747035929E+02 0.  0.
          5    1    5    5  501    0 -0.26836396649E+02  0.71946730580E+02 -0.85628865417E+02  0.11511262667E+03  0.47000000000E+01 0. -1.
        -13    1    6    6    0    0 -0.23216288989E+02 -0.30978743413E+01 -0.27031630896E+02  0.35767331027E+02  0.00000000000E+00 0.  1.
         14    1    6    6    0    0  0.24058674052E+02 -0.83101302468E+01 -0.29857363910E+03  0.29965663021E+03  0.00000000000E+00 0. -1.
         -5    1    3    3    0  503 -0.26642459753E+02  0.35036753378E+02 -0.41963705519E+02  0.60995387776E+02  0.47000000000E+01 0.  1.
         11    1    4    4    0    0 -0.12122785761E+02 -0.37850856744E+02 -0.14302711013E+03  0.14844663527E+03  0.00000000000E+00 0. -1.
        -12    1    4    4    0    0  0.64759257100E+02 -0.57724622627E+02 -0.16891834348E+03  0.18989286506E+03  0.00000000000E+00 0.  1.
</event>
<event>
12    1  0.8461994E-002  0.2616876E+03  0.7818608E-02  0.1106193E+00
         21   -1    0    0  501  502  0.00000000000E+00  0.00000000000E+00  0.16405701658E+04  0.16405701658E+04  0.00000000000E+00 0. -1.
         21   -1    0    0  502  503 -0.00000000000E+00 -0.00000000000E+00 -0.41894686874E+02  0.41894686874E+02  0.00000000000E+00 0. -1.
         -6    2    1    2    0  503  0.11530776089E+03  0.15973603844E+03  0.86033772631E+03  0.89925601490E+03  0.17224661190E+03 0.  0.
        -24    2    3    3    0    0  0.79305928130E+02  0.11698039882E+03  0.35446259037E+03  0.39028065218E+03  0.81862174135E+02 0.  0.
          6    2    1    2  501    0 -0.11530776089E+03 -0.15973603844E+03  0.73833775260E+03  0.78320883776E+03  0.17164488032E+03 0.  0.
         24    2    5    5    0    0  0.58670946862E+01 -0.55681954415E+02  0.21056498826E+03  0.23177726558E+03  0.79045453440E+02 0.  0.
          5    1    5    5  501    0 -0.12117485558E+03 -0.10405408403E+03  0.52777276434E+03  0.55143157218E+03  0.47000000000E+01 0. -1.
        -11    1    6    6    0    0  0.21103407662E+02 -0.12805615821E+02  0.16688982502E+03  0.16870551652E+03  0.00000000000E+00 0.  1.
         12    1    6    6    0    0 -0.15236312975E+02 -0.42876338593E+02  0.43675163247E+02  0.63071749055E+02  0.00000000000E+00 0. -1.
         -5    1    3    3    0  503  0.36001832764E+02  0.42755639623E+02  0.50587513595E+03  0.50897536271E+03  0.47000000000E+01 0.  1.
         13    1    4    4    0    0  0.59008622483E+02  0.57511549866E+02  0.28472865383E+03  0.29641187933E+03  0.00000000000E+00 0. -1.
        -14    1    4    4    0    0  0.20297305647E+02  0.59468848952E+02  0.69733936539E+02  0.93868772855E+02  0.00000000000E+00 0.  1.
</event>
<event>
12    1  0.8461994E-002  0.3110738E+03  0.7818608E-02  0.1079962E+00
         21   -1    0    0  501  502  0.00000000000E+00  0.00000000000E+00  0.20263852118E+03  0.20263852118E+03  0.00000000000E+00 0. -1.
         21   -1    0    0  502  503 -0.00000000000E+00 -0.00000000000E+00 -0.59576895007E+03  0.59576895007E+03  0.00000000000E+00 0. -1.
         -6    2    1    2    0  503  0.25811289645E+03  0.12726614276E+02 -0.37592106419E+03  0.48793805864E+03  0.17315504193E+03 0.  0.
        -24    2    3    3    0    0  0.21969997938E+03 -0.33877806047E+02 -0.20705393211E+03  0.30853426133E+03  0.53909859345E+02 0.  0.
          6    2    1    2  501    0 -0.25811289645E+03 -0.12726614276E+02 -0.17209364705E+02  0.31046941261E+03  0.17120414687E+03 0.  0.
         24    2    5    5    0    0 -0.12569024288E+03  0.41212299088E+02  0.32844410894E+02  0.15890214699E+03  0.81698508187E+02 0.  0.
          5    1    5    5  501    0 -0.13242265358E+03 -0.53938913364E+02 -0.50053775599E+02  0.15156726562E+03  0.47000000000E+01 0. -1.
        -13    1    6    6    0    0 -0.91399671737E+02  0.44299258395E+02  0.57350297414E+02  0.11664210604E+03  0.00000000000E+00 0.  1.
         14    1    6    6    0    0 -0.34290571139E+02 -0.30869593066E+01 -0.24505886520E+02  0.42260040948E+02  0.00000000000E+00 0. -1.
         -5    1    3    3    0  503  0.38412917078E+02  0.46604420323E+02 -0.16886713208E+03  0.17940379731E+03  0.47000000000E+01 0.  1.
         13    1    4    4    0    0  0.17036943172E+03 -0.13828277304E+02 -0.12944109662E+03  0.21441073203E+03  0.00000000000E+00 0. -1.
        -14    1    4    4    0    0  0.49330547656E+02 -0.20049528743E+02 -0.77612835491E+02  0.94123529299E+02  0.00000000000E+00 0.  1.
</event>
<event>
12    1  0.8461994E-002  0.2136742E+03  0.7818608E-02  0.1139150E+00
         21   -1    0    0  503  502  0.00000000000E+00  0.00000000000E+00  0.10363100473E+03  0.10363100473E+03  0.00000000000E+00 0.  1.
         21   -1    0    0  501  503 -0.00000000000E+00 -0.00000000000E+00 -0.49673764030E+03  0.49673764030E+03  0.00000000000E+00 0. -1.
          6    2    1    2  501    0  0.23868797178E+02  0.12401490135E+03 -0.30273385248E+03  0.37054615902E+03  0.17235792786E+03 0.  0.
         24    2    3    3    0    0  0.39138303613E+02  0.21743589345E+02 -0.68440479139E+02  0.11440546746E+03  0.79999508200E+02 0.  0.
         -6    2    1    2    0  502 -0.23868797178E+02 -0.12401490135E+03 -0.90372783097E+02  0.22982248600E+03  0.16941581954E+03 0.  0.
        -24    2    5    5    0    0 -0.32215487032E+02 -0.14700901660E+03 -0.10884293209E+03  0.19881227846E+03  0.70922842825E+02 0.  0.
          5    1    3    3  501    0 -0.15269506435E+02  0.10227131201E+03 -0.23429337334E+03  0.25614069157E+03  0.47000000000E+01 0. -1.
        -11    1    4    4    0    0  0.50076070960E+02  0.44021770530E+02 -0.46599431673E+02  0.81345167008E+02  0.00000000000E+00 0.  1.
         12    1    4    4    0    0 -0.10937767347E+02 -0.22278181185E+02 -0.21841047466E+02  0.33060300450E+02  0.00000000000E+00 0. -1.
         -5    1    5    5    0  502  0.83466898539E+01  0.22994115249E+02  0.18470148996E+02  0.31010207538E+02  0.47000000000E+01 0.  1.
         11    1    6    6    0    0 -0.45852518635E+02 -0.54509099223E+02 -0.61015186959E+02  0.93789916318E+02  0.00000000000E+00 0. -1.
        -12    1    6    6    0    0  0.13637031604E+02 -0.92499917378E+02 -0.47827745133E+02  0.10502236214E+03  0.00000000000E+00 0.  1.
</event>
<event>
12    1  0.8461994E-002  0.2026090E+03  0.7818608E-02  0.1147661E+00
         21   -1    0    0  503  502  0.00000000000E+00  0.00000000000E+00  0.14609144598E+03  0.14609144598E+03  0.00000000000E+00 0.  1.
         21   -1    0    0  501  503 -0.00000000000E+00 -0.00000000000E+00 -0.41538417259E+03  0.41538417259E+03  0.00000000000E+00 0.  1.
          6    2    1    2  501    0  0.79216083632E+02  0.69540437462E+02  0.25339168271E+02  0.20418737069E+03  0.17302990653E+03 0.  0.
         24    2    3    3    0    0  0.44270690296E+02  0.49991059142E+02  0.82985346265E+02  0.13384157803E+03  0.81043200216E+02 0.  0.
         -6    2    1    2    0  502 -0.79216083632E+02 -0.69540437462E+02 -0.29463189489E+03  0.35728824788E+03  0.17244094131E+03 0.  0.
        -24    2    5    5    0    0  0.84443008271E+01 -0.74702468013E+02 -0.19488371324E+03  0.22431163601E+03  0.81757467050E+02 0.  0.
          5    1    3    3  501    0  0.34945393336E+02  0.19549378320E+02 -0.57646177994E+02  0.70345792663E+02  0.47000000000E+01 0. -1.
        -11    1    4    4    0    0  0.39532137623E+02  0.64863296871E+02  0.35481359831E+02  0.83838917463E+02  0.00000000000E+00 0.  1.
         12    1    4    4    0    0  0.47385526730E+01 -0.14872237729E+02  0.47503986434E+02  0.50002660566E+02  0.00000000000E+00 0. -1.
         -5    1    5    5    0  502 -0.87660384459E+02  0.51620305509E+01 -0.99748181647E+02  0.13297661187E+03  0.47000000000E+01 0.  1.
         11    1    6    6    0    0 -0.23239948997E+02 -0.62402874028E+01 -0.12880765787E+02  0.27293782140E+02  0.00000000000E+00 0. -1.
        -12    1    6    6    0    0  0.31684249824E+02 -0.68462180610E+02 -0.18200294745E+03  0.19701785387E+03  0.00000000000E+00 0.  1.
</event>
<event>
12    1  0.8461994E-002  0.1915977E+03  0.7818608E-02  0.1157048E+00
         21   -1    0    0  501  502  0.00000000000E+00  0.00000000000E+00  0.21552771917E+03  0.21552771917E+03  0.00000000000E+00 0.  1.
         21   -1    0    0  502  503 -0.00000000000E+00 -0.00000000000E+00 -0.17968552435E+03  0.17968552435E+03  0.00000000000E+00 0.  1.
         -6    2    1    2    0  503 -0.22377608884E+02 -0.81294780196E+02 -0.27371050257E+02  0.19354285006E+03  0.17204668480E+03 0.  0.
        -24    2    3    3    0    0 -0.68146368029E+02 -0.29853328173E+02 -0.51548583592E+02  0.12041525323E+03  0.79419317937E+02 0.  0.
          6    2    1    2  501    0  0.22377608884E+02  0.81294780196E+02  0.63213245076E+02  0.20167039345E+03  0.17194602228E+03 0.  0.
         24    2    5    5    0    0  0.34044329866E+02 -0.67805551816E+01 -0.73555419258E+01  0.88112387223E+02  0.80651698435E+02 0.  0.
          5    1    5    5  501    0 -0.11666720982E+02  0.88075335378E+02  0.70568787002E+02  0.11355800623E+03  0.47000000000E+01 0. -1.
        -13    1    6    6    0    0  0.44909101124E+02  0.17257793053E+02  0.18148269044E+02  0.51420019974E+02  0.00000000000E+00 0.  1.
         14    1    6    6    0    0 -0.10864771258E+02 -0.24038348235E+02 -0.25503810970E+02  0.36692367249E+02  0.00000000000E+00 0. -1.
         -5    1    3    3    0  503  0.45768759144E+02 -0.51441452023E+02  0.24177533335E+02  0.73127596829E+02  0.47000000000E+01 0.  1.
         11    1    4    4    0    0  0.17809292560E+02 -0.52001694264E+01 -0.34229050944E+01  0.18866079160E+02  0.00000000000E+00 0. -1.
        -12    1    4    4    0    0 -0.85955660589E+02 -0.24653158747E+02 -0.48125678498E+02  0.10154917407E+03  0.00000000000E+00 0.  1.
</event>
<event>
12    1  0.8461994E-002  0.1952445E+03  0.7818608E-02  0.1157257E+00
         21   -1    0    0  503  502  0.00000000000E+00  0.00000000000E+00  0.81656226351E+03  0.81656226351E+03  0.00000000000E+00 0.  1.
         21   -1    0    0  501  503 -0.00000000000E+00 -0.00000000000E+00 -0.48553568896E+02  0.48553568896E+02  0.00000000000E+00 0.  1.
          6    2    1    2  501    0 -0.41411331167E+02 -0.34245085469E+02  0.22580219755E+03  0.28882745926E+03  0.17189253787E+03 0.  0.
         24    2    3    3    0    0 -0.67894664656E+02 -0.49750722962E+02  0.83526024169E+02  0.14320331546E+03  0.80285571057E+02 0.  0.
         -6    2    1    2    0  502  0.41411331167E+02  0.34245085469E+02  0.54220649706E+03  0.57628837314E+03  0.18770396729E+03 0.  0.
        -24    2    5    5    0    0  0.45600793045E+02 -0.47617756538E+01  0.10954693589E+03  0.14182839492E+03  0.77541315498E+02 0.  0.
          5    1    3    3  501    0  0.26483333489E+02  0.15505637492E+02  0.14227617338E+03  0.14562414381E+03  0.47000000000E+01 0. -1.
        -11    1    4    4    0    0  0.68620568038E+00 -0.30434488002E+02 -0.35993706230E+01  0.30654272249E+02  0.00000000000E+00 0.  1.
         12    1    4    4    0    0 -0.68580870336E+02 -0.19316234959E+02  0.87125394792E+02  0.11254904321E+03  0.00000000000E+00 0. -1.
         -5    1    5    5    0  502 -0.41894618787E+01  0.39006861123E+02  0.43265956117E+03  0.43445997822E+03  0.47000000000E+01 0.  1.
         13    1    6    6    0    0  0.14545394041E+02 -0.35270017434E+02  0.21963000282E+02  0.44021767332E+02  0.00000000000E+00 0. -1.
        -14    1    6    6    0    0  0.31055399004E+02  0.30508241780E+02  0.87583935609E+02  0.97806627591E+02  0.00000000000E+00 0.  1.
</event>
<event>
12    1  0.8461994E-002  0.1807017E+03  0.7818608E-02  0.1167233E+00
         21   -1    0    0  501  502  0.00000000000E+00  0.00000000000E+00  0.29192535829E+02  0.29192535829E+02  0.00000000000E+00 0.  1.
         21   -1    0    0  502  503 -0.00000000000E+00 -0.00000000000E+00 -0.16493306098E+04  0.16493306098E+04  0.00000000000E+00 0. -1.
         -6    2    1    2    0  503  0.42322770153E+02  0.32617711390E+02 -0.12867317277E+04  0.12992964574E+04  0.17215578118E+03 0.  0.
        -24    2    3    3    0    0  0.43718827031E+02 -0.19728366096E+02 -0.58810334389E+03  0.59869259675E+03  0.10132491321E+03 0.  0.
          6    2    1    2  501    0 -0.42322770153E+02 -0.32617711390E+02 -0.33340634624E+03  0.37922668826E+03  0.17262084871E+03 0.  0.
         24    2    5    5    0    0 -0.86706793364E+02 -0.10815404148E+01 -0.17143000111E+03  0.20827962635E+03  0.80454457469E+02 0.  0.
          5    1    5    5  501    0  0.44384023211E+02 -0.31536170975E+02 -0.16197634513E+03  0.17094706192E+03  0.47000000000E+01 0. -1.
        -13    1    6    6    0    0 -0.44580112399E+02 -0.29399646529E+02 -0.38059734632E+02  0.65576436605E+02  0.00000000000E+00 0.  1.
         14    1    6    6    0    0 -0.42126680965E+02  0.28318106114E+02 -0.13337026648E+03  0.14270318974E+03  0.00000000000E+00 0. -1.
         -5    1    3    3    0  503 -0.13960568785E+01  0.52346077486E+02 -0.69862838384E+03  0.70060386062E+03  0.47000000000E+01 0.  1.
         11    1    4    4    0    0  0.10739542086E+02 -0.18185364707E+02 -0.53963398788E+03  0.54004711473E+03  0.00000000000E+00 0. -1.
        -12    1    4    4    0    0  0.32979284945E+02 -0.15430013890E+01 -0.48469356013E+02  0.58645482017E+02  0.00000000000E+00 0.  1.
</event>
<event>
12    1  0.8461994E-002  0.2332082E+03  0.7818608E-02  0.1124455E+00
         21   -1    0    0  503  502  0.00000000000E+00  0.00000000000E+00  0.19973528893E+03  0.19973528893E+03  0.00000000000E+00 0. -1.
         21   -1    0    0  501  503 -0.00000000000E+00 -0.00000000000E+00 -0.56089783630E+03  0.56089783630E+03  0.00000000000E+00 0. -1.
          6    2    1    2  501    0 -0.15746498379E+03  0.47536226962E+01 -0.45361526762E+03  0.51005183728E+03  0.17195420217E+03 0.  0.
         24    2    3    3    0    0 -0.54763617822E+02  0.61825315638E+02 -0.24853414427E+03  0.27365152877E+03  0.79337978556E+02 0.  0.
         -6    2    1    2    0  502  0.15746498379E+03 -0.47536226962E+01  0.92452720248E+02  0.25058128795E+03  0.17153908692E+03 0.  0.
        -24    2    5    5    0    0  0.94227566699E+02  0.32033834633E+02  0.11379237422E+03  0.17422843098E+03  0.86613167836E+02 0.  0.
          5    1    3    3  501    0 -0.10270136597E+03 -0.57071692942E+02 -0.20508112335E+03  0.23640030851E+03  0.47000000000E+01 0. -1.
        -11    1    4    4    0    0 -0.58820870774E+02  0.58091905809E+02 -0.12422008612E+03  0.14921526113E+03  0.00000000000E+00 0.  1.
         12    1    4    4    0    0  0.40572529529E+01  0.37334098290E+01 -0.12431405815E+03  0.12443626764E+03  0.00000000000E+00 0. -1.
         -5    1    5    5    0  502  0.63237417089E+02 -0.36787457330E+02 -0.21339653970E+02  0.76352856976E+02  0.47000000000E+01 0.  1.
         11    1    6    6    0    0  0.50095431795E+02  0.51598998807E+02  0.30837141659E+02  0.78249206196E+02  0.00000000000E+00 0. -1.
        -12    1    6    6    0    0  0.44132134903E+02 -0.19565164173E+02  0.82955232560E+02  0.95979224780E+02  0.00000000000E+00 0.  1.
</event>
<event>
12    1  0.8461994E-002  0.2034124E+03  0.7818608E-02  0.1146987E+00
         21   -1    0    0  501  502  0.00000000000E+00  0.00000000000E+00  0.70349167029E+02  0.70349167029E+02  0.00000000000E+00 0.  1.
         21   -1    0    0  502  503 -0.00000000000E+00 -0.00000000000E+00 -0.91490990617E+03  0.91490990617E+03  0.00000000000E+00 0. -1.
         -6    2    1    2    0  503 -0.78219369053E+02  0.73977319863E+02 -0.12696636470E+03  0.23939160967E+03  0.17203770361E+03 0.  0.
        -24    2    3    3    0    0 -0.17284064686E+02  0.68936173931E+02 -0.10564487482E+02  0.10782409281E+03  0.80395843341E+02 0.  0.
          6    2    1    2  501    0  0.78219369053E+02 -0.73977319863E+02 -0.71759437444E+03  0.74586746354E+03  0.17258526409E+03 0.  0.
         24    2    5    5    0    0  0.30539512336E+02 -0.39516537583E+01 -0.56293357568E+03  0.56946163789E+03  0.80274958822E+02 0.  0.
          5    1    5    5  501    0  0.47679856717E+02 -0.70025666105E+02 -0.15466079876E+03  0.17640582565E+03  0.47000000000E+01 0. -1.
        -11    1    6    6    0    0 -0.16032498141E+02  0.24745793807E+01 -0.27207669606E+02  0.31676834203E+02  0.00000000000E+00 0.  1.
         12    1    6    6    0    0  0.46572010477E+02 -0.64262331390E+01 -0.53572590608E+03  0.53778480368E+03  0.00000000000E+00 0. -1.
         -5    1    3    3    0  503 -0.60935304367E+02  0.50411459316E+01 -0.11640187722E+03  0.13156751685E+03  0.47000000000E+01 0.  1.
         13    1    4    4    0    0 -0.16052572737E+02  0.39930386046E+02 -0.45346908711E+02  0.62517701101E+02  0.00000000000E+00 0. -1.
        -14    1    4    4    0    0 -0.12314919495E+01  0.29005787885E+02  0.34782421229E+02  0.45306391711E+02  0.00000000000E+00 0.  1.
</event>
<event>
12    1  0.8461994E-002  0.2234433E+03  0.7818608E-02  0.1131665E+00
         21   -1    0    0  501  502  0.00000000000E+00  0.00000000000E+00  0.12203200048E+03  0.12203200048E+03  0.00000000000E+00 0. -1.
         21   -1    0    0  502  503 -0.00000000000E+00 -0.00000000000E+00 -0.66740161530E+03  0.66740161530E+03  0.00000000000E+00 0. -1.
         -6    2    1    2    0  503  0.84770004365E+02  0.11273356840E+03 -0.52040939632E+03  0.56635047658E+03  0.17329775378E+03 0.  0.
        -24    2    3    3    0    0  0.12243389582E+03  0.73223365774E+02 -0.42588494256E+03  0.45709578702E+03  0.84893192184E+02 0.  0.
          6    2    1    2  501    0 -0.84770004365E+02 -0.11273356840E+03 -0.24960218504E+02  0.22308313920E+03  0.17102123670E+03 0.  0.
         24    2    5    5    0    0 -0.16776291999E+02 -0.83457383093E+02  0.38462041781E+02  0.12548850284E+03  0.83794134162E+02 0.  0.
          5    1    5    5  501    0 -0.67993712367E+02 -0.29276185303E+02 -0.63422260285E+02  0.97594636364E+02  0.47000000000E+01 0. -1.
        -13    1    6    6    0    0 -0.61249402893E+01 -0.79250868987E+02 -0.58676588957E+01  0.79703478906E+02  0.00000000000E+00 0.  1.
         14    1    6    6    0    0 -0.10651351709E+02 -0.42065141062E+01  0.44329700677E+02  0.45785023930E+02  0.00000000000E+00 0. -1.
         -5    1    3    3    0  503 -0.37663891456E+02  0.39510202622E+02 -0.94524453761E+02  0.10925468955E+03  0.47000000000E+01 0.  1.
         13    1    4    4    0    0  0.27175890019E+02 -0.11901716051E+02 -0.35096253165E+02  0.45955705081E+02  0.00000000000E+00 0. -1.
        -14    1    4    4    0    0  0.95258005803E+02  0.85125081825E+02 -0.39078868939E+03  0.41114008194E+03  0.00000000000E+00 0.  1.
</event>
<event>
12    1  0.8461994E-002  0.3060440E+03  0.7818608E-02  0.1082460E+00
         21   -1    0    0  503  502  0.00000000000E+00  0.00000000000E+00  0.45982484351E+03  0.45982484351E+03  0.00000000000E+00 0.  1.
         21   -1    0    0  501  503 -0.00000000000E+00 -0.00000000000E+00 -0.21531744707E+03  0.21531744707E+03  0.00000000000E+00 0.  1.
          6    2    1    2  501    0 -0.19190440751E+03 -0.16337292788E+03  0.40507104554E+02  0.30871303344E+03  0.17362285652E+03 0.  0.
         24    2    3    3    0    0 -0.14272385576E+02 -0.48389841635E+02  0.17063784289E+02  0.95767207920E+02  0.79592132872E+02 0.  0.
         -6    2    1    2    0  502  0.19190440751E+03  0.16337292788E+03  0.20400029189E+03  0.36642925715E+03  0.17069348616E+03 0.  0.
        -24    2    5    5    0    0  0.11227940522E+03  0.17583446975E+03  0.14410840617E+03  0.26590782167E+03  0.80095638517E+02 0.  0.
          5    1    3    3  501    0 -0.17763202194E+03 -0.11498308624E+03  0.23443320265E+02  0.21294582552E+03  0.47000000000E+01 0. -1.
        -13    1    4    4    0    0 -0.29893847008E+02 -0.62560015641E+02  0.11479312711E+01  0.69344901702E+02  0.00000000000E+00 0.  1.
         14    1    4    4    0    0  0.15621461431E+02  0.14170174006E+02  0.15915853018E+02  0.26422306218E+02  0.00000000000E+00 0. -1.
         -5    1    5    5    0  502  0.79625002291E+02 -0.12461541870E+02  0.59891885716E+02  0.10052143548E+03  0.47000000000E+01 0.  1.
         13    1    6    6    0    0  0.14114655501E+02  0.31262550464E+02 -0.68565470154E+01  0.34979748404E+02  0.00000000000E+00 0. -1.
        -14    1    6    6    0    0  0.98164749722E+02  0.14457191928E+03  0.15096495319E+03  0.23092807327E+03  0.00000000000E+00 0.  1.
</event>
<event>
12    1  0.8461994E-002  0.1946921E+03  0.7818608E-02  0.1154300E+00
         21   -1    0    0  501  502  0.00000000000E+00  0.00000000000E+00  0.27109301840E+03  0.27109301840E+03  0.00000000000E+00 0. -1.
         21   -1    0    0  502  503 -0.00000000000E+00 -0.00000000000E+00 -0.19744523382E+03  0.19744523382E+03  0.00000000000E+00 0. -1.
         -6    2    1    2    0  503  0.66831882745E+02  0.61434943744E+02  0.16339753656E+03  0.25417275242E+03  0.17223321474E+03 0.  0.
        -24    2    3    3    0    0  0.61372903648E+02 -0.14687660455E+02  0.38978865075E+02  0.10813663656E+03  0.78688115829E+02 0.  0.
          6    2    1    2  501    0 -0.66831882745E+02 -0.61434943744E+02 -0.89749751969E+02  0.21436549979E+03  0.17221148818E+03 0.  0.
         24    2    5    5    0    0 -0.29605103405E+02 -0.31569636356E+02 -0.12467423786E+03  0.15503945661E+03  0.81366230282E+02 0.  0.
          5    1    5    5  501    0 -0.37226779340E+02 -0.29865307388E+02  0.34924485896E+02  0.59326043189E+02  0.47000000000E+01 0. -1.
        -13    1    6    6    0    0  0.89193502469E+01 -0.27468614326E+01  0.90029415821E+01  0.12967382685E+02  0.00000000000E+00 0.  1.
         14    1    6    6    0    0 -0.38524453652E+02 -0.28822774923E+02 -0.13367717945E+03  0.14207207392E+03  0.00000000000E+00 0. -1.
         -5    1    3    3    0  503  0.54589790967E+01  0.76122604198E+02  0.12441867148E+03  0.14603611586E+03  0.47000000000E+01 0.  1.
         11    1    4    4    0    0  0.41396354959E+02  0.57190385786E+01  0.59686612132E+02  0.72861905506E+02  0.00000000000E+00 0. -1.
        -12    1    4    4    0    0  0.19976548689E+02 -0.20406699033E+02 -0.20707747057E+02  0.35274731057E+02  0.00000000000E+00 0.  1.
</event>
<event>
12    1  0.8461994E-002  0.3242877E+03  0.7818608E-02  0.1073760E+00
         21   -1    0    0  503  502  0.00000000000E+00  0.00000000000E+00  0.31839515347E+03  0.31839515347E+03  0.00000000000E+00 0. -1.
         21   -1    0    0  501  503 -0.00000000000E+00 -0.00000000000E+00 -0.48728474582E+03  0.48728474582E+03  0.00000000000E+00 0. -1.
          6    2    1    2  501    0 -0.25063926905E+03 -0.11521009029E+03 -0.31359779044E+03  0.45111651181E+03  0.17049670076E+03 0.  0.
         24    2    3    3    0    0 -0.18206442162E+03 -0.63559730387E+02 -0.12287820971E+03  0.24191250169E+03  0.78963986125E+02 0.  0.
         -6    2    1    2    0  502  0.25063926905E+03  0.11521009029E+03  0.14470819809E+03  0.35456338748E+03  0.16935561713E+03 0.  0.
        -24    2    5    5    0    0  0.24121192862E+03  0.57652670272E+02  0.95880630430E+02  0.27835346221E+03  0.82343972051E+02 0.  0.
          5    1    3    3  501    0 -0.68574847421E+02 -0.51650359900E+02 -0.19071958073E+03  0.20920401012E+03  0.47000000000E+01 0. -1.
        -13    1    4    4    0    0 -0.19485799849E+02  0.89603010446E+01 -0.40345186143E+02  0.45691546652E+02  0.00000000000E+00 0.  1.
         14    1    4    4    0    0 -0.16257862178E+03 -0.72520031431E+02 -0.82533023565E+02  0.19622095504E+03  0.00000000000E+00 0. -1.
         -5    1    5    5    0  502  0.94273404268E+01  0.57557420014E+02  0.48827567660E+02  0.76209925271E+02  0.47000000000E+01 0.  1.
         11    1    6    6    0    0  0.97329439749E+02 -0.95791818515E+01  0.11386538975E+02  0.98460316050E+02  0.00000000000E+00 0. -1.
        -12    1    6    6    0    0  0.14388248887E+03  0.67231852124E+02  0.84494091455E+02  0.17989314616E+03  0.00000000000E+00 0.  1.
</event>
<event>
12    1  0.8461994E-002  0.2172069E+03  0.7818608E-02  0.1136335E+00
         21   -1    0    0  501  502  0.00000000000E+00  0.00000000000E+00  0.26972476738E+03  0.26972476738E+03  0.00000000000E+00 0. -1.
         21   -1    0    0  502  503 -0.00000000000E+00 -0.00000000000E+00 -0.21981399461E+03  0.21981399461E+03  0.00000000000E+00 0.  1.
         -6    2    1    2    0  503  0.11770424472E+03  0.52383097914E+02 -0.87570962751E+02  0.23247833399E+03  0.17256657871E+03 0.  0.
        -24    2    3    3    0    0  0.19116363167E+02  0.77721607843E+02 -0.65668907678E+02  0.12825069614E+03  0.75695125071E+02 0.  0.
          6    2    1    2  501    0 -0.11770424472E+03 -0.52383097914E+02  0.13748173552E+03  0.25706042799E+03  0.17487297637E+03 0.  0.
         24    2    5    5    0    0 -0.14319899934E+03 -0.40185726804E+02  0.68442434146E+02  0.18231236106E+03  0.80203392414E+02 0.  0.
          5    1    5    5  501    0  0.25494754614E+02 -0.12197371109E+02  0.69039301376E+02  0.74748066927E+02  0.47000000000E+01 0. -1.
        -13    1    6    6    0    0  0.12431986587E+01 -0.15287999270E+02 -0.76776644561E+01  0.17152696467E+02  0.00000000000E+00 0.  1.
         14    1    6    6    0    0 -0.14444219800E+03 -0.24897727534E+02  0.76120098603E+02  0.16515966460E+03  0.00000000000E+00 0. -1.
         -5    1    3    3    0  503  0.98587881556E+02 -0.25338509930E+02 -0.21902055073E+02  0.10422763785E+03  0.47000000000E+01 0.  1.
         13    1    4    4    0    0  0.36126344255E+02  0.13788053368E+02 -0.59443498484E+01  0.39122352435E+02  0.00000000000E+00 0. -1.
        -14    1    4    4    0    0 -0.17009981089E+02  0.63933554475E+02 -0.59724557830E+02  0.89128343709E+02  0.00000000000E+00 0.  1.
</event>
<event>
12    1  0.8461994E-002  0.2459023E+03  0.7818608E-02  0.1116420E+00
         21   -1    0    0  501  502  0.00000000000E+00  0.00000000000E+00  0.34169225409E+03  0.34169225409E+03  0.00000000000E+00 0. -1.
         21   -1    0    0  502  503 -0.00000000000E+00 -0.00000000000E+00 -0.65825712399E+03  0.65825712399E+03  0.00000000000E+00 0. -1.
         -6    2    1    2    0  503 -0.17151730087E+03  0.38574273150E+01 -0.58650905759E+03  0.63479490733E+03  0.17186807585E+03 0.  0.
        -24    2    3    3    0    0 -0.15660832837E+02 -0.17158815444E+02 -0.24255881042E+03  0.25656642663E+03  0.80323521634E+02 0.  0.
          6    2    1    2  501    0  0.17151730087E+03 -0.38574273150E+01  0.26994418769E+03  0.36515447075E+03  0.17616713314E+03 0.  0.
         24    2    5    5    0    0  0.16998570824E+03  0.47811778799E+02  0.21229831808E+03  0.28758392918E+03  0.80329529225E+02 0.  0.
          5    1    5    5  501    0  0.15315926294E+01 -0.51669206114E+02  0.57645869608E+02  0.77570541569E+02  0.47000000000E+01 0. -1.
        -11    1    6    6    0    0  0.27346110631E+02  0.42911720319E+02  0.63988451665E+02  0.81754189213E+02  0.00000000000E+00 0.  1.
         12    1    6    6    0    0  0.14263959761E+03  0.49000584804E+01  0.14830986642E+03  0.20582973997E+03  0.00000000000E+00 0. -1.
         -5    1    3    3    0  503 -0.15585646803E+03  0.21016242759E+02 -0.34395024717E+03  0.37822848070E+03  0.47000000000E+01 0.  1.
         13    1    4    4    0    0  0.89161840173E+01  0.28480417692E+02 -0.11659840099E+03  0.12035705066E+03  0.00000000000E+00 0. -1.
        -14    1    4    4    0    0 -0.24577016855E+02 -0.45639233136E+02 -0.12596040943E+03  0.13620937597E+03  0.00000000000E+00 0.  1.
</event>
<event>
12    1  0.8461994E-002  0.1758175E+03  0.7818608E-02  0.1172046E+00
         21   -1    0    0  501  502  0.00000000000E+00  0.00000000000E+00  0.23101353480E+02  0.23101353480E+02  0.00000000000E+00 0. -1.
         21   -1    0    0  502  503 -0.00000000000E+00 -0.00000000000E+00 -0.13533203290E+04  0.13533203290E+04  0.00000000000E+00 0. -1.
         -6    2    1    2    0  503 -0.33843636334E+02 -0.13036777340E+02 -0.58397547397E+03  0.60986814877E+03  0.17203620376E+03 0.  0.
        -24    2    3    3    0    0  0.21599053394E+02 -0.50277587517E+02 -0.23373390942E+03  0.25328433909E+03  0.80790229008E+02 0.  0.
          6    2    1    2  501    0  0.33843636334E+02  0.13036777340E+02 -0.74624350157E+03  0.76655353373E+03  0.17149229472E+03 0.  0.
         24    2    5    5    0    0 -0.23674017317E+02 -0.18754183754E+02 -0.23035600331E+03  0.24647570633E+03  0.82305571171E+02 0.  0.
          5    1    5    5  501    0  0.57517653651E+02  0.31790961093E+02 -0.51588749826E+03  0.52007782739E+03  0.47000000000E+01 0. -1.
        -13    1    6    6    0    0 -0.30822720855E+02  0.24946875729E+02 -0.14490279932E+03  0.15023051614E+03  0.00000000000E+00 0.  1.
         14    1    6    6    0    0  0.71487035385E+01 -0.43701059483E+02 -0.85453203995E+02  0.96245190192E+02  0.00000000000E+00 0. -1.
         -5    1    3    3    0  503 -0.55442689728E+02  0.37240810177E+02 -0.35024156455E+03  0.35658380968E+03  0.47000000000E+01 0.  1.
         13    1    4    4    0    0 -0.15541755570E+02 -0.56336864792E+02 -0.11976171745E+03  0.13326011207E+03  0.00000000000E+00 0. -1.
        -14    1    4    4    0    0  0.37140808964E+02  0.60592772751E+01 -0.11397219196E+03  0.12002422702E+03  0.00000000000E+00 0.  1.
</event>
<event>
12    1  0.8461994E-002  0.2489842E+03  0.7818608E-02  0.1114028E+00
         21   -1    0    0  503  502  0.00000000000E+00  0.00000000000E+00  0.19669872833E+04  0.19669872833E+04  0.00000000000E+00 0.  1.
         21   -1    0    0  501  503 -0.00000000000E+00 -0.00000000000E+00 -0.31839297214E+02  0.31839297214E+02  0.00000000000E+00 0.  1.
          6    2    1    2  501    0 -0.96974652481E+02  0.15063069994E+03  0.85855057220E+03  0.89392517340E+03  0.17291454433E+03 0.  0.
         24    2    3    3    0    0 -0.10118711359E+03  0.85171382583E+02  0.75970274856E+03  0.77520007372E+03  0.79334051716E+02 0.  0.
         -6    2    1    2    0  502  0.96974652481E+02 -0.15063069994E+03  0.10765974139E+04  0.11049014071E+04  0.17219592576E+03 0.  0.
        -24    2    5    5    0    0 -0.71816503940E+01 -0.40345621204E+02  0.28403487491E+03  0.29793870523E+03  0.80076942120E+02 0.  0.
          5    1    3    3  501    0  0.42124611071E+01  0.65459317356E+02  0.98847823636E+02  0.11872509968E+03  0.47000000000E+01 0. -1.
        -11    1    4    4    0    0 -0.45948227965E+02  0.86952442156E+02  0.45228872227E+03  0.46285748902E+03  0.00000000000E+00 0.  1.
         12    1    4    4    0    0 -0.55238885622E+02 -0.17810595730E+01  0.30741402629E+03  0.31234258470E+03  0.00000000000E+00 0. -1.
         -5    1    5    5    0  502  0.10415630287E+03 -0.11028507873E+03  0.79256253896E+03  0.80696270185E+03  0.47000000000E+01 0.  1.
         13    1    6    6    0    0 -0.30023303379E+02 -0.85447549165E+01  0.22464664980E+03  0.22680504591E+03  0.00000000000E+00 0. -1.
        -14    1    6    6    0    0  0.22841652984E+02 -0.31800866288E+02  0.59388225107E+02  0.71133659326E+02  0.00000000000E+00 0.  1.
</event>
<event>
12    1  0.8461994E-002  0.1909066E+03  0.7818608E-02  0.1157847E+00
         21   -1    0    0  501  502  0.00000000000E+00  0.00000000000E+00  0.17971040838E+03  0.17971040838E+03  0.00000000000E+00 0. -1.
         21   -1    0    0  502  503 -0.00000000000E+00 -0.00000000000E+00 -0.32234657240E+03  0.32234657240E+03  0.00000000000E+00 0. -1.
         -6    2    1    2    0  503  0.29154626221E+02  0.74956876624E+02 -0.22469052940E+03  0.29426319125E+03  0.17215245029E+03 0.  0.
        -24    2    3    3    0    0  0.22994046193E+02  0.25433314349E+02 -0.26189586781E+02  0.89531048717E+02  0.78449567173E+02 0.  0.
          6    2    1    2  501    0 -0.29154626221E+02 -0.74956876624E+02  0.82054365376E+02  0.20779378953E+03  0.17313813706E+03 0.  0.
         24    2    5    5    0    0 -0.75492280598E+02 -0.18227553118E+02  0.17948791110E+02  0.11034119074E+03  0.76300007528E+02 0.  0.
          5    1    5    5  501    0  0.46337654377E+02 -0.56729323506E+02  0.64105574266E+02  0.97452598788E+02  0.47000000000E+01 0. -1.
        -11    1    6    6    0    0  0.10724182637E+02  0.85156303419E+01 -0.86963367070E+01  0.16221908811E+02  0.00000000000E+00 0.  1.
         12    1    6    6    0    0 -0.86216463235E+02 -0.26743183460E+02  0.26645127817E+02  0.94119281928E+02  0.00000000000E+00 0. -1.
         -5    1    3    3    0  503  0.61605800278E+01  0.49523562275E+02 -0.19850094262E+03  0.20473214254E+03  0.47000000000E+01 0.  1.
         11    1    4    4    0    0  0.68787180750E+01 -0.20208695600E+02 -0.34351545706E+02  0.40444243504E+02  0.00000000000E+00 0. -1.
        -12    1    4    4    0    0  0.16115328118E+02  0.45642009949E+02  0.81619589251E+01  0.49086805213E+02  0.00000000000E+00 0.  1.
</event>
<event>
12    1  0.8461994E-002  0.1828348E+03  0.7818608E-02  0.1165484E+00
         21   -1    0    0  503  502  0.00000000000E+00  0.00000000000E+00  0.24781988522E+03  0.24781988522E+03  0.00000000000E+00 0. -1.
         21   -1    0    0  501  503 -0.00000000000E+00 -0.00000000000E+00 -0.28493805837E+03  0.28493805837E+03  0.00000000000E+00 0. -1.
          6    2    1    2  501    0 -0.13654769358E+02  0.57540909868E+02 -0.21268850848E+03  0.28047274863E+03  0.17300621969E+03 0.  0.
         24    2    3    3    0    0 -0.16712045330E+02 -0.18916806948E+01 -0.29956158821E+02  0.88236484186E+02  0.81273825893E+02 0.  0.
         -6    2    1    2    0  502  0.13654769358E+02 -0.57540909868E+02  0.17557033533E+03  0.25228519495E+03  0.17124680408E+03 0.  0.
        -24    2    5    5    0    0  0.25799365962E+02 -0.99156624782E+02  0.96949045609E+02  0.16238104515E+03  0.80441549312E+02 0.  0.
          5    1    3    3  501    0  0.30572759727E+01  0.59432590563E+02 -0.18273234966E+03  0.19223626445E+03  0.47000000000E+01 0. -1.
        -11    1    4    4    0    0  0.76910588596E+01 -0.36699511652E+02 -0.25818074322E+02  0.45525591743E+02  0.00000000000E+00 0.  1.
         12    1    4    4    0    0 -0.24403104190E+02  0.34807830957E+02 -0.41380844995E+01  0.42710892444E+02  0.00000000000E+00 0. -1.
         -5    1    5    5    0  502 -0.12144596604E+02  0.41615714914E+02  0.78621289720E+02  0.89904149802E+02  0.47000000000E+01 0.  1.
         11    1    6    6    0    0  0.28845254204E+02 -0.53694007563E+02  0.99566355161E+02  0.11674139891E+03  0.00000000000E+00 0. -1.
        -12    1    6    6    0    0 -0.30458882422E+01 -0.45462617219E+02 -0.26173095523E+01  0.45639646240E+02  0.00000000000E+00 0.  1.
</event>
<event>
12    1  0.8461994E-002  0.1740244E+03  0.7818608E-02  0.1174283E+00
         21   -1    0    0  501  502  0.00000000000E+00  0.00000000000E+00  0.48946561048E+02  0.48946561048E+02  0.00000000000E+00 0. -1.
         21   -1    0    0  502  503 -0.00000000000E+00 -0.00000000000E+00 -0.62096383128E+03  0.62096383128E+03  0.00000000000E+00 0. -1.
         -6    2    1    2    0  503 -0.26259461471E+02  0.60697681601E+01 -0.32700277359E+03  0.36938321090E+03  0.16966655873E+03 0.  0.
        -24    2    3    3    0    0 -0.61567067747E+02  0.44914240619E+02 -0.16681677447E+03  0.20074998636E+03  0.81639009907E+02 0.  0.
          6    2    1    2  501    0  0.26259461471E+02 -0.60697681601E+01 -0.24501449664E+03  0.30052718143E+03  0.17192463992E+03 0.  0.
         24    2    5    5    0    0  0.20080441147E+02 -0.26817428874E+02 -0.26002076928E+03  0.27377042647E+03  0.78848255177E+02 0.  0.
          5    1    5    5  501    0  0.61790203234E+01  0.20747660714E+02  0.15006272644E+02  0.26756754959E+02  0.47000000000E+01 0. -1.
        -13    1    6    6    0    0  0.45698267215E+02 -0.35059982260E+02 -0.19692023178E+03  0.20517093280E+03  0.00000000000E+00 0.  1.
         14    1    6    6    0    0 -0.25617826067E+02  0.82425533858E+01 -0.63100537504E+02  0.68599493672E+02  0.00000000000E+00 0. -1.
         -5    1    3    3    0  503  0.35307606276E+02 -0.38844472459E+02 -0.16018599913E+03  0.16863322454E+03  0.47000000000E+01 0.  1.
         13    1    4    4    0    0 -0.26466896520E+02  0.65473733535E+02 -0.11368849992E+03  0.13383714510E+03  0.00000000000E+00 0. -1.
        -14    1    4    4    0    0 -0.35100171227E+02 -0.20559492916E+02 -0.53128274544E+02  0.66912841258E+02  0.00000000000E+00 0.  1.
</event>
<event>
12    1  0.8461994E-002  0.3201801E+03  0.7818608E-02  0.1075787E+00
         21   -1    0    0  501  502  0.00000000000E+00  0.00000000000E+00  0.37773714025E+03  0.37773714025E+03  0.00000000000E+00 0. -1.
         21   -1    0    0  502  503 -0.00000000000E+00 -0.00000000000E+00 -0.32412889396E+03  0.32412889396E+03  0.00000000000E+00 0. -1.
         -6    2    1    2    0  503 -0.10154487048E+03  0.24857711313E+03 -0.11683852220E+03  0.34083211457E+03  0.17439423201E+03 0.  0.
        -24    2    3    3    0    0 -0.34965843432E+02  0.23882189111E+03 -0.64321798028E+02  0.25534511254E+03  0.52965336907E+02 0.  0.
          6    2    1    2  501    0  0.10154487048E+03 -0.24857711313E+03  0.17044676848E+03  0.36103391964E+03  0.17085505070E+03 0.  0.
         24    2    5    5    0    0  0.73984369618E+01 -0.14134673758E+03  0.14122081246E+03  0.21530077004E+03  0.79859042158E+02 0.  0.
          5    1    5    5  501    0  0.94146433520E+02 -0.10723037555E+03  0.29225956018E+02  0.14573314960E+03  0.47000000000E+01 0. -1.
        -13    1    6    6    0    0 -0.12516776687E+01  0.10422312417E+02  0.88377577799E+01  0.13722144719E+02  0.00000000000E+00 0.  1.
         14    1    6    6    0    0  0.86501146305E+01 -0.15176905000E+03  0.13238305468E+03  0.20157862532E+03  0.00000000000E+00 0. -1.
         -5    1    3    3    0  503 -0.66579027049E+02  0.97552220207E+01 -0.52516724168E+02  0.85487002035E+02  0.47000000000E+01 0.  1.
         11    1    4    4    0    0 -0.13038629197E+02  0.20966022331E+03 -0.48586358496E+02  0.21561087478E+03  0.00000000000E+00 0. -1.
        -12    1    4    4    0    0 -0.21927214236E+02  0.29161667800E+02 -0.15735439532E+02  0.39734237759E+02  0.00000000000E+00 0.  1.
</event>
<event>
12    1  0.8461994E-002  0.1938499E+03  0.7818608E-02  0.1156562E+00
         21   -1    0    0  501  502  0.00000000000E+00  0.00000000000E+00  0.26995275842E+03  0.26995275842E+03  0.00000000000E+00 0.  1.
         21   -1    0    0  502  503 -0.00000000000E+00 -0.00000000000E+00 -0.13465689092E+03  0.13465689092E+03  0.00000000000E+00 0.  1.
         -6    2    1    2    0  503  0.76604300963E+02 -0.15423780099E+02  0.76198679455E+02  0.20195165196E+03  0.16991797744E+03 0.  0.
        -24    2    3    3    0    0 -0.16274682339E+02 -0.37445690298E+02  0.49307565419E+02  0.10267077725E+03  0.80268346730E+02 0.  0.
          6    2    1    2  501    0 -0.76604300963E+02  0.15423780099E+02  0.59097188043E+02  0.20265799738E+03  0.17740257707E+03 0.  0.
         24    2    5    5    0    0 -0.82123008083E+02 -0.49379305437E+02  0.15928129236E+02  0.12445599190E+03  0.77801570399E+02 0.  0.
          5    1    5    5  501    0  0.55187071207E+01  0.64803085536E+02  0.43169058808E+02  0.78202005483E+02  0.47000000000E+01 0. -1.
        -13    1    6    6    0    0 -0.27132117166E+02 -0.50508597743E+02  0.33881593035E+02  0.66597541805E+02  0.00000000000E+00 0.  1.
         14    1    6    6    0    0 -0.54990890917E+02  0.11292923057E+01 -0.17953463799E+02  0.57858450095E+02  0.00000000000E+00 0. -1.
         -5    1    3    3    0  503  0.92878983301E+02  0.22021910199E+02  0.26891114036E+02  0.99280874704E+02  0.47000000000E+01 0.  1.
         13    1    4    4    0    0 -0.35184360482E+02  0.11188054932E+02  0.27868361011E+02  0.46257511186E+02  0.00000000000E+00 0. -1.
        -14    1    4    4    0    0  0.18909678143E+02 -0.48633745230E+02  0.21439204409E+02  0.56413266066E+02  0.00000000000E+00 0.  1.
</event>
<event>
12    1  0.8461994E-002  0.1998699E+03  0.7818608E-02  0.1149901E+00
         21   -1    0    0  503  502  0.00000000000E+00  0.00000000000E+00  0.82841299475E+02  0.82841299475E+02  0.00000000000E+00 0.  1.
         21   -1    0    0  501  503 -0.00000000000E+00 -0.00000000000E+00 -0.48166300260E+03  0.48166300260E+03  0.00000000000E+00 0.  1.
          6    2    1    2  501    0  0.95545954069E+02  0.33014543172E+02 -0.19701559072E+03  0.28064765382E+03  0.17242091871E+03 0.  0.
         24    2    3    3    0    0  0.99310492526E+02  0.76236891518E+02 -0.11648027887E+03  0.18904869312E+03  0.80604686283E+02 0.  0.
         -6    2    1    2    0  502 -0.95545954069E+02 -0.33014543172E+02 -0.20180611241E+03  0.28385664826E+03  0.17213337955E+03 0.  0.
        -24    2    5    5    0    0 -0.73618152999E+02  0.16649719147E+02 -0.20133322398E+03  0.22936186838E+03  0.79843308967E+02 0.  0.
          5    1    3    3  501    0 -0.37645384579E+01 -0.43222348346E+02 -0.80535311848E+02  0.91598960697E+02  0.47000000000E+01 0. -1.
        -13    1    4    4    0    0  0.90532435412E+02  0.26468453532E+02 -0.53991458959E+02  0.10868200649E+03  0.00000000000E+00 0.  1.
         14    1    4    4    0    0  0.87780571146E+01  0.49768437986E+02 -0.62488819909E+02  0.80366686630E+02  0.00000000000E+00 0. -1.
         -5    1    5    5    0  502 -0.21927801070E+02 -0.49664262320E+02 -0.47288842968E+00  0.54494779887E+02  0.47000000000E+01 0.  1.
         13    1    6    6    0    0  0.96824601358E+01 -0.81992240696E+01 -0.33302416930E+01  0.13117462383E+02  0.00000000000E+00 0. -1.
        -14    1    6    6    0    0 -0.83300613135E+02  0.24848943217E+02 -0.19800298229E+03  0.21624440599E+03  0.00000000000E+00 0.  1.
</event>
<event>
12    1  0.8461994E-002  0.2214922E+03  0.7818608E-02  0.1132791E+00
         21   -1    0    0  501  502  0.00000000000E+00  0.00000000000E+00  0.33575082694E+03  0.33575082694E+03  0.00000000000E+00 0. -1.
         21   -1    0    0  502  503 -0.00000000000E+00 -0.00000000000E+00 -0.16710541533E+03  0.16710541533E+03  0.00000000000E+00 0.  1.
         -6    2    1    2    0  503  0.93637328526E+02  0.10412365009E+03 -0.48858184612E+01  0.22154608709E+03  0.17160744064E+03 0.  0.
        -24    2    3    3    0    0  0.57405480422E+02 -0.11336000298E+02  0.92672166424E+01  0.99619567880E+02  0.80089218470E+02 0.  0.
          6    2    1    2  501    0 -0.93637328526E+02 -0.10412365009E+03  0.17353123006E+03  0.28131015518E+03  0.17150111311E+03 0.  0.
         24    2    5    5    0    0 -0.20469210842E+02  0.19408511527E+01  0.10667965764E+03  0.13607078516E+03  0.81926514168E+02 0.  0.
          5    1    5    5  501    0 -0.73168117683E+02 -0.10606450124E+03  0.66851572425E+02  0.14523937002E+03  0.47000000000E+01 0. -1.
        -13    1    6    6    0    0 -0.50471334020E+02 -0.96870482213E+01  0.74980436945E+02  0.90902477334E+02  0.00000000000E+00 0.  1.
         14    1    6    6    0    0  0.30002123178E+02  0.11627899374E+02  0.31699220694E+02  0.45168307823E+02  0.00000000000E+00 0. -1.
         -5    1    3    3    0  503  0.36231848103E+02  0.11545965039E+03 -0.14153035104E+02  0.12192651921E+03  0.47000000000E+01 0.  1.
         11    1    4    4    0    0 -0.17837366598E+02  0.31612488442E+01  0.13928781941E+02  0.22851173007E+02  0.00000000000E+00 0. -1.
        -12    1    4    4    0    0  0.75242847021E+02 -0.14497249142E+02 -0.46615652986E+01  0.76768394874E+02  0.00000000000E+00 0.  1.
</event>
<event>
12    1  0.8461994E-002  0.3238193E+03  0.7818608E-02  0.1074107E+00
         21   -1    0    0  501  502  0.00000000000E+00  0.00000000000E+00  0.83061521277E+03  0.83061521277E+03  0.00000000000E+00 0. -1.
         21   -1    0    0  502  503 -0.00000000000E+00 -0.00000000000E+00 -0.22382944436E+03  0.22382944436E+03  0.00000000000E+00 0. -1.
         -6    2    1    2    0  503  0.13144522868E+03 -0.23910515301E+03 -0.45493762530E+02  0.32699946054E+03  0.17438418056E+03 0.  0.
        -24    2    3    3    0    0  0.44661877400E+02 -0.21499356496E+03 -0.27203444268E+02  0.23497041904E+03  0.79083210471E+02 0.  0.
          6    2    1    2  501    0 -0.13144522868E+03  0.23910515301E+03  0.65227953094E+03  0.72744519660E+03  0.17105205416E+03 0.  0.
         24    2    5    5    0    0 -0.91864003105E+02  0.69412363355E+02  0.35812302414E+03  0.38552056050E+03  0.84361904291E+02 0.  0.
          5    1    5    5  501    0 -0.39581225575E+02  0.16969278965E+03  0.29415650680E+03  0.34192463609E+03  0.47000000000E+01 0. -1.
        -11    1    6    6    0    0 -0.13390224187E+02  0.17164905517E+02  0.84348631072E+01  0.23346927010E+02  0.00000000000E+00 0.  1.
         12    1    6    6    0    0 -0.78473778918E+02  0.52247457838E+02  0.34968816104E+03  0.36217363349E+03  0.00000000000E+00 0. -1.
         -5    1    3    3    0  503  0.86783351280E+02 -0.24111588048E+02 -0.18290318262E+02  0.92029041501E+02  0.47000000000E+01 0.  1.
         13    1    4    4    0    0  0.39032470335E+02 -0.11239031908E+03 -0.51077427602E+02  0.12947594825E+03  0.00000000000E+00 0. -1.
        -14    1    4    4    0    0  0.56294070652E+01 -0.10260324588E+03  0.23873983334E+02  0.10549447080E+03  0.00000000000E+00 0.  1.
</event>
<event>
12    1  0.8461994E-002  0.2086140E+03  0.7818608E-02  0.1142915E+00
         21   -1    0    0  501  502  0.00000000000E+00  0.00000000000E+00  0.62907257199E+02  0.62907257199E+02  0.00000000000E+00 0. -1.
         21   -1    0    0  502  503 -0.00000000000E+00 -0.00000000000E+00 -0.71295538295E+03  0.71295538295E+03  0.00000000000E+00 0.  1.
         -6    2    1    2    0  503 -0.70598480894E+02  0.91364239797E+02 -0.39892767087E+03  0.45018117081E+03  0.17374760473E+03 0.  0.
        -24    2    3    3    0    0 -0.44499335911E+02 -0.20342181783E+02 -0.18225921562E+03  0.20497350476E+03  0.80010753764E+02 0.  0.
          6    2    1    2  501    0  0.70598480894E+02 -0.91364239797E+02 -0.25112045488E+03  0.32568146933E+03  0.17226539639E+03 0.  0.
         24    2    5    5    0    0  0.10480978112E+03 -0.67298786040E+02 -0.24046230501E+03  0.28226205793E+03  0.79596057659E+02 0.  0.
          5    1    5    5  501    0 -0.34211300228E+02 -0.24065453757E+02 -0.10658149863E+02  0.43419411400E+02  0.47000000000E+01 0. -1.
        -11    1    6    6    0    0  0.93170655352E+02 -0.15214215190E+02 -0.15033929609E+03  0.17752224455E+03  0.00000000000E+00 0.  1.
         12    1    6    6    0    0  0.11639125770E+02 -0.52084570850E+02 -0.90123008926E+02  0.10473981338E+03  0.00000000000E+00 0. -1.
         -5    1    3    3    0  503 -0.26099144983E+02  0.11170642158E+03 -0.21666845525E+03  0.24520766605E+03  0.47000000000E+01 0.  1.
         13    1    4    4    0    0 -0.40909517384E+02 -0.60654569248E+01 -0.18536990944E+03  0.18992730638E+03  0.00000000000E+00 0. -1.
        -14    1    4    4    0    0 -0.35898185262E+01 -0.14276724858E+02  0.31106938210E+01  0.15046198383E+02  0.00000000000E+00 0.  1.
</event>
<event>
12    1  0.8461994E-002  0.2107946E+03  0.7818608E-02  0.1140987E+00
         21   -1    0    0  503  502  0.00000000000E+00  0.00000000000E+00  0.31762503756E+03  0.31762503756E+03  0.00000000000E+00 0.  1.
         21   -1    0    0  501  503 -0.00000000000E+00 -0.00000000000E+00 -0.14216411514E+03  0.14216411514E+03  0.00000000000E+00 0. -1.
          6    2    1    2  501    0 -0.60304590519E+02  0.10537388181E+03  0.57704934681E+02  0.21855025049E+03  0.17231962714E+03 0.  0.
         24    2    3    3    0    0 -0.26560949920E+02  0.12135686088E+03 -0.29608394801E+01  0.14716036987E+03  0.78831695060E+02 0.  0.
         -6    2    1    2    0  502  0.60304590519E+02 -0.10537388181E+03  0.11775598775E+03  0.24123890221E+03  0.17201580358E+03 0.  0.
        -24    2    5    5    0    0 -0.34351523460E+02 -0.50980520019E+01  0.24055694852E+02  0.74455039540E+02  0.61309535636E+02 0.  0.
          5    1    3    3  501    0 -0.33743640598E+02 -0.15982979070E+02  0.60665774161E+02  0.71389880623E+02  0.47000000000E+01 0. -1.
        -13    1    4    4    0    0 -0.22591890490E+02  0.58903368406E+02  0.36782638080E+02  0.73027137350E+02  0.00000000000E+00 0.  1.
         14    1    4    4    0    0 -0.39690594307E+01  0.62453492476E+02 -0.39743477560E+02  0.74133232519E+02  0.00000000000E+00 0. -1.
         -5    1    5    5    0  502  0.94656113979E+02 -0.10027582981E+03  0.93700292896E+02  0.16678386267E+03  0.47000000000E+01 0.  1.
         13    1    6    6    0    0  0.14257953859E+02  0.12154062174E+02  0.85549477003E+01  0.20596058014E+02  0.00000000000E+00 0. -1.
        -14    1    6    6    0    0 -0.48609477319E+02 -0.17252114176E+02  0.15500747151E+02  0.53858981526E+02  0.00000000000E+00 0.  1.
</event>
<event>
12    1  0.8461994E-002  0.2409525E+03  0.7818608E-02  0.1119184E+00
         21   -1    0    0  501  502  0.00000000000E+00  0.00000000000E+00  0.77118684157E+03  0.77118684157E+03  0.00000000000E+00 0.  1.
         21   -1    0    0  502  503 -0.00000000000E+00 -0.00000000000E+00 -0.69802489511E+03  0.69802489511E+03  0.00000000000E+00 0. -1.
         -6    2    1    2    0  503  0.36127257813E+02  0.16487065385E+03 -0.65730459778E+03  0.70007672648E+03  0.17196097651E+03 0.  0.
        -24    2    3    3    0    0  0.24819247139E+02  0.85664972723E+02 -0.18678304321E+03  0.22277804186E+03  0.82387305598E+02 0.  0.
          6    2    1    2  501    0 -0.36127257813E+02 -0.16487065385E+03  0.73046654424E+03  0.76913501020E+03  0.17175500111E+03 0.  0.
         24    2    5    5    0    0 -0.65745403298E+02 -0.16219830583E+03  0.48467329148E+03  0.52150466253E+03  0.80175838603E+02 0.  0.
          5    1    5    5  501    0  0.29618145485E+02 -0.26723480170E+01  0.24579325277E+03  0.24763034768E+03  0.47000000000E+01 0. -1.
        -13    1    6    6    0    0 -0.28533213552E+02 -0.35709636341E+02  0.23241736549E+03  0.23686948766E+03  0.00000000000E+00 0.  1.
         14    1    6    6    0    0 -0.37212189746E+02 -0.12648866949E+03  0.25225592599E+03  0.28463517487E+03  0.00000000000E+00 0. -1.
         -5    1    3    3    0  503  0.11308010675E+02  0.79205681127E+02 -0.47052155457E+03  0.47729868462E+03  0.47000000000E+01 0.  1.
         13    1    4    4    0    0  0.28827728579E+02  0.55864873368E+02 -0.18171976162E+03  0.19228622877E+03  0.00000000000E+00 0. -1.
        -14    1    4    4    0    0 -0.40084814397E+01  0.29800099355E+02 -0.50632815911E+01  0.30491813089E+02  0.00000000000E+00 0.  1.
</event>
<event>
12    1  0.8461994E-002  0.2860131E+03  0.7818608E-02  0.1092550E+00
         21   -1    0    0  503  502  0.00000000000E+00  0.00000000000E+00  0.23512997878E+03  0.23512997878E+03  0.00000000000E+00 0. -1.
         21   -1    0    0  501  503 -0.00000000000E+00 -0.00000000000E+00 -0.39940568597E+03  0.39940568597E+03  0.00000000000E+00 0. -1.
          6    2    1    2  501    0 -0.34498736373E+02 -0.22440515305E+03 -0.19716644058E+03  0.34738751008E+03  0.17394148826E+03 0.  0.
         24    2    3    3    0    0 -0.26258448533E+02 -0.30915761457E+02 -0.39593710356E+02  0.97673068535E+02  0.79542919179E+02 0.  0.
         -6    2    1    2    0  502  0.34498736373E+02  0.22440515305E+03  0.32890733394E+02  0.28714815467E+03  0.17269750102E+03 0.  0.
        -24    2    5    5    0    0  0.67247838069E+02  0.14129948667E+03  0.71446068473E+02  0.18974353820E+03  0.80064055163E+02 0.  0.
          5    1    3    3  501    0 -0.82402878404E+01 -0.19348939160E+03 -0.15757273023E+03  0.24971444154E+03  0.47000000000E+01 0. -1.
        -13    1    4    4    0    0 -0.19410496365E+02  0.37764193709E+01  0.20160501623E+02  0.28239591677E+02  0.00000000000E+00 0.  1.
         14    1    4    4    0    0 -0.68479521680E+01 -0.34692180828E+02 -0.59754211978E+02  0.69433476859E+02  0.00000000000E+00 0. -1.
         -5    1    5    5    0  502 -0.32749101696E+02  0.83105666387E+02 -0.38555335079E+02  0.97404616475E+02  0.47000000000E+01 0.  1.
         11    1    6    6    0    0  0.70833710312E+02  0.55745252317E+02  0.37682181052E+02  0.97697975626E+02  0.00000000000E+00 0. -1.
        -12    1    6    6    0    0 -0.35858722433E+01  0.85554234350E+02  0.33763887421E+02  0.92045562570E+02  0.00000000000E+00 0.  1.
</event>
<event>
12    1  0.8461994E-002  0.4061547E+03  0.7818608E-02  0.1041767E+00
         21   -1    0    0  501  502  0.00000000000E+00  0.00000000000E+00  0.10239572665E+04  0.10239572665E+04  0.00000000000E+00 0.  1.
         21   -1    0    0  502  503 -0.00000000000E+00 -0.00000000000E+00 -0.19990847700E+03  0.19990847700E+03  0.00000000000E+00 0. -1.
         -6    2    1    2    0  503  0.39060136365E+01 -0.36595758713E+03  0.14035326442E+03  0.42862915078E+03  0.17344652648E+03 0.  0.
        -24    2    3    3    0    0  0.30237148048E+02 -0.34608316028E+03  0.83437803109E+02  0.36267627959E+03  0.62324777097E+02 0.  0.
          6    2    1    2  501    0 -0.39060136365E+01  0.36595758713E+03  0.68369552509E+03  0.79523659272E+03  0.17612908579E+03 0.  0.
         24    2    5    5    0    0 -0.30697722041E+02  0.11681368447E+03  0.34323470714E+03  0.37247644982E+03  0.79629482394E+02 0.  0.
          5    1    5    5  501    0  0.26791708405E+02  0.24914390265E+03  0.34046081795E+03  0.42276014291E+03  0.47000000000E+01 0. -1.
        -11    1    6    6    0    0 -0.90307295380E+01  0.11808744872E+03  0.24838396549E+03  0.27517411566E+03  0.00000000000E+00 0.  1.
         12    1    6    6    0    0 -0.21666992503E+02 -0.12737642510E+01  0.94850741652E+02  0.97302334152E+02  0.00000000000E+00 0. -1.
         -5    1    3    3    0  503 -0.26331134411E+02 -0.19874426848E+02  0.56915461307E+02  0.65952871186E+02  0.47000000000E+01 0.  1.
         11    1    4    4    0    0  0.21983422146E+02 -0.32387458143E+02  0.93248456320E+01  0.40238924442E+02  0.00000000000E+00 0. -1.
        -12    1    4    4    0    0  0.82537259018E+01 -0.31369570214E+03  0.74112957477E+02  0.32243735515E+03  0.00000000000E+00 0.  1.
</event>
<event>
12    1  0.8461994E-002  0.1874980E+03  0.7818608E-02  0.1161342E+00
         21   -1    0    0  503  502  0.00000000000E+00  0.00000000000E+00  0.71366357172E+03  0.71366357172E+03  0.00000000000E+00 0.  1.
         21   -1    0    0  501  503 -0.00000000000E+00 -0.00000000000E+00 -0.49686609120E+02  0.49686609120E+02  0.00000000000E+00 0.  1.
          6    2    1    2  501    0  0.46423612183E+02  0.53867562008E+02  0.27719379969E+03  0.33465193724E+03  0.17348962651E+03 0.  0.
         24    2    3    3    0    0  0.59957051206E+02  0.97249042208E+02  0.18032538542E+03  0.22755064649E+03  0.78802461211E+02 0.  0.
         -6    2    1    2    0  502 -0.46423612183E+02 -0.53867562008E+02  0.38678316291E+03  0.42869824360E+03  0.17065785347E+03 0.  0.
        -24    2    5    5    0    0 -0.64694355214E+01  0.32173021882E+02  0.14567371726E+03  0.16955509187E+03  0.80318991186E+02 0.  0.
          5    1    3    3  501    0 -0.13533439024E+02 -0.43381480200E+02  0.96868414273E+02  0.10710129075E+03  0.47000000000E+01 0. -1.
        -13    1    4    4    0    0 -0.15324763801E+01  0.14585394576E+00 -0.73327240281E+01  0.74925695793E+01  0.00000000000E+00 0.  1.
         14    1    4    4    0    0  0.61489527587E+02  0.97103188262E+02  0.18765810945E+03  0.22005807691E+03  0.00000000000E+00 0. -1.
         -5    1    5    5    0  502 -0.39954176661E+02 -0.86040583890E+02  0.24110944565E+03  0.25914315173E+03  0.47000000000E+01 0.  1.
         11    1    6    6    0    0  0.32310464273E+02  0.13734788745E+02  0.30040767337E+02  0.46206690269E+02  0.00000000000E+00 0. -1.
        -12    1    6    6    0    0 -0.38779899794E+02  0.18438233137E+02  0.11563294992E+03  0.12334840160E+03  0.00000000000E+00 0.  1.
</event>
<event>
12    1  0.8461994E-002  0.2265109E+03  0.7818608E-02  0.1129675E+00
         21   -1    0    0  501  502  0.00000000000E+00  0.00000000000E+00  0.33969905351E+03  0.33969905351E+03  0.00000000000E+00 0.  1.
         21   -1    0    0  502  503 -0.00000000000E+00 -0.00000000000E+00 -0.21064096764E+03  0.21064096764E+03  0.00000000000E+00 0. -1.
         -6    2    1    2    0  503  0.10335441857E+03  0.10314986918E+03 -0.84016309483E+02  0.24159040354E+03  0.17316221144E+03 0.  0.
        -24    2    3    3    0    0  0.10584491868E+03  0.13672007762E+03 -0.58767024578E+02  0.19924919578E+03  0.79694117763E+02 0.  0.
          6    2    1    2  501    0 -0.10335441857E+03 -0.10314986918E+03  0.21307439535E+03  0.30874961761E+03  0.16912597987E+03 0.  0.
         24    2    5    5    0    0 -0.13305488983E+03 -0.94636485650E+02  0.21392059228E+03  0.27748619263E+03  0.67652783968E+02 0.  0.
          5    1    5    5  501    0  0.29700471257E+02 -0.85133835300E+01 -0.84619692265E+00  0.31263424976E+02  0.47000000000E+01 0. -1.
        -11    1    6    6    0    0 -0.12225134735E+03 -0.61384844597E+02  0.19357923740E+03  0.23703673181E+03  0.00000000000E+00 0.  1.
         12    1    6    6    0    0 -0.10803542481E+02 -0.33251641052E+02  0.20341354881E+02  0.40449460827E+02  0.00000000000E+00 0. -1.
         -5    1    3    3    0  503 -0.24905001092E+01 -0.33570208444E+02 -0.25249284906E+02  0.42341207753E+02  0.47000000000E+01 0.  1.
         11    1    4    4    0    0  0.61791661942E+02  0.12722438878E+03 -0.61220322610E+02  0.15411743083E+03  0.00000000000E+00 0. -1.
        -12    1    4    4    0    0  0.44053256742E+02  0.94956888411E+01  0.24532980323E+01  0.45131764949E+02  0.00000000000E+00 0.  1.
</event>
<event>
12    1  0.8461994E-002  0.1897531E+03  0.7818608E-02  0.1158769E+00
         21   -1    0    0  501  502  0.00000000000E+00  0.00000000000E+00  0.53960963863E+03  0.53960963863E+03  0.00000000000E+00 0. -1.
         21   -1    0    0  502  503 -0.00000000000E+00 -0.00000000000E+00 -0.14204459007E+03  0.14204459007E+03  0.00000000000E+00 0.  1.
         -6    2    1    2    0  503 -0.10763026225E+02 -0.79022339563E+02 -0.49524684221E+02  0.19610949012E+03  0.17217974586E+03 0.  0.
        -24    2    3    3    0    0 -0.39086116614E+02  0.11767275790E+02 -0.46283513818E+02  0.10083332893E+03  0.79743358849E+02 0.  0.
          6    2    1    2  501    0  0.10763026225E+02  0.79022339563E+02  0.44708973279E+03  0.48554473858E+03  0.17176754965E+03 0.  0.
         24    2    5    5    0    0  0.50094095462E+02 -0.64356235334E+01  0.24580644391E+03  0.26331276778E+03  0.79761959335E+02 0.  0.
          5    1    5    5  501    0 -0.39331069237E+02  0.85457963097E+02  0.20128328887E+03  0.22223197079E+03  0.47000000000E+01 0. -1.
        -11    1    6    6    0    0  0.26362351202E+02 -0.24346958297E+02  0.22292584261E+03  0.22579565816E+03  0.00000000000E+00 0.  1.
         12    1    6    6    0    0  0.23731744260E+02  0.17911334764E+02  0.22880601307E+02  0.37517109627E+02  0.00000000000E+00 0. -1.
         -5    1    3    3    0  503  0.28323090389E+02 -0.90789615354E+02 -0.32411704023E+01  0.95276161188E+02  0.47000000000E+01 0.  1.
         13    1    4    4    0    0  0.10683578342E+02  0.32954141481E+02 -0.24925288671E+02  0.42677679204E+02  0.00000000000E+00 0. -1.
        -14    1    4    4    0    0 -0.49769694955E+02 -0.21186865691E+02 -0.21358225148E+02  0.58155649727E+02  0.00000000000E+00 0.  1.
</event>
<event>
12    1  0.8461994E-002  0.1752852E+03  0.7818608E-02  0.1172476E+00
         21   -1    0    0  501  502  0.00000000000E+00  0.00000000000E+00  0.31430066346E+02  0.31430066346E+02  0.00000000000E+00 0.  1.
         21   -1    0    0  502  503 -0.00000000000E+00 -0.00000000000E+00 -0.10499488095E+04  0.10499488095E+04  0.00000000000E+00 0.  1.
         -6    2    1    2    0  503  0.25805900845E+02  0.20139736339E+02 -0.36679837844E+03  0.40652913740E+03  0.17220143913E+03 0.  0.
        -24    2    3    3    0    0 -0.51283182838E+02  0.58674964377E+01 -0.22976633140E+03  0.24858517402E+03  0.79609228992E+02 0.  0.
          6    2    1    2  501    0 -0.25805900845E+02 -0.20139736339E+02 -0.65172036476E+03  0.67484973848E+03  0.17207899985E+03 0.  0.
         24    2    5    5    0    0 -0.21569276861E+02  0.22630750760E+02 -0.16178244714E+03  0.18300777538E+03  0.79629774974E+02 0.  0.
          5    1    5    5  501    0 -0.42366239843E+01 -0.42770487098E+02 -0.48993791761E+03  0.49184196310E+03  0.47000000000E+01 0. -1.
        -13    1    6    6    0    0 -0.34876136155E+02  0.37908941569E+02 -0.15203478744E+03  0.16052417050E+03  0.00000000000E+00 0.  1.
         14    1    6    6    0    0  0.13306859294E+02 -0.15278190810E+02 -0.97476597053E+01  0.22483604880E+02  0.00000000000E+00 0. -1.
         -5    1    3    3    0  503  0.77089083683E+02  0.14272239901E+02 -0.13703204703E+03  0.15794396338E+03  0.47000000000E+01 0.  1.
         11    1    4    4    0    0 -0.25526444202E+02  0.14608773228E+02 -0.16764205056E+02  0.33853421983E+02  0.00000000000E+00 0. -1.
        -12    1    4    4    0    0 -0.25756738636E+02 -0.87412767903E+01 -0.21300212635E+03  0.21473175204E+03  0.00000000000E+00 0.  1.
</event>
<event>
12    1  0.8461994E-002  0.3654158E+03  0.7818608E-02  0.1056632E+00
         21   -1    0    0  503  502  0.00000000000E+00  0.00000000000E+00  0.30815245469E+03  0.30815245469E+03  0.00000000000E+00 0.  1.
         21   -1    0    0  501  503 -0.00000000000E+00 -0.00000000000E+00 -0.10205806755E+04  0.10205806755E+04  0.00000000000E+00 0. -1.
          6    2    1    2  501    0 -0.28512824902E+03 -0.14751636597E+03 -0.86071080341E+03  0.93437739037E+03  0.17081810179E+03 0.  0.
         24    2    3    3    0    0 -0.17431772023E+03 -0.13360714436E+03 -0.70439949711E+03  0.74221143549E+03  0.80384244923E+02 0.  0.
         -6    2    1    2    0  502  0.28512824902E+03  0.14751636597E+03  0.14828258263E+03  0.39435573980E+03  0.17455523075E+03 0.  0.
        -24    2    5    5    0    0  0.24867223337E+03  0.71034544946E+02  0.71829447189E+02  0.28013804440E+03  0.80212643705E+02 0.  0.
          5    1    3    3  501    0 -0.11081052879E+03 -0.13909221611E+02 -0.15631130631E+03  0.19216595488E+03  0.47000000000E+01 0. -1.
        -11    1    4    4    0    0 -0.48619014379E+02 -0.64604337233E+02 -0.16034268278E+03  0.17957534594E+03  0.00000000000E+00 0.  1.
         12    1    4    4    0    0 -0.12569870586E+03 -0.69002807127E+02 -0.54405681433E+03  0.56263608955E+03  0.00000000000E+00 0. -1.
         -5    1    5    5    0  502  0.36456015653E+02  0.76481821026E+02  0.76453135437E+02  0.11421769540E+03  0.47000000000E+01 0.  1.
         13    1    6    6    0    0  0.12084085234E+03  0.45868956252E+01  0.42421265883E+01  0.12100225967E+03  0.00000000000E+00 0. -1.
        -14    1    6    6    0    0  0.12783138103E+03  0.66447649321E+02  0.67587320601E+02  0.15913578473E+03  0.00000000000E+00 0.  1.
</event>
<event>
12    1  0.8461994E-002  0.1727672E+03  0.7818608E-02  0.1175193E+00
         21   -1    0    0  503  502  0.00000000000E+00  0.00000000000E+00  0.83023035643E+03  0.83023035643E+03  0.00000000000E+00 0.  1.
         21   -1    0    0  501  503 -0.00000000000E+00 -0.00000000000E+00 -0.59371958629E+02  0.59371958629E+02  0.00000000000E+00 0.  1.
          6    2    1    2  501    0 -0.64689742952E+01 -0.11401907797E+02  0.10456618249E+03  0.20127549283E+03  0.17148144612E+03 0.  0.
         24    2    3    3    0    0  0.53161900943E+02  0.27313625446E+02  0.73562190957E+02  0.12357046541E+03  0.79284564294E+02 0.  0.
         -6    2    1    2    0  502  0.64689742952E+01  0.11401907797E+02  0.66629221531E+03  0.68832682223E+03  0.17226911182E+03 0.  0.
        -24    2    5    5    0    0  0.29014290585E+02  0.14177210899E+02  0.65802350022E+03  0.66370051022E+03  0.80377969960E+02 0.  0.
          5    1    3    3  501    0 -0.59630875239E+02 -0.38715533243E+02  0.31003991535E+02  0.77705027425E+02  0.47000000000E+01 0. -1.
        -13    1    4    4    0    0  0.46320742557E+01  0.44183419583E+02  0.50481581324E+02  0.67245971856E+02  0.00000000000E+00 0.  1.
         14    1    4    4    0    0  0.48529826688E+02 -0.16869794137E+02  0.23080609633E+02  0.56324493549E+02  0.00000000000E+00 0. -1.
         -5    1    5    5    0  502 -0.22545316290E+02 -0.27753031022E+01  0.82687150873E+01  0.24626312008E+02  0.47000000000E+01 0.  1.
         11    1    6    6    0    0  0.28197346866E+02  0.45284110310E+02  0.48250142823E+03  0.48544141692E+03  0.00000000000E+00 0. -1.
        -12    1    6    6    0    0  0.81694371890E+00 -0.31106899410E+02  0.17552207199E+03  0.17825909330E+03  0.00000000000E+00 0.  1.
</event>
<event>
12    1  0.8461994E-002  0.2238230E+03  0.7818608E-02  0.1131271E+00
         21   -1    0    0  503  502  0.00000000000E+00  0.00000000000E+00  0.11692423990E+03  0.11692423990E+03  0.00000000000E+00 0. -1.
         21   -1    0    0  501  503 -0.00000000000E+00 -0.00000000000E+00 -0.80605387965E+03  0.80605387965E+03  0.00000000000E+00 0. -1.
          6    2    1    2  501    0 -0.12156509674E+03 -0.73458810257E+02 -0.66086549391E+03  0.69737756050E+03  0.17151673768E+03 0.  0.
         24    2    3    3    0    0 -0.87039200145E+02 -0.15594442003E+02 -0.57995903182E+03  0.59198179087E+03  0.79189349946E+02 0.  0.
         -6    2    1    2    0  502  0.12156509674E+03  0.73458810257E+02 -0.28264145842E+02  0.22560055906E+03  0.17298115723E+03 0.  0.
        -24    2    5    5    0    0  0.10515410743E+03  0.50978903568E+02 -0.82870026322E+02  0.16413057485E+03  0.80094752767E+02 0.  0.
          5    1    3    3  501    0 -0.34525896596E+02 -0.57864368254E+02 -0.80906462085E+02  0.10539576963E+03  0.47000000000E+01 0. -1.
        -11    1    4    4    0    0 -0.45543268715E+02  0.47295964043E+01 -0.47624047612E+03  0.47843656790E+03  0.00000000000E+00 0.  1.
         12    1    4    4    0    0 -0.41495931430E+02 -0.20324038407E+02 -0.10371855570E+03  0.11354522297E+03  0.00000000000E+00 0. -1.
         -5    1    5    5    0  502  0.16410989315E+02  0.22479906689E+02  0.54605880480E+02  0.61469984204E+02  0.47000000000E+01 0.  1.
         13    1    6    6    0    0  0.11749281371E+03  0.49935301758E+02 -0.67555708837E+02  0.14443638542E+03  0.00000000000E+00 0. -1.
        -14    1    6    6    0    0 -0.12338706285E+02  0.10436018108E+01 -0.15314317484E+02  0.19694189436E+02  0.00000000000E+00 0.  1.
</event>
<event>
12    1  0.8461994E-002  0.2384798E+03  0.7818608E-02  0.1120982E+00
         21   -1    0    0  501  502  0.00000000000E+00  0.00000000000E+00  0.39048310165E+03  0.39048310165E+03  0.00000000000E+00 0. -1.
         21   -1    0    0  502  503 -0.00000000000E+00 -0.00000000000E+00 -0.47147366171E+03  0.47147366171E+03  0.00000000000E+00 0. -1.
         -6    2    1    2    0  503 -0.16327075779E+03  0.15833742700E+02 -0.39914203763E+03  0.46495909311E+03  0.17310269874E+03 0.  0.
        -24    2    3    3    0    0 -0.18165876271E+03  0.40637863728E+02 -0.37211716303E+03  0.42365779783E+03  0.79770950889E+02 0.  0.
          6    2    1    2  501    0  0.16327075779E+03 -0.15833742700E+02  0.31815147756E+03  0.39699767025E+03  0.17169373824E+03 0.  0.
         24    2    5    5    0    0  0.78930668687E+02  0.10966372214E+02  0.70915620626E+02  0.13435883888E+03  0.81688191049E+02 0.  0.
          5    1    5    5  501    0  0.84340089103E+02 -0.26800114914E+02  0.24723585694E+03  0.26263883137E+03  0.47000000000E+01 0. -1.
        -13    1    6    6    0    0  0.57565828811E+02  0.28691123917E+02  0.82216546038E+02  0.10438661639E+03  0.00000000000E+00 0.  1.
         14    1    6    6    0    0  0.21364839876E+02 -0.17724751703E+02 -0.11300925412E+02  0.29972222491E+02  0.00000000000E+00 0. -1.
         -5    1    3    3    0  503  0.18388004918E+02 -0.24804121028E+02 -0.27024874592E+02  0.41301295277E+02  0.47000000000E+01 0.  1.
         13    1    4    4    0    0 -0.10834887459E+03  0.60892807404E+02 -0.25997596251E+03  0.28815779306E+03  0.00000000000E+00 0. -1.
        -14    1    4    4    0    0 -0.73309888119E+02 -0.20254943676E+02 -0.11214120053E+03  0.13550000478E+03  0.00000000000E+00 0.  1.
</event>
<event>
12    1  0.8461994E-002  0.1739074E+03  0.7818608E-02  0.1173887E+00
         21   -1    0    0  503  502  0.00000000000E+00  0.00000000000E+00  0.13597782820E+03  0.13597782820E+03  0.00000000000E+00 0.  1.
         21   -1    0    0  501  503 -0.00000000000E+00 -0.00000000000E+00 -0.33012977472E+03  0.33012977472E+03  0.00000000000E+00 0.  1.
          6    2    1    2  501    0 -0.20325044230E+02 -0.14331631932E+02 -0.23032505905E+03  0.28847797631E+03  0.17190522648E+03 0.  0.
         24    2    3    3    0    0 -0.72391251357E+02 -0.20373848181E+02 -0.99568382504E+02  0.14752835139E+03  0.78709368616E+02 0.  0.
         -6    2    1    2    0  502  0.20325044230E+02  0.14331631932E+02  0.36173112536E+02  0.17762962662E+03  0.17211997875E+03 0.  0.
        -24    2    5    5    0    0  0.14361208571E+02 -0.47775737914E+02 -0.17322308528E+02  0.95308652376E+02  0.79340477690E+02 0.  0.
          5    1    3    3  501    0  0.52066207127E+02  0.60422162493E+01 -0.13075667655E+03  0.14094962491E+03  0.47000000000E+01 0. -1.
        -13    1    4    4    0    0 -0.37673856924E+02 -0.20429960456E+02 -0.10404276108E+03  0.11252377043E+03  0.00000000000E+00 0.  1.
         14    1    4    4    0    0 -0.34717394432E+02  0.56112274320E-01  0.44743785722E+01  0.35004580962E+02  0.00000000000E+00 0. -1.
         -5    1    5    5    0  502  0.59638356594E+01  0.62107369846E+02  0.53495421063E+02  0.82320974239E+02  0.47000000000E+01 0.  1.
         11    1    6    6    0    0 -0.12955894992E+02  0.10870890706E+02  0.15341467716E+02  0.22834012163E+02  0.00000000000E+00 0. -1.
        -12    1    6    6    0    0  0.27317103563E+02 -0.58646628620E+02 -0.32663776243E+02  0.72474640213E+02  0.00000000000E+00 0.  1.
</event>
<event>
12    1  0.8461994E-002  0.1832915E+03  0.7818608E-02  0.1164706E+00
         21   -1    0    0  503  502  0.00000000000E+00  0.00000000000E+00  0.74223346678E+03  0.74223346678E+03  0.00000000000E+00 0.  1.
         21   -1    0    0  501  503 -0.00000000000E+00 -0.00000000000E+00 -0.24201739217E+03  0.24201739217E+03  0.00000000000E+00 0.  1.
          6    2    1    2  501    0 -0.65021547676E+02 -0.52051095168E+01 -0.19365009581E+03  0.26663856308E+03  0.17129176538E+03 0.  0.
         24    2    3    3    0    0 -0.61013636267E+02  0.63124118584E+01 -0.21290560173E+03  0.24336666671E+03  0.10067784693E+03 0.  0.
         -6    2    1    2    0  502  0.65021547676E+02  0.52051095168E+01  0.69386617043E+03  0.71761229587E+03  0.17106212292E+03 0.  0.
        -24    2    5    5    0    0 -0.27707828530E+02  0.13945351997E+02  0.29280732638E+03  0.30585336708E+03  0.82752372592E+02 0.  0.
          5    1    3    3  501    0 -0.40079114092E+01 -0.11517521375E+02  0.19255505919E+02  0.23271896371E+02  0.47000000000E+01 0. -1.
        -13    1    4    4    0    0  0.22814567527E+02  0.23025252879E+02 -0.58406812263E+02  0.66798371839E+02  0.00000000000E+00 0.  1.
         14    1    4    4    0    0 -0.83828203793E+02 -0.16712841021E+02 -0.15449878947E+03  0.17656829487E+03  0.00000000000E+00 0. -1.
         -5    1    5    5    0  502  0.92729376206E+02 -0.87402424806E+01  0.40105884405E+03  0.41175892879E+03  0.47000000000E+01 0.  1.
         13    1    6    6    0    0 -0.39032531057E+02 -0.85230458267E+01  0.26639699362E+03  0.26937620348E+03  0.00000000000E+00 0. -1.
        -14    1    6    6    0    0  0.11324702527E+02  0.22468397824E+02  0.26410332763E+02  0.36477163607E+02  0.00000000000E+00 0.  1.
</event>
<event>
12    1  0.8461994E-002  0.1783396E+03  0.7818608E-02  0.1169641E+00
         21   -1    0    0  503  502  0.00000000000E+00  0.00000000000E+00  0.99135260095E+02  0.99135260095E+02  0.00000000000E+00 0.  1.
         21   -1    0    0  501  503 -0.00000000000E+00 -0.00000000000E+00 -0.13061577329E+04  0.13061577329E+04  0.00000000000E+00 0.  1.
          6    2    1    2  501    0  0.39006394309E+02  0.15041767216E+02 -0.12139207714E+04  0.12268200482E+04  0.17244140406E+03 0.  0.
         24    2    3    3    0    0  0.44022484602E+02 -0.50324622380E+02 -0.55625423292E+03  0.56587731853E+03  0.79547603444E+02 0.  0.
         -6    2    1    2    0  502 -0.39006394309E+02 -0.15041767216E+02  0.68982986517E+01  0.17847294475E+03  0.17337027406E+03 0.  0.
        -24    2    5    5    0    0 -0.88880759244E+02 -0.14430128791E+02  0.28852059326E+02  0.12377482790E+03  0.79873329183E+02 0.  0.
          5    1    3    3  501    0 -0.50160902922E+01  0.65366389596E+02 -0.65766653849E+03  0.66094272967E+03  0.47000000000E+01 0. -1.
        -13    1    4    4    0    0  0.17952420742E+02 -0.75472060211E+01 -0.42409965999E+03  0.42454654790E+03  0.00000000000E+00 0.  1.
         14    1    4    4    0    0  0.26070063859E+02 -0.42777416359E+02 -0.13215457293E+03  0.14133077062E+03  0.00000000000E+00 0. -1.
         -5    1    5    5    0  502  0.49874364934E+02 -0.61163842520E+00 -0.21953760674E+02  0.54698116850E+02  0.47000000000E+01 0.  1.
         13    1    6    6    0    0 -0.32753210416E+02  0.32966082845E+02  0.60969317392E+01  0.46869051487E+02  0.00000000000E+00 0. -1.
        -14    1    6    6    0    0 -0.56127548828E+02 -0.47396211636E+02  0.22755127586E+02  0.76905776417E+02  0.00000000000E+00 0.  1.
</event>
<event>
12    1  0.8461994E-002  0.4954605E+03  0.7818608E-02  0.1015002E+00
         21   -1    0    0  503  502  0.00000000000E+00  0.00000000000E+00  0.14617194011E+04  0.14617194011E+04  0.00000000000E+00 0.  1.
         21   -1    0    0  501  503 -0.00000000000E+00 -0.00000000000E+00 -0.16921536073E+03  0.16921536073E+03  0.00000000000E+00 0.  1.
          6    2    1    2  501    0  0.29576566053E+03  0.35769085589E+03  0.57083610021E+03  0.75555727134E+03  0.17202576153E+03 0.  0.
         24    2    3    3    0    0  0.23256098992E+03  0.28125986634E+03  0.34344371664E+03  0.50743247883E+03  0.79639234208E+02 0.  0.
         -6    2    1    2    0  502 -0.29576566053E+03 -0.35769085589E+03  0.72166794014E+03  0.87537749048E+03  0.17338125818E+03 0.  0.
        -24    2    5    5    0    0 -0.95498783538E+02 -0.18994997317E+03  0.25749113461E+03  0.34271810349E+03  0.77155713310E+02 0.  0.
          5    1    3    3  501    0  0.63204670606E+02  0.76430989548E+02  0.22739238357E+03  0.24812479250E+03  0.47000000000E+01 0. -1.
        -13    1    4    4    0    0  0.12386050498E+03  0.20606713877E+03  0.23860197340E+03  0.33872701706E+03  0.00000000000E+00 0.  1.
         14    1    4    4    0    0  0.10870048494E+03  0.75192727569E+02  0.10484174324E+03  0.16870546177E+03  0.00000000000E+00 0. -1.
         -5    1    5    5    0  502 -0.20026687699E+03 -0.16774088271E+03  0.46417680553E+03  0.53265938699E+03  0.47000000000E+01 0.  1.
         13    1    6    6    0    0 -0.69327431253E+01 -0.32857145121E+01  0.47542564993E+02  0.48157598915E+02  0.00000000000E+00 0. -1.
        -14    1    6    6    0    0 -0.88566040412E+02 -0.18666425866E+03  0.20994856961E+03  0.29456050458E+03  0.00000000000E+00 0.  1.
</event>
<event>
12    1  0.8461994E-002  0.1883995E+03  0.7818608E-02  0.1160325E+00
         21   -1    0    0  501  502  0.00000000000E+00  0.00000000000E+00  0.17560928431E+04  0.17560928431E+04  0.00000000000E+00 0.  1.
         21   -1    0    0  502  503 -0.00000000000E+00 -0.00000000000E+00 -0.38911762923E+02  0.38911762923E+02  0.00000000000E+00 0.  1.
         -6    2    1    2    0  503  0.67676368618E+02 -0.19572908714E+02  0.23111063836E+03  0.29703941245E+03  0.17279205931E+03 0.  0.
        -24    2    3    3    0    0  0.44736236935E+01 -0.60575731117E+02  0.80723129249E+02  0.12877084346E+03  0.79851574946E+02 0.  0.
          6    2    1    2  501    0 -0.67676368618E+02  0.19572908714E+02  0.14860704418E+04  0.14979651936E+04  0.17473171865E+03 0.  0.
         24    2    5    5    0    0  0.13405109599E+02  0.23197721903E+02  0.11105810540E+04  0.11137755064E+04  0.79923525058E+02 0.  0.
          5    1    5    5  501    0 -0.81081478217E+02 -0.36248131896E+01  0.37548938782E+03  0.38418968720E+03  0.47000000000E+01 0. -1.
        -13    1    6    6    0    0  0.24074288362E+02  0.43609472725E+02  0.44204434839E+03  0.44484217810E+03  0.00000000000E+00 0.  1.
         14    1    6    6    0    0 -0.10669178763E+02 -0.20411750821E+02  0.66853670562E+03  0.66893332830E+03  0.00000000000E+00 0. -1.
         -5    1    3    3    0  503  0.63202744925E+02  0.41002822403E+02  0.15038750911E+03  0.16826856899E+03  0.47000000000E+01 0.  1.
         11    1    4    4    0    0 -0.30244781306E+02 -0.14461712248E+02  0.57485161876E+02  0.66546463117E+02  0.00000000000E+00 0. -1.
        -12    1    4    4    0    0  0.34718405000E+02 -0.46114018869E+02  0.23237967373E+02  0.62224380347E+02  0.00000000000E+00 0.  1.
</event>
<event>
12    1  0.8461994E-002  0.1739258E+03  0.7818608E-02  0.1174460E+00
         21   -1    0    0  503  502  0.00000000000E+00  0.00000000000E+00  0.17015500250E+03  0.17015500250E+03  0.00000000000E+00 0. -1.
         21   -1    0    0  501  503 -0.00000000000E+00 -0.00000000000E+00 -0.21099356539E+03  0.21099356539E+03  0.00000000000E+00 0. -1.
          6    2    1    2  501    0  0.24007390676E+02 -0.22952244671E+02 -0.98782619974E+02  0.19782450300E+03  0.16814686329E+03 0.  0.
         24    2    3    3    0    0 -0.30429961800E+02 -0.10137744637E+02 -0.24105470164E+01  0.86301845204E+02  0.80083964108E+02 0.  0.
         -6    2    1    2    0  502 -0.24007390676E+02  0.22952244671E+02  0.57944057085E+02  0.18332406488E+03  0.17072503821E+03 0.  0.
        -24    2    5    5    0    0  0.46692774807E+02  0.38864038756E+02  0.46765930964E+02  0.10984795248E+03  0.78669508941E+02 0.  0.
          5    1    3    3  501    0  0.54437352476E+02 -0.12814500034E+02 -0.96372072957E+02  0.11152265780E+03  0.47000000000E+01 0. -1.
        -13    1    4    4    0    0  0.17686788289E+02  0.21518820942E+02  0.47676577604E+01  0.28259736291E+02  0.00000000000E+00 0.  1.
         14    1    4    4    0    0 -0.48116750088E+02 -0.31656565579E+02 -0.71782047768E+01  0.58042108913E+02  0.00000000000E+00 0. -1.
         -5    1    5    5    0  502 -0.70700165483E+02 -0.15911794085E+02  0.11178126121E+02  0.73476112404E+02  0.47000000000E+01 0.  1.
         13    1    6    6    0    0  0.37806076733E+02  0.34643067347E+02  0.68747526362E+02  0.85765167370E+02  0.00000000000E+00 0. -1.
        -14    1    6    6    0    0  0.88866980740E+01  0.42209714082E+01 -0.21981595398E+02  0.24082785107E+02  0.00000000000E+00 0.  1.
</event>
<event>
12    1  0.8461994E-002  0.1979755E+03  0.7818608E-02  0.1151698E+00
         21   -1    0    0  501  502  0.00000000000E+00  0.00000000000E+00  0.29912807295E+03  0.29912807295E+03  0.00000000000E+00 0. -1.
         21   -1    0    0  502  503 -0.00000000000E+00 -0.00000000000E+00 -0.25569445580E+03  0.25569445580E+03  0.00000000000E+00 0. -1.
         -6    2    1    2    0  503  0.68643938614E+02  0.69481977860E+02 -0.17252899570E+03  0.26260342599E+03  0.17220502149E+03 0.  0.
        -24    2    3    3    0    0  0.51485702833E+01  0.81181048704E+02 -0.56787229332E+02  0.12998828152E+03  0.83995794380E+02 0.  0.
          6    2    1    2  501    0 -0.68643938614E+02 -0.69481977860E+02  0.21596261286E+03  0.29221910276E+03  0.17091640739E+03 0.  0.
         24    2    5    5    0    0  0.26831613502E+02 -0.27707900882E+02  0.11299031981E+03  0.14563793858E+03  0.83402239347E+02 0.  0.
          5    1    5    5  501    0 -0.95475552116E+02 -0.41774076978E+02  0.10297229304E+03  0.14658116419E+03  0.47000000000E+01 0. -1.
        -13    1    6    6    0    0  0.13595765489E+02 -0.57271425440E+02  0.80840416860E+02  0.10000017005E+03  0.00000000000E+00 0.  1.
         14    1    6    6    0    0  0.13235848013E+02  0.29563524558E+02  0.32149902950E+02  0.45637768532E+02  0.00000000000E+00 0. -1.
         -5    1    3    3    0  503  0.63495368330E+02 -0.11699070844E+02 -0.11574176637E+03  0.13261514446E+03  0.47000000000E+01 0.  1.
         11    1    4    4    0    0 -0.15705693483E+02  0.86465227443E+01 -0.51269640919E+02  0.54313969136E+02  0.00000000000E+00 0. -1.
        -12    1    4    4    0    0  0.20854263766E+02  0.72534525960E+02 -0.55175884132E+01  0.75674312388E+02  0.00000000000E+00 0.  1.
</event>
<event>
12    1  0.8461994E-002  0.2430901E+03  0.7818608E-02  0.1117879E+00
         21   -1    0    0  503  502  0.00000000000E+00  0.00000000000E+00  0.22317397944E+04  0.22317397944E+04  0.00000000000E+00 0.  1.
         21   -1    0    0  501  503 -0.00000000000E+00 -0.00000000000E+00 -0.28213276890E+02  0.28213276890E+02  0.00000000000E+00 0. -1.
          6    2    1    2  501    0 -0.48030429559E+02 -0.16394060200E+03  0.81315869026E+03  0.84849443518E+03  0.17184966636E+03 0.  0.
         24    2    3    3    0    0 -0.98222704197E+02 -0.13440354042E+03  0.60635292708E+03  0.63359349026E+03  0.77877001906E+02 0.  0.
         -6    2    1    2    0  502  0.48030429559E+02  0.16394060200E+03  0.13903678272E+04  0.14114586361E+04  0.17294317929E+03 0.  0.
        -24    2    5    5    0    0 -0.38464561154E+02  0.77808828644E+02  0.56841819939E+03  0.58048129193E+03  0.79533292464E+02 0.  0.
          5    1    3    3  501    0  0.50192274638E+02 -0.29537061577E+02  0.20680576319E+03  0.21490094492E+03  0.47000000000E+01 0. -1.
        -13    1    4    4    0    0 -0.21564916808E+02 -0.86817747434E+02  0.36849373094E+03  0.37919651455E+03  0.00000000000E+00 0.  1.
         14    1    4    4    0    0 -0.76657787390E+02 -0.47585792988E+02  0.23785919613E+03  0.25439697570E+03  0.00000000000E+00 0. -1.
         -5    1    5    5    0  502  0.86494990713E+02  0.86131773356E+02  0.82194962782E+03  0.83097734414E+03  0.47000000000E+01 0.  1.
         11    1    6    6    0    0 -0.38149868966E+02  0.85775350000E+02  0.36409650010E+03  0.37600410178E+03  0.00000000000E+00 0. -1.
        -12    1    6    6    0    0 -0.31469218825E+00 -0.79665213560E+01  0.20432169928E+03  0.20447719015E+03  0.00000000000E+00 0.  1.
</event>
<event>
12    1  0.8461994E-002  0.3320397E+03  0.7818608E-02  0.1070267E+00
         21   -1    0    0  501  502  0.00000000000E+00  0.00000000000E+00  0.22609183874E+04  0.22609183874E+04  0.00000000000E+00 0.  1.
         21   -1    0    0  502  503 -0.00000000000E+00 -0.00000000000E+00 -0.50069428965E+02  0.50069428965E+02  0.00000000000E+00 0.  1.
         -6    2    1    2    0  503 -0.22589253327E+03 -0.17281167781E+03  0.12951732387E+04  0.13370580012E+04  0.17134487993E+03 0.  0.
        -24    2    3    3    0    0 -0.13599345309E+03 -0.41817111177E+02  0.49562527753E+03  0.52186449458E+03  0.80344538727E+02 0.  0.
          6    2    1    2  501    0  0.22589253327E+03  0.17281167781E+03  0.91567571979E+03  0.97392981517E+03  0.17083895484E+03 0.  0.
         24    2    5    5    0    0  0.91733299184E+02  0.38318644115E+02  0.51418863342E+03  0.52974399063E+03  0.79720939547E+02 0.  0.
          5    1    5    5  501    0  0.13415923409E+03  0.13449303370E+03  0.40148708637E+03  0.44418582454E+03  0.47000000000E+01 0. -1.
        -13    1    6    6    0    0  0.80277850896E+02  0.59877803456E+02  0.45139468592E+03  0.46237111412E+03  0.00000000000E+00 0.  1.
         14    1    6    6    0    0  0.11455448287E+02 -0.21559159341E+02  0.62793947497E+02  0.67372876510E+02  0.00000000000E+00 0. -1.
         -5    1    3    3    0  503 -0.89899080181E+02 -0.13099456663E+03  0.79954796115E+03  0.81519350665E+03  0.47000000000E+01 0.  1.
         11    1    4    4    0    0 -0.10700513077E+03  0.25805018325E+01  0.37756752944E+03  0.39244616993E+03  0.00000000000E+00 0. -1.
        -12    1    4    4    0    0 -0.28988322316E+02 -0.44397613009E+02  0.11805774809E+03  0.12941832465E+03  0.00000000000E+00 0.  1.
</event>
<event>
12    1  0.8461994E-002  0.2124442E+03  0.7818608E-02  0.1139668E+00
         21   -1    0    0  501  502  0.00000000000E+00  0.00000000000E+00  0.14038681949E+03  0.14038681949E+03  0.00000000000E+00 0. -1.
         21   -1    0    0  502  503 -0.00000000000E+00 -0.00000000000E+00 -0.39962170214E+03  0.39962170214E+03  0.00000000000E+00 0.  1.
         -6    2    1    2    0  503 -0.19220505347E+02  0.12286895345E+03 -0.24917069789E+03  0.32744250755E+03  0.17223922757E+03 0.  0.
        -24    2    3    3    0    0  0.58187178820E+01  0.12364263801E+02 -0.42112530652E+02  0.91363233246E+02  0.79918975557E+02 0.  0.
          6    2    1    2  501    0  0.19220505347E+02 -0.12286895345E+03 -0.10064184759E+02  0.21256601409E+03  0.17209536595E+03 0.  0.
         24    2    5    5    0    0 -0.32552858625E+02 -0.12236180313E+02  0.15813980671E+02  0.87618580516E+02  0.78851258415E+02 0.  0.
          5    1    5    5  501    0  0.51773363972E+02 -0.11063277314E+03 -0.25878165430E+02  0.12494743357E+03  0.47000000000E+01 0. -1.
        -13    1    6    6    0    0 -0.49724470302E+02  0.55667801815E+01 -0.10903472347E+02  0.51209351662E+02  0.00000000000E+00 0.  1.
         14    1    6    6    0    0  0.17171611678E+02 -0.17802960495E+02  0.26717453018E+02  0.36409228854E+02  0.00000000000E+00 0. -1.
         -5    1    3    3    0  503 -0.25039223229E+02  0.11050468965E+03 -0.20705816724E+03  0.23607927430E+03  0.47000000000E+01 0.  1.
         13    1    4    4    0    0  0.17864059669E+02 -0.28049354463E+02 -0.35559826947E+02  0.48686673804E+02  0.00000000000E+00 0. -1.
        -14    1    4    4    0    0 -0.12045341787E+02  0.40413618264E+02 -0.65527037057E+01  0.42676559442E+02  0.00000000000E+00 0.  1.
</event>
<event>
12    1  0.8461994E-002  0.3440555E+03  0.7818608E-02  0.1065095E+00
         21   -1    0    0  501  502  0.00000000000E+00  0.00000000000E+00  0.21858076365E+03  0.21858076365E+03  0.00000000000E+00 0.  1.
         21   -1    0    0  502  503 -0.00000000000E+00 -0.00000000000E+00 -0.61677739702E+03  0.61677739702E+03  0.00000000000E+00 0. -1.
         -6    2    1    2    0  503 -0.20114276420E+03 -0.21956633093E+03 -0.53073416826E+02  0.34812494735E+03  0.17235546445E+03 0.  0.
        -24    2    3    3    0    0 -0.36972003875E+02 -0.12550111803E+03 -0.81772130244E+01  0.15360486628E+03  0.80063277691E+02 0.  0.
          6    2    1    2  501    0  0.20114276420E+03  0.21956633093E+03 -0.34512321654E+03  0.48723321333E+03  0.17209992535E+03 0.  0.
         24    2    5    5    0    0  0.13359055072E+03  0.22732037889E+03 -0.28089637537E+03  0.39358171077E+03  0.80515833542E+02 0.  0.
          5    1    5    5  501    0  0.67552213477E+02 -0.77540479587E+01 -0.64226841171E+02  0.93651502563E+02  0.47000000000E+01 0. -1.
        -13    1    6    6    0    0  0.12294230482E+02  0.22685104244E+02 -0.41318382253E+00  0.25805673380E+02  0.00000000000E+00 0.  1.
         14    1    6    6    0    0  0.12129632024E+03  0.20463527465E+03 -0.28048319155E+03  0.36777603739E+03  0.00000000000E+00 0. -1.
         -5    1    3    3    0  503 -0.16417076032E+03 -0.94065212901E+02 -0.44896203801E+02  0.19452008107E+03  0.47000000000E+01 0.  1.
         13    1    4    4    0    0 -0.15595683231E+02  0.81162993104E+01  0.29685772102E+01  0.17830089752E+02  0.00000000000E+00 0. -1.
        -14    1    4    4    0    0 -0.21376320645E+02 -0.13361741734E+03 -0.11145790235E+02  0.13577477653E+03  0.00000000000E+00 0.  1.
</event>
<event>
12    1  0.8461994E-002  0.1723546E+03  0.7818608E-02  0.1177691E+00
         21   -1    0    0  503  502  0.00000000000E+00  0.00000000000E+00  0.47044763034E+03  0.47044763034E+03  0.00000000000E+00 0. -1.
         21   -1    0    0  501  503 -0.00000000000E+00 -0.00000000000E+00 -0.23734927429E+03  0.23734927429E+03  0.00000000000E+00 0. -1.
          6    2    1    2  501    0  0.79201093239E+01  0.16535399742E+02 -0.19008361890E+03  0.25086244888E+03  0.16267771361E+03 0.  0.
         24    2    3    3    0    0 -0.25500774524E+02 -0.33367540425E+02 -0.70276560544E+02  0.11676144162E+03  0.83251168355E+02 0.  0.
         -6    2    1    2    0  502 -0.79201093239E+01 -0.16535399742E+02  0.42318197496E+03  0.45693445576E+03  0.17137667682E+03 0.  0.
        -24    2    5    5    0    0  0.12338519501E+02 -0.75081396674E+02  0.26446889740E+03  0.28649391837E+03  0.79658724448E+02 0.  0.
          5    1    3    3  501    0  0.33420883848E+02  0.49902940167E+02 -0.11980705836E+03  0.13410100726E+03  0.47000000000E+01 0. -1.
        -11    1    4    4    0    0 -0.24908994480E+02 -0.16703692056E+02  0.12375520468E+02  0.32444180390E+02  0.00000000000E+00 0.  1.
         12    1    4    4    0    0 -0.59178004418E+00 -0.16663848368E+02 -0.82652081013E+02  0.84317261233E+02  0.00000000000E+00 0. -1.
         -5    1    5    5    0  502 -0.20258628825E+02  0.58545996932E+02  0.15871307755E+03  0.17044053739E+03  0.47000000000E+01 0.  1.
         13    1    6    6    0    0 -0.11580933515E+02 -0.49689207989E+02  0.58636006716E+02  0.77725907491E+02  0.00000000000E+00 0. -1.
        -14    1    6    6    0    0  0.23919453016E+02 -0.25392188685E+02  0.20583289069E+03  0.20876801088E+03  0.00000000000E+00 0.  1.
</event>
<event>
12    1  0.8461994E-002  0.1750973E+03  0.7818608E-02  0.1172836E+00
         21   -1    0    0  503  502  0.00000000000E+00  0.00000000000E+00  0.22581836338E+03  0.22581836338E+03  0.00000000000E+00 0. -1.
         21   -1    0    0  501  503 -0.00000000000E+00 -0.00000000000E+00 -0.44890267178E+03  0.44890267178E+03  0.00000000000E+00 0. -1.
          6    2    1    2  501    0 -0.27504742228E+02  0.16003770990E+02 -0.39350744284E+03  0.43037882265E+03  0.17136274942E+03 0.  0.
         24    2    3    3    0    0  0.15154201317E+02  0.22790715847E+02 -0.88319288636E+02  0.12211311332E+03  0.79763708250E+02 0.  0.
         -6    2    1    2    0  502  0.27504742228E+02 -0.16003770990E+02  0.17042313444E+03  0.24434221250E+03  0.17218141748E+03 0.  0.
        -24    2    5    5    0    0 -0.26605367840E+02  0.17852428532E+01  0.16829156716E+03  0.18714967274E+03  0.77407465651E+02 0.  0.
          5    1    3    3  501    0 -0.42658943545E+02 -0.67869448571E+01 -0.30518815420E+03  0.30826570933E+03  0.47000000000E+01 0. -1.
        -13    1    4    4    0    0  0.46274571365E+02  0.21788909659E+02 -0.41403786127E+02  0.65805516826E+02  0.00000000000E+00 0.  1.
         14    1    4    4    0    0 -0.31120370047E+02  0.10018061883E+01 -0.46915502509E+02  0.56307596496E+02  0.00000000000E+00 0. -1.
         -5    1    5    5    0  502  0.54110110068E+02 -0.17789013843E+02  0.21315672738E+01  0.57192539759E+02  0.47000000000E+01 0.  1.
         11    1    6    6    0    0 -0.30122787799E+02  0.29069150315E+02  0.47717759533E+02  0.63477416612E+02  0.00000000000E+00 0. -1.
        -12    1    6    6    0    0  0.35174199590E+01 -0.27283907461E+02  0.12057380763E+03  0.12367225613E+03  0.00000000000E+00 0.  1.
</event>
<event>
12    1  0.8461994E-002  0.2312441E+03  0.7818608E-02  0.1126053E+00
         21   -1    0    0  503  502  0.00000000000E+00  0.00000000000E+00  0.10233921916E+04  0.10233921916E+04  0.00000000000E+00 0.  1.
         21   -1    0    0  501  503 -0.00000000000E+00 -0.00000000000E+00 -0.71894275150E+02  0.71894275150E+02  0.00000000000E+00 0.  1.
          6    2    1    2  501    0 -0.94709828159E+02 -0.11850314480E+03  0.18561670961E+03  0.29525654887E+03  0.17236565750E+03 0.  0.
         24    2    3    3    0    0 -0.78801280579E+02 -0.92836325476E+02  0.21029179076E+03  0.25597783797E+03  0.80459872735E+02 0.  0.
         -6    2    1    2    0  502  0.94709828159E+02  0.11850314480E+03  0.76588120688E+03  0.80002991792E+03  0.17453051206E+03 0.  0.
        -24    2    5    5    0    0  0.48042076811E+02  0.13201948908E+03  0.69704481558E+03  0.71564325223E+03  0.80849260359E+02 0.  0.
          5    1    3    3  501    0 -0.15908547580E+02 -0.25666819323E+02 -0.24675081151E+02  0.39278710901E+02  0.47000000000E+01 0. -1.
        -11    1    4    4    0    0 -0.10972130616E+02  0.13996556204E+00 -0.48424127747E+01  0.11994006924E+02  0.00000000000E+00 0.  1.
         12    1    4    4    0    0 -0.67829149963E+02 -0.92976291038E+02  0.21513420354E+03  0.24398383104E+03  0.00000000000E+00 0. -1.
         -5    1    5    5    0  502  0.46667751348E+02 -0.13516344282E+02  0.68836391303E+02  0.84386665689E+02  0.47000000000E+01 0.  1.
         13    1    6    6    0    0  0.14261904250E+02  0.16333197109E+02  0.25968249320E+02  0.33830832290E+02  0.00000000000E+00 0. -1.
        -14    1    6    6    0    0  0.33780172561E+02  0.11568629197E+03  0.67107656626E+03  0.68181241994E+03  0.00000000000E+00 0.  1.
</event>
<event>
12    1  0.8461994E-002  0.2346159E+03  0.7818608E-02  0.1124679E+00
         21   -1    0    0  501  502  0.00000000000E+00  0.00000000000E+00  0.53372353584E+02  0.53372353584E+02  0.00000000000E+00 0. -1.
         21   -1    0    0  502  503 -0.00000000000E+00 -0.00000000000E+00 -0.13142831793E+04  0.13142831793E+04  0.00000000000E+00 0. -1.
         -6    2    1    2    0  503 -0.22125643317E+02 -0.14697809513E+03 -0.95732038388E+03  0.98397366548E+03  0.17219103467E+03 0.  0.
        -24    2    3    3    0    0 -0.58771704731E+02 -0.11061639151E+03 -0.86846099861E+03  0.88109904441E+03  0.80130647201E+02 0.  0.
          6    2    1    2  501    0  0.22125643317E+02  0.14697809513E+03 -0.30359044179E+03  0.38368186737E+03  0.18152827453E+03 0.  0.
         24    2    5    5    0    0  0.47544624451E+02  0.10229941733E+03 -0.98856803963E+02  0.17254148442E+03  0.85277394746E+02 0.  0.
          5    1    5    5  501    0 -0.25418981134E+02  0.44678677803E+02 -0.20473363783E+03  0.21114038295E+03  0.47000000000E+01 0. -1.
        -13    1    6    6    0    0 -0.13644496602E+02  0.18143724127E+01 -0.37305355035E+02  0.39763724034E+02  0.00000000000E+00 0.  1.
         14    1    6    6    0    0  0.61189121053E+02  0.10048504492E+03 -0.61551448928E+02  0.13277776038E+03  0.00000000000E+00 0. -1.
         -5    1    3    3    0  503  0.36646061414E+02 -0.36361703626E+02 -0.88859385273E+02  0.10287462106E+03  0.47000000000E+01 0.  1.
         11    1    4    4    0    0 -0.46437669110E+02 -0.11786158874E+03 -0.65365596876E+03  0.66581824600E+03  0.00000000000E+00 0. -1.
        -12    1    4    4    0    0 -0.12334035621E+02  0.72451972389E+01 -0.21480502984E+03  0.21528079841E+03  0.00000000000E+00 0.  1.
</event>
<event>
12    1  0.8461994E-002  0.2052395E+03  0.7818608E-02  0.1145652E+00
         21   -1    0    0  503  502  0.00000000000E+00  0.00000000000E+00  0.14900531416E+03  0.14900531416E+03  0.00000000000E+00 0. -1.
         21   -1    0    0  501  503 -0.00000000000E+00 -0.00000000000E+00 -0.28612323382E+03  0.28612323382E+03  0.00000000000E+00 0. -1.
          6    2    1    2  501    0  0.88083206015E+02  0.66245775573E+02 -0.39521844072E+02  0.20901012196E+03  0.17313607643E+03 0.  0.
         24    2    3    3    0    0  0.20105471579E+01  0.71763509355E+02  0.10269386440E+02  0.10930954711E+03  0.81786754536E+02 0.  0.
         -6    2    1    2    0  502 -0.88083206015E+02 -0.66245775573E+02 -0.97596075586E+02  0.22611842602E+03  0.17163156660E+03 0.  0.
        -24    2    5    5    0    0 -0.10301436389E+03 -0.61907734430E+02 -0.12691793763E+03  0.19259798941E+03  0.80878278195E+02 0.  0.
          5    1    3    3  501    0  0.86072658857E+02 -0.55177337823E+01 -0.49791230512E+02  0.99700574846E+02  0.47000000000E+01 0. -1.
        -11    1    4    4    0    0 -0.56607444969E+01  0.68577646294E+01  0.37475199670E+02  0.38515757220E+02  0.00000000000E+00 0.  1.
         12    1    4    4    0    0  0.76712916548E+01  0.64905744725E+02 -0.27205813229E+02  0.70793789894E+02  0.00000000000E+00 0. -1.
         -5    1    5    5    0  502  0.14931157877E+02 -0.43380411422E+01  0.29321862045E+02  0.33520436607E+02  0.47000000000E+01 0.  1.
         11    1    6    6    0    0 -0.45694715233E+02 -0.60961396596E+02 -0.10812289725E+03  0.13226813594E+03  0.00000000000E+00 0. -1.
        -12    1    6    6    0    0 -0.57319648659E+02 -0.94633783467E+00 -0.18795040385E+02  0.60329853478E+02  0.00000000000E+00 0.  1.
</event>
<event>
12    1  0.8461994E-002  0.1771379E+03  0.7818608E-02  0.1170625E+00
         21   -1    0    0  501  502  0.00000000000E+00  0.00000000000E+00  0.18495474914E+03  0.18495474914E+03  0.00000000000E+00 0.  1.
         21   -1    0    0  502  503 -0.00000000000E+00 -0.00000000000E+00 -0.17370798803E+03  0.17370798803E+03  0.00000000000E+00 0.  1.
         -6    2    1    2    0  503 -0.28238970269E+02  0.33141939054E+02 -0.22073738907E+02  0.17850794913E+03  0.17170326260E+03 0.  0.
        -24    2    3    3    0    0 -0.10284285612E+02  0.84218085309E+02  0.40307764493E+01  0.11821964895E+03  0.82226430147E+02 0.  0.
          6    2    1    2  501    0  0.28238970269E+02 -0.33141939054E+02  0.33320500020E+02  0.18015478804E+03  0.17160904511E+03 0.  0.
         24    2    5    5    0    0 -0.48515348594E+02  0.81698417806E+01  0.30772526080E+02  0.92825120277E+02  0.72450460518E+02 0.  0.
          5    1    5    5  501    0  0.76754318862E+02 -0.41311780835E+02  0.25479739394E+01  0.87329667760E+02  0.47000000000E+01 0. -1.
        -11    1    6    6    0    0 -0.60218509823E+01 -0.22510874170E+02  0.32962619067E+02  0.40367516655E+02  0.00000000000E+00 0.  1.
         12    1    6    6    0    0 -0.42493497612E+02  0.30680715951E+02 -0.21900929867E+01  0.52457603622E+02  0.00000000000E+00 0. -1.
         -5    1    3    3    0  503 -0.17954684656E+02 -0.51076146254E+02 -0.26104515356E+02  0.60288300186E+02  0.47000000000E+01 0.  1.
         11    1    4    4    0    0 -0.48963133301E+01  0.16728726742E+00  0.29754863381E+02  0.30155493099E+02  0.00000000000E+00 0. -1.
        -12    1    4    4    0    0 -0.53879722821E+01  0.84050798041E+02 -0.25724086931E+02  0.88064155847E+02  0.00000000000E+00 0.  1.
</event>
<event>
12    1  0.8461994E-002  0.2113111E+03  0.7818608E-02  0.1141260E+00
         21   -1    0    0  503  502  0.00000000000E+00  0.00000000000E+00  0.10413340622E+03  0.10413340622E+03  0.00000000000E+00 0.  1.
         21   -1    0    0  501  503 -0.00000000000E+00 -0.00000000000E+00 -0.90778736726E+03  0.90778736726E+03  0.00000000000E+00 0.  1.
          6    2    1    2  501    0 -0.77658324961E+02  0.86446311641E+02 -0.77381344068E+03  0.80214689531E+03  0.17648971766E+03 0.  0.
         24    2    3    3    0    0 -0.67331968277E+02  0.11151871684E+03 -0.75130330928E+03  0.76659334189E+03  0.78985258974E+02 0.  0.
         -6    2    1    2    0  502  0.77658324961E+02 -0.86446311641E+02 -0.29840520358E+02  0.20977387817E+03  0.17207801451E+03 0.  0.
        -24    2    5    5    0    0  0.46014345912E+02 -0.13686927231E+02 -0.72037237525E+02  0.11978542131E+03  0.82792098416E+02 0.  0.
          5    1    3    3  501    0 -0.10326356685E+02 -0.25072405200E+02 -0.22510131396E+02  0.35553553414E+02  0.47000000000E+01 0. -1.
        -13    1    4    4    0    0 -0.29380929539E+02  0.45770014653E+02 -0.52683735893E+03  0.52963736276E+03  0.00000000000E+00 0.  1.
         14    1    4    4    0    0 -0.37951038738E+02  0.65748702188E+02 -0.22446595035E+03  0.23695597914E+03  0.00000000000E+00 0. -1.
         -5    1    5    5    0  502  0.31643979049E+02 -0.72759384409E+02  0.42196717167E+02  0.89988456867E+02  0.47000000000E+01 0.  1.
         13    1    6    6    0    0  0.65636999419E+02 -0.11526706042E+02 -0.74424516744E+02  0.99900397084E+02  0.00000000000E+00 0. -1.
        -14    1    6    6    0    0 -0.19622653506E+02 -0.21602211890E+01  0.23872792190E+01  0.19885024221E+02  0.00000000000E+00 0.  1.
</event>
<event>
12    1  0.8461994E-002  0.2254808E+03  0.7818608E-02  0.1132788E+00
         21   -1    0    0  501  502  0.00000000000E+00  0.00000000000E+00  0.64381739931E+02  0.64381739931E+02  0.00000000000E+00 0. -1.
         21   -1    0    0  502  503 -0.00000000000E+00 -0.00000000000E+00 -0.11543687350E+04  0.11543687350E+04  0.00000000000E+00 0.  1.
         -6    2    1    2    0  503 -0.79812447007E+02 -0.92288549479E+02 -0.92415127784E+03  0.95126082872E+03  0.18961639396E+03 0.  0.
        -24    2    3    3    0    0 -0.72482528773E+02 -0.18452002149E+02 -0.24738120425E+03  0.27041915407E+03  0.79591867134E+02 0.  0.
          6    2    1    2  501    0  0.79812447007E+02  0.92288549479E+02 -0.16583571721E+03  0.26748964619E+03  0.17076891595E+03 0.  0.
         24    2    5    5    0    0  0.62269721044E+02  0.12940912886E+03 -0.10993068983E+03  0.19796880951E+03  0.80514918995E+02 0.  0.
          5    1    5    5  501    0  0.17542725963E+02 -0.37120579377E+02 -0.55905027378E+02  0.69520836687E+02  0.47000000000E+01 0. -1.
        -11    1    6    6    0    0  0.34902776501E+01 -0.11419295375E+02 -0.98076388769E+01  0.15452253081E+02  0.00000000000E+00 0.  1.
         12    1    6    6    0    0  0.58779443394E+02  0.14082842423E+03 -0.10012305096E+03  0.18251655643E+03  0.00000000000E+00 0. -1.
         -5    1    3    3    0  503 -0.73299182346E+01 -0.73836547330E+02 -0.67677007359E+03  0.68084167465E+03  0.47000000000E+01 0.  1.
         11    1    4    4    0    0 -0.34266283399E+02 -0.48494163014E+02 -0.11560836728E+03  0.12996598251E+03  0.00000000000E+00 0. -1.
        -12    1    4    4    0    0 -0.38216245374E+02  0.30042160864E+02 -0.13177283697E+03  0.14045317156E+03  0.00000000000E+00 0.  1.
</event>
<event>
12    1  0.8461994E-002  0.2739490E+03  0.7818608E-02  0.1099098E+00
         21   -1    0    0  503  502  0.00000000000E+00  0.00000000000E+00  0.41749670793E+03  0.41749670793E+03  0.00000000000E+00 0.  1.
         21   -1    0    0  501  503 -0.00000000000E+00 -0.00000000000E+00 -0.25456612061E+03  0.25456612061E+03  0.00000000000E+00 0. -1.
          6    2    1    2  501    0  0.11537911097E+03 -0.18013649618E+03 -0.10106692675E+03  0.29161212158E+03  0.17047465871E+03 0.  0.
         24    2    3    3    0    0  0.12335751511E+03 -0.10584898451E+03 -0.22416033053E+02  0.18302877846E+03  0.81092361854E+02 0.  0.
         -6    2    1    2    0  502 -0.11537911097E+03  0.18013649618E+03  0.26399751407E+03  0.38045070696E+03  0.17113315425E+03 0.  0.
        -24    2    5    5    0    0  0.46026254843E+01  0.54535855135E+02  0.12256199162E+03  0.15640331214E+03  0.80282068991E+02 0.  0.
          5    1    3    3  501    0 -0.79784041331E+01 -0.74287511674E+02 -0.78650893698E+02  0.10858334312E+03  0.47000000000E+01 0. -1.
        -11    1    4    4    0    0  0.19302108366E+02 -0.65916402280E+02 -0.20042336200E+02  0.71548855457E+02  0.00000000000E+00 0.  1.
         12    1    4    4    0    0  0.10405540674E+03 -0.39932582229E+02 -0.23736968528E+01  0.11147992300E+03  0.00000000000E+00 0. -1.
         -5    1    5    5    0  502 -0.11998173646E+03  0.12560064105E+03  0.14143552245E+03  0.22404739482E+03  0.47000000000E+01 0.  1.
         11    1    6    6    0    0 -0.29411352052E+02  0.21928436723E+01  0.17785143971E+02  0.34440492722E+02  0.00000000000E+00 0. -1.
        -12    1    6    6    0    0  0.34013977536E+02  0.52343011463E+02  0.10477684765E+03  0.12196281942E+03  0.00000000000E+00 0.  1.
</event>
<event>
12    1  0.8461994E-002  0.1933458E+03  0.7818608E-02  0.1155543E+00
         21   -1    0    0  503  502  0.00000000000E+00  0.00000000000E+00  0.35115242214E+02  0.35115242214E+02  0.00000000000E+00 0.  1.
         21   -1    0    0  501  503 -0.00000000000E+00 -0.00000000000E+00 -0.11416944417E+04  0.11416944417E+04  0.00000000000E+00 0.  1.
          6    2    1    2  501    0 -0.34486606032E+02 -0.81413621973E+02 -0.70822977151E+03  0.73414714130E+03  0.17194508422E+03 0.  0.
         24    2    3    3    0    0 -0.43417141799E+02 -0.59204893028E+02 -0.70204286972E+03  0.70898069808E+03  0.66326252487E+02 0.  0.
         -6    2    1    2    0  502  0.34486606032E+02  0.81413621973E+02 -0.39834942798E+03  0.44266254261E+03  0.17161106033E+03 0.  0.
        -24    2    5    5    0    0 -0.32641978675E+02  0.26509013422E+02 -0.29644952732E+03  0.30877287655E+03  0.75433019834E+02 0.  0.
          5    1    3    3  501    0  0.89305357671E+01 -0.22208728945E+02 -0.61869017918E+01  0.25166443218E+02  0.47000000000E+01 0. -1.
        -13    1    4    4    0    0 -0.55835239379E+02 -0.56730621421E+02 -0.66676118055E+03  0.67149565095E+03  0.00000000000E+00 0.  1.
         14    1    4    4    0    0  0.12418097580E+02 -0.24742716068E+01 -0.35281689170E+02  0.37485047128E+02  0.00000000000E+00 0. -1.
         -5    1    5    5    0  502  0.67128584708E+02  0.54904608551E+02 -0.10189990066E+03  0.13388966607E+03  0.47000000000E+01 0.  1.
         13    1    6    6    0    0  0.76614664816E+01  0.86011007870E+01 -0.22158026130E+03  0.22187944745E+03  0.00000000000E+00 0. -1.
        -14    1    6    6    0    0 -0.40303445157E+02  0.17907912635E+02 -0.74869266018E+02  0.86893429099E+02  0.00000000000E+00 0.  1.
</event>
<event>
12    1  0.8461994E-002  0.2046794E+03  0.7818608E-02  0.1145898E+00
         21   -1    0    0  501  502  0.00000000000E+00  0.00000000000E+00  0.12769212056E+03  0.12769212056E+03  0.00000000000E+00 0.  1.
         21   -1    0    0  502  503 -0.00000000000E+00 -0.00000000000E+00 -0.32865198113E+03  0.32865198113E+03  0.00000000000E+00 0.  1.
         -6    2    1    2    0  503 -0.10312415810E+03  0.39330242536E+02 -0.11267468423E+03  0.23343623271E+03  0.17209134293E+03 0.  0.
        -24    2    3    3    0    0 -0.73605527888E+02  0.88944836826E+02 -0.52312040104E+02  0.14977802150E+03  0.79799426384E+02 0.  0.
          6    2    1    2  501    0  0.10312415810E+03 -0.39330242536E+02 -0.88285176343E+02  0.22290786898E+03  0.17237223016E+03 0.  0.
         24    2    5    5    0    0  0.25826307279E+02 -0.15631562596E+02  0.20640404038E+02  0.87174832348E+02  0.79133312955E+02 0.  0.
          5    1    5    5  501    0  0.77297850820E+02 -0.23698679940E+02 -0.10892558038E+03  0.13573303663E+03  0.47000000000E+01 0. -1.
        -13    1    6    6    0    0  0.48515706279E+02  0.69859231131E+01 -0.89382934915E-01  0.49016169443E+02  0.00000000000E+00 0.  1.
         14    1    6    6    0    0 -0.22689399001E+02 -0.22617485709E+02  0.20729786973E+02  0.38158662906E+02  0.00000000000E+00 0. -1.
         -5    1    3    3    0  503 -0.29518630211E+02 -0.49614594290E+02 -0.60362644128E+02  0.83658211206E+02  0.47000000000E+01 0.  1.
         11    1    4    4    0    0 -0.78981182587E+02  0.70857528155E+02 -0.13942399364E+02  0.10701965707E+03  0.00000000000E+00 0. -1.
        -12    1    4    4    0    0  0.53756546990E+01  0.18087308671E+02 -0.38369640740E+02  0.42758364432E+02  0.00000000000E+00 0.  1.
</event>
<event>
12    1  0.8461994E-002  0.1751676E+03  0.7818608E-02  0.1173005E+00
         21   -1    0    0  501  502  0.00000000000E+00  0.00000000000E+00  0.59759987091E+02  0.59759987091E+02  0.00000000000E+00 0.  1.
         21   -1    0    0  502  503 -0.00000000000E+00 -0.00000000000E+00 -0.51691978320E+03  0.51691978320E+03  0.00000000000E+00 0.  1.
         -6    2    1    2    0  503 -0.81624022973E+00 -0.26660547446E+02 -0.19253391470E+03  0.26029404216E+03  0.17312489432E+03 0.  0.
        -24    2    3    3    0    0 -0.51550599371E+02  0.13471484271E+02 -0.15916610604E+03  0.18735532938E+03  0.83241966276E+02 0.  0.
          6    2    1    2  501    0  0.81624022973E+00  0.26660547446E+02 -0.26462588141E+03  0.31638572814E+03  0.17135232948E+03 0.  0.
         24    2    5    5    0    0  0.35483467618E+02  0.25668145826E+02 -0.26522499819E+03  0.28138215037E+03  0.83148570013E+02 0.  0.
          5    1    5    5  501    0 -0.34667227388E+02  0.99240161974E+00  0.59911678277E+00  0.35003577769E+02  0.47000000000E+01 0. -1.
        -11    1    6    6    0    0 -0.23014341074E+02  0.14519624178E+02 -0.14123895827E+03  0.14383644432E+03  0.00000000000E+00 0.  1.
         12    1    6    6    0    0  0.58497808692E+02  0.11148521648E+02 -0.12398603992E+03  0.13754570605E+03  0.00000000000E+00 0. -1.
         -5    1    3    3    0  503  0.50734359141E+02 -0.40132031716E+02 -0.33367808663E+02  0.72938712781E+02  0.47000000000E+01 0.  1.
         13    1    4    4    0    0 -0.11241594965E+02  0.43488006156E+02 -0.10065959705E+03  0.11022674183E+03  0.00000000000E+00 0. -1.
        -14    1    4    4    0    0 -0.40309004406E+02 -0.30016521885E+02 -0.58506508995E+02  0.77128587547E+02  0.00000000000E+00 0.  1.
</event>
<event>
12    1  0.8461994E-002  0.1991027E+03  0.7818608E-02  0.1154210E+00
         21   -1    0    0  503  502  0.00000000000E+00  0.00000000000E+00  0.83971867083E+02  0.83971867083E+02  0.00000000000E+00 0.  1.
         21   -1    0    0  501  503 -0.00000000000E+00 -0.00000000000E+00 -0.44473351958E+03  0.44473351958E+03  0.00000000000E+00 0. -1.
          6    2    1    2  501    0 -0.26215371549E+02  0.53339650382E+02 -0.23036036557E+03  0.30447953134E+03  0.19002505880E+03 0.  0.
         24    2    3    3    0    0 -0.22236592165E+02  0.47583544452E+02 -0.25832211919E+03  0.27527485523E+03  0.79292300528E+02 0.  0.
         -6    2    1    2    0  502  0.26215371549E+02 -0.53339650382E+02 -0.13040128693E+03  0.22422585532E+03  0.17245397807E+03 0.  0.
        -24    2    5    5    0    0 -0.18413735508E+02 -0.59701982033E+02 -0.14519709145E+03  0.17654732460E+03  0.78634408132E+02 0.  0.
          5    1    3    3  501    0 -0.39787793842E+01  0.57561059305E+01  0.27961753627E+02  0.29204676112E+02  0.47000000000E+01 0. -1.
        -11    1    4    4    0    0 -0.50356511857E+02  0.24292867921E+02 -0.12295421967E+03  0.13506910029E+03  0.00000000000E+00 0.  1.
         12    1    4    4    0    0  0.28119919693E+02  0.23290676530E+02 -0.13536789952E+03  0.14020575494E+03  0.00000000000E+00 0. -1.
         -5    1    5    5    0  502  0.44629107057E+02  0.63623316507E+01  0.14795804521E+02  0.47678530725E+02  0.47000000000E+01 0.  1.
         13    1    6    6    0    0  0.19402066336E+02 -0.57903153725E+02 -0.74301143992E+02  0.96176272479E+02  0.00000000000E+00 0. -1.
        -14    1    6    6    0    0 -0.37815801844E+02 -0.17988283080E+01 -0.70895947462E+02  0.80371052120E+02  0.00000000000E+00 0.  1.
</event>
<event>
12    1  0.8461994E-002  0.2034791E+03  0.7818608E-02  0.1146922E+00
         21   -1    0    0  501  502  0.00000000000E+00  0.00000000000E+00  0.12107438084E+03  0.12107438084E+03  0.00000000000E+00 0. -1.
         21   -1    0    0  502  503 -0.00000000000E+00 -0.00000000000E+00 -0.42126445443E+03  0.42126445443E+03  0.00000000000E+00 0. -1.
         -6    2    1    2    0  503 -0.10666467809E+03 -0.21257331802E+02 -0.26838388609E+03  0.33679912312E+03  0.17197241438E+03 0.  0.
        -24    2    3    3    0    0  0.10850973904E+02  0.10202589424E+02 -0.99106471664E+02  0.12828872015E+03  0.80087867540E+02 0.  0.
          6    2    1    2  501    0  0.10666467809E+03  0.21257331802E+02 -0.31806187500E+02  0.20553971215E+03  0.17148093771E+03 0.  0.
         24    2    5    5    0    0  0.47431072108E+02  0.75582262422E+02 -0.91626343213E+00  0.11930691344E+03  0.79189109487E+02 0.  0.
          5    1    5    5  501    0  0.59233605986E+02 -0.54324930619E+02 -0.30889924067E+02  0.86232798712E+02  0.47000000000E+01 0. -1.
        -11    1    6    6    0    0  0.37900531641E+02  0.41733171066E+02 -0.38167236670E+02  0.68079701975E+02  0.00000000000E+00 0.  1.
         12    1    6    6    0    0  0.95305404670E+01  0.33849091355E+02  0.37250973238E+02  0.51227211463E+02  0.00000000000E+00 0. -1.
         -5    1    3    3    0  503 -0.11751565200E+03 -0.31459921226E+02 -0.16927741443E+03  0.20851040296E+03  0.47000000000E+01 0.  1.
         11    1    4    4    0    0 -0.16696550907E+02 -0.70765924131E+01 -0.93559518826E+02  0.95300768808E+02  0.00000000000E+00 0. -1.
        -12    1    4    4    0    0  0.27547524811E+02  0.17279181837E+02 -0.55469528382E+01  0.32987951345E+02  0.00000000000E+00 0.  1.
</event>
<event>
12    1  0.8461994E-002  0.1888746E+03  0.7818608E-02  0.1159661E+00
         21   -1    0    0  503  502  0.00000000000E+00  0.00000000000E+00  0.34014167989E+03  0.34014167989E+03  0.00000000000E+00 0. -1.
         21   -1    0    0  501  503 -0.00000000000E+00 -0.00000000000E+00 -0.15787841573E+03  0.15787841573E+03  0.00000000000E+00 0. -1.
          6    2    1    2  501    0 -0.38354051361E+02  0.67482553608E+02 -0.53615228941E+02  0.19633693973E+03  0.17218789978E+03 0.  0.
         24    2    3    3    0    0  0.82060743226E+01  0.16420303065E+02  0.30394112140E+02  0.87456922632E+02  0.79924622332E+02 0.  0.
         -6    2    1    2    0  502  0.38354051361E+02 -0.67482553608E+02  0.23587849310E+03  0.30168315589E+03  0.17131589169E+03 0.  0.
        -24    2    5    5    0    0  0.24995646588E+02 -0.10323182311E+03  0.22585456554E+03  0.26194619109E+03  0.79523145060E+02 0.  0.
          5    1    3    3  501    0 -0.46560125684E+02  0.51062250543E+02 -0.84009341081E+02  0.10888001710E+03  0.47000000000E+01 0. -1.
        -13    1    4    4    0    0 -0.33941653479E+02 -0.30953205145E+01  0.21112932251E+02  0.40092053555E+02  0.00000000000E+00 0.  1.
         14    1    4    4    0    0  0.42147727802E+02  0.19515623580E+02  0.92811798894E+01  0.47364869077E+02  0.00000000000E+00 0. -1.
         -5    1    5    5    0  502  0.13358404773E+02  0.35749269501E+02  0.10023927556E+02  0.39736964801E+02  0.47000000000E+01 0.  1.
         11    1    6    6    0    0 -0.16889994232E+02 -0.16743117606E+02  0.10253759606E+02  0.25898715767E+02  0.00000000000E+00 0. -1.
        -12    1    6    6    0    0  0.41885640820E+02 -0.86488705503E+02  0.21560080594E+03  0.23604747533E+03  0.00000000000E+00 0.  1.
</event>
<event>
12    1  0.8461994E-002  0.1821758E+03  0.7818608E-02  0.1165802E+00
         21   -1    0    0  501  502  0.00000000000E+00  0.00000000000E+00  0.18958037311E+03  0.18958037311E+03  0.00000000000E+00 0. -1.
         21   -1    0    0  502  503 -0.00000000000E+00 -0.00000000000E+00 -0.18099564572E+03  0.18099564572E+03  0.00000000000E+00 0. -1.
         -6    2    1    2    0  503  0.40168125528E+02 -0.42927974392E+02  0.38828005059E+02  0.18590689364E+03  0.17203915203E+03 0.  0.
        -24    2    3    3    0    0  0.15143539663E+02 -0.37447112927E+02 -0.43407019283E+02  0.99645900316E+02  0.80084474567E+02 0.  0.
          6    2    1    2  501    0 -0.40168125528E+02  0.42927974392E+02 -0.30243277663E+02  0.18466912520E+03  0.17242894381E+03 0.  0.
         24    2    5    5    0    0 -0.78813698467E+01 -0.40819823162E+02 -0.28630883863E+02  0.94775755024E+02  0.80214352058E+02 0.  0.
          5    1    5    5  501    0 -0.32286755682E+02  0.83747797554E+02 -0.16123937999E+01  0.89893370174E+02  0.47000000000E+01 0. -1.
        -13    1    6    6    0    0 -0.29100079882E+01  0.12145853031E+02 -0.38671242284E+02  0.40638096315E+02  0.00000000000E+00 0.  1.
         14    1    6    6    0    0 -0.49713618585E+01 -0.52965676193E+02  0.10040358421E+02  0.54137658709E+02  0.00000000000E+00 0. -1.
         -5    1    3    3    0  503  0.25024585866E+02 -0.54808614649E+01  0.82235024341E+02  0.86260993320E+02  0.47000000000E+01 0.  1.
         11    1    4    4    0    0  0.29086960930E+02 -0.50370463131E+02 -0.70147412649E+01  0.58587041632E+02  0.00000000000E+00 0. -1.
        -12    1    4    4    0    0 -0.13943421267E+02  0.12923350204E+02 -0.36392278018E+02  0.41058858684E+02  0.00000000000E+00 0.  1.
</event>
<event>
12    1  0.8461994E-002  0.1795759E+03  0.7818608E-02  0.1168831E+00
         21   -1    0    0  501  502  0.00000000000E+00  0.00000000000E+00  0.22109783171E+03  0.22109783171E+03  0.00000000000E+00 0. -1.
         21   -1    0    0  502  503 -0.00000000000E+00 -0.00000000000E+00 -0.15548794206E+03  0.15548794206E+03  0.00000000000E+00 0. -1.
         -6    2    1    2    0  503  0.41348333088E+01 -0.54371405528E+02 -0.19010514711E+02  0.17807098906E+03  0.16844741283E+03 0.  0.
        -24    2    3    3    0    0  0.67898514840E+01 -0.31935935713E+02  0.54435029180E+02  0.10108568303E+03  0.78671067354E+02 0.  0.
          6    2    1    2  501    0 -0.41348333088E+01  0.54371405528E+02  0.84620404369E+02  0.19851478471E+03  0.17109693255E+03 0.  0.
         24    2    5    5    0    0  0.64139649452E+02  0.29759650359E+02  0.57623340237E+02  0.12093853215E+03  0.79411257375E+02 0.  0.
          5    1    5    5  501    0 -0.68274482761E+02  0.24611755169E+02  0.26997064131E+02  0.77576252555E+02  0.47000000000E+01 0. -1.
        -11    1    6    6    0    0  0.46024851838E+02  0.53214861917E+02  0.20195302014E+02  0.73198078792E+02  0.00000000000E+00 0.  1.
         12    1    6    6    0    0  0.18114797614E+02 -0.23455211557E+02  0.37428038224E+02  0.47740453361E+02  0.00000000000E+00 0. -1.
         -5    1    3    3    0  503 -0.26550181751E+01 -0.22435469815E+02 -0.73445543890E+02  0.76985306031E+02  0.47000000000E+01 0.  1.
         11    1    4    4    0    0  0.37511959602E+01 -0.45391664941E+02  0.64078190093E+00  0.45550909088E+02  0.00000000000E+00 0. -1.
        -12    1    4    4    0    0  0.30386555238E+01  0.13455729228E+02  0.53794247279E+02  0.55534773942E+02  0.00000000000E+00 0.  1.
</event>
<event>
12    1  0.8461994E-002  0.2589806E+03  0.7818608E-02  0.1107949E+00
         21   -1    0    0  503  502  0.00000000000E+00  0.00000000000E+00  0.35805786535E+02  0.35805786535E+02  0.00000000000E+00 0.  1.
         21   -1    0    0  501  503 -0.00000000000E+00 -0.00000000000E+00 -0.21542182602E+04  0.21542182602E+04  0.00000000000E+00 0.  1.
          6    2    1    2  501    0  0.68239798658E+02 -0.18147630693E+03 -0.14588448466E+04  0.14814336043E+04  0.16978491492E+03 0.  0.
         24    2    3    3    0    0  0.73686947898E+02 -0.14923607199E+03 -0.14134983067E+04  0.14253309941E+04  0.76745086773E+02 0.  0.
         -6    2    1    2    0  502 -0.68239798658E+02  0.18147630693E+03 -0.65956762710E+03  0.70859044249E+03  0.17169927307E+03 0.  0.
        -24    2    5    5    0    0 -0.12788413075E+02  0.11731869693E+03 -0.23045447444E+03  0.27115331231E+03  0.80545849200E+02 0.  0.
          5    1    3    3  501    0 -0.54471492403E+01 -0.32240234937E+02 -0.45346539925E+02  0.56102610160E+02  0.47000000000E+01 0. -1.
        -13    1    4    4    0    0  0.22009987814E+02 -0.95584069124E+01 -0.79432401172E+02  0.82977762456E+02  0.00000000000E+00 0.  1.
         14    1    4    4    0    0  0.51676960085E+02 -0.13967766508E+03 -0.13340659055E+04  0.13423532317E+04  0.00000000000E+00 0. -1.
         -5    1    5    5    0  502 -0.55451385583E+02  0.64157609998E+02 -0.42911315265E+03  0.43743713018E+03  0.47000000000E+01 0.  1.
         13    1    6    6    0    0  0.22977162823E+01  0.30221865254E+02 -0.14525547323E+03  0.14838393829E+03  0.00000000000E+00 0. -1.
        -14    1    6    6    0    0 -0.15086129357E+02  0.87096831681E+02 -0.85199001213E+02  0.12276937401E+03  0.00000000000E+00 0.  1.
</event>
<event>
12    1  0.8461994E-002  0.1811178E+03  0.7818608E-02  0.1168419E+00
         21   -1    0    0  503  502  0.00000000000E+00  0.00000000000E+00  0.12523548835E+04  0.12523548835E+04  0.00000000000E+00 0. -1.
         21   -1    0    0  501  503 -0.00000000000E+00 -0.00000000000E+00 -0.31846772118E+02  0.31846772118E+02  0.00000000000E+00 0. -1.
          6    2    1    2  501    0 -0.21071301753E+02 -0.76330273021E+01  0.32643167784E+03  0.37331124052E+03  0.17972584437E+03 0.  0.
         24    2    3    3    0    0  0.56011116932E+02  0.10500633656E+02  0.15123942254E+03  0.18099653684E+03  0.81479291187E+02 0.  0.
         -6    2    1    2    0  502  0.21071301753E+02  0.76330273021E+01  0.89407643351E+03  0.91089041507E+03  0.17276115434E+03 0.  0.
        -24    2    5    5    0    0  0.80368538180E+02 -0.26223345842E+01  0.61298462557E+03  0.62339079909E+03  0.79999741535E+02 0.  0.
          5    1    3    3  501    0 -0.77082418684E+02 -0.18133660958E+02  0.17519225531E+03  0.19231470368E+03  0.47000000000E+01 0. -1.
        -13    1    4    4    0    0 -0.19431861217E+01  0.35721336784E+02  0.63136306445E+02  0.72567093545E+02  0.00000000000E+00 0.  1.
         14    1    4    4    0    0  0.57954303053E+02 -0.25220703128E+02  0.88103116090E+02  0.10842944330E+03  0.00000000000E+00 0. -1.
         -5    1    5    5    0  502 -0.59297236428E+02  0.10255361886E+02  0.28109180794E+03  0.28749961598E+03  0.47000000000E+01 0.  1.
         11    1    6    6    0    0  0.22053000860E+02  0.36895135590E+02  0.23338314290E+03  0.23730840117E+03  0.00000000000E+00 0. -1.
        -12    1    6    6    0    0  0.58315537320E+02 -0.39517470174E+02  0.37960148267E+03  0.38608239792E+03  0.00000000000E+00 0.  1.
</event>
<event>
12    1  0.8461994E-002  0.2423662E+03  0.7818608E-02  0.1118343E+00
         21   -1    0    0  501  502  0.00000000000E+00  0.00000000000E+00  0.20863038070E+03  0.20863038070E+03  0.00000000000E+00 0. -1.
         21   -1    0    0  502  503 -0.00000000000E+00 -0.00000000000E+00 -0.68059077602E+03  0.68059077602E+03  0.00000000000E+00 0.  1.
         -6    2    1    2    0  503  0.14140297398E+03  0.94877514582E+02 -0.57662810440E+03  0.62521979915E+03  0.17147385410E+03 0.  0.
        -24    2    3    3    0    0  0.16210982025E+03  0.11297756785E+03 -0.52522714269E+03  0.56673446530E+03  0.79251991059E+02 0.  0.
          6    2    1    2  501    0 -0.14140297398E+03 -0.94877514582E+02  0.10466770908E+03  0.26400135757E+03  0.17246693495E+03 0.  0.
         24    2    5    5    0    0 -0.31511988631E+02 -0.23189475193E+02  0.98033444581E+02  0.13254297207E+03  0.80164368655E+02 0.  0.
          5    1    5    5  501    0 -0.10989098535E+03 -0.71688039389E+02  0.66342645018E+01  0.13145838550E+03  0.47000000000E+01 0. -1.
        -13    1    6    6    0    0  0.26894781555E+02 -0.34994856166E+01  0.24051787864E+02  0.36250023089E+02  0.00000000000E+00 0.  1.
         14    1    6    6    0    0 -0.58406770186E+02 -0.19689989577E+02  0.73981656717E+02  0.96292948983E+02  0.00000000000E+00 0. -1.
         -5    1    3    3    0  503 -0.20706846267E+02 -0.18100053264E+02 -0.51400961717E+02  0.58485333853E+02  0.47000000000E+01 0.  1.
         13    1    4    4    0    0 -0.29197671171E+01 -0.46451251355E-01  0.15172090440E+01  0.32907629845E+01  0.00000000000E+00 0. -1.
        -14    1    4    4    0    0  0.16502958736E+03  0.11302401910E+03 -0.52674435173E+03  0.56344370232E+03  0.00000000000E+00 0.  1.
</event>
<event>
12    1  0.8461994E-002  0.2032858E+03  0.7818608E-02  0.1147449E+00
         21   -1    0    0  503  502  0.00000000000E+00  0.00000000000E+00  0.16397267786E+03  0.16397267786E+03  0.00000000000E+00 0.  1.
         21   -1    0    0  501  503 -0.00000000000E+00 -0.00000000000E+00 -0.25540805522E+03  0.25540805522E+03  0.00000000000E+00 0.  1.
          6    2    1    2  501    0 -0.44068532636E+02 -0.92241181719E+02 -0.78312457526E+02  0.21784846146E+03  0.17571180945E+03 0.  0.
         24    2    3    3    0    0 -0.87133081459E+02 -0.60529362170E+02 -0.93079826121E+02  0.16216758467E+03  0.79865473879E+02 0.  0.
         -6    2    1    2    0  502  0.44068532636E+02  0.92241181719E+02 -0.13122919834E+02  0.20153227162E+03  0.17318364330E+03 0.  0.
        -24    2    5    5    0    0  0.38251553097E+01  0.57966974845E+02  0.56433807196E+02  0.11404239249E+03  0.80287550121E+02 0.  0.
          5    1    3    3  501    0  0.43064548823E+02 -0.31711819549E+02  0.14767368595E+02  0.55680876786E+02  0.47000000000E+01 0. -1.
        -13    1    4    4    0    0 -0.30719188735E+02 -0.35586554549E+02 -0.88628842019E+02  0.10032518656E+03  0.00000000000E+00 0.  1.
         14    1    4    4    0    0 -0.56413892724E+02 -0.24942807621E+02 -0.44509841020E+01  0.61842398108E+02  0.00000000000E+00 0. -1.
         -5    1    5    5    0  502  0.40243377326E+02  0.34274206874E+02 -0.69556727030E+02  0.87489879133E+02  0.47000000000E+01 0.  1.
         11    1    6    6    0    0 -0.13693838771E+02  0.48481032716E+02 -0.38764786279E+01  0.50526813080E+02  0.00000000000E+00 0. -1.
        -12    1    6    6    0    0  0.17518994080E+02  0.94859421297E+01  0.60310285824E+02  0.63515579411E+02  0.00000000000E+00 0.  1.
</event>
<event>
12    1  0.8461994E-002  0.1902309E+03  0.7818608E-02  0.1158441E+00
         21   -1    0    0  501  502  0.00000000000E+00  0.00000000000E+00  0.36940006741E+03  0.36940006741E+03  0.00000000000E+00 0.  1.
         21   -1    0    0  502  503 -0.00000000000E+00 -0.00000000000E+00 -0.27681050624E+03  0.27681050624E+03  0.00000000000E+00 0.  1.
         -6    2    1    2    0  503 -0.54367011892E+01 -0.81588036246E+02 -0.21376445916E+03  0.28559919535E+03  0.17083761590E+03 0.  0.
        -24    2    3    3    0    0 -0.51881779290E+02 -0.78284726589E+02 -0.87791665927E+02  0.15121433099E+03  0.79612686493E+02 0.  0.
          6    2    1    2  501    0  0.54367011892E+01  0.81588036246E+02  0.30635402033E+03  0.36061137831E+03  0.17176034180E+03 0.  0.
         24    2    5    5    0    0 -0.60075977495E+02  0.41732272340E+02  0.22121605557E+03  0.24593376050E+03  0.78715727024E+02 0.  0.
          5    1    5    5  501    0  0.65512678684E+02  0.39855763906E+02  0.85137964752E+02  0.11467761781E+03  0.47000000000E+01 0. -1.
        -11    1    6    6    0    0  0.80455060585E+01  0.34440991894E+02  0.10756094198E+03  0.11322662377E+03  0.00000000000E+00 0.  1.
         12    1    6    6    0    0 -0.68121483554E+02  0.72912804459E+01  0.11365511359E+03  0.13270713673E+03  0.00000000000E+00 0. -1.
         -5    1    3    3    0  503  0.46445078101E+02 -0.33033096578E+01 -0.12597279323E+03  0.13438486436E+03  0.47000000000E+01 0.  1.
         13    1    4    4    0    0 -0.63063693339E+02 -0.67351521671E+02 -0.96335970279E+02  0.13339368823E+03  0.00000000000E+00 0. -1.
        -14    1    4    4    0    0  0.11181914050E+02 -0.10933204918E+02  0.85443043519E+01  0.17820642762E+02  0.00000000000E+00 0.  1.
</event>
<event>
12    1  0.8461994E-002  0.2142661E+03  0.7818608E-02  0.1138479E+00
         21   -1    0    0  501  502  0.00000000000E+00  0.00000000000E+00  0.36328305586E+02  0.36328305586E+02  0.00000000000E+00 0. -1.
         21   -1    0    0  502  503 -0.00000000000E+00 -0.00000000000E+00 -0.24209250459E+04  0.24209250459E+04  0.00000000000E+00 0.  1.
         -6    2    1    2    0  503 -0.10016551332E+03 -0.78652577975E+02 -0.20463428523E+04  0.20575298377E+04  0.17230962199E+03 0.  0.
        -24    2    3    3    0    0 -0.12308631213E+03 -0.21129398530E+02 -0.14949980926E+04  0.15026988605E+04  0.86532519005E+02 0.  0.
          6    2    1    2  501    0  0.10016551332E+03  0.78652577975E+02 -0.33825388800E+03  0.39972351376E+03  0.17071566016E+03 0.  0.
         24    2    5    5    0    0 -0.43073498680E+01  0.42268027674E+02 -0.21333815343E+03  0.23279704676E+03  0.82922601514E+02 0.  0.
          5    1    5    5  501    0  0.10447286319E+03  0.36384550301E+02 -0.12491573457E+03  0.16692646700E+03  0.47000000000E+01 0. -1.
        -13    1    6    6    0    0  0.10144847629E+02  0.51971284029E+02 -0.20793336920E+03  0.21456984486E+03  0.00000000000E+00 0.  1.
         14    1    6    6    0    0 -0.14452197497E+02 -0.97032563547E+01 -0.54047842361E+01  0.18227201898E+02  0.00000000000E+00 0. -1.
         -5    1    3    3    0  503  0.22920798804E+02 -0.57523179446E+02 -0.55134475969E+03  0.55483097718E+03  0.47000000000E+01 0.  1.
         13    1    4    4    0    0 -0.53707029957E+02 -0.31435936278E+02 -0.34527715736E+03  0.35084038899E+03  0.00000000000E+00 0. -1.
        -14    1    4    4    0    0 -0.69379282172E+02  0.10306537748E+02 -0.11497209352E+04  0.11518584715E+04  0.00000000000E+00 0.  1.
</event>
<event>
12    1  0.8461994E-002  0.2316075E+03  0.7818608E-02  0.1125588E+00
         21   -1    0    0  501  502  0.00000000000E+00  0.00000000000E+00  0.17029349433E+03  0.17029349433E+03  0.00000000000E+00 0.  1.
         21   -1    0    0  502  503 -0.00000000000E+00 -0.00000000000E+00 -0.31573197820E+03  0.31573197820E+03  0.00000000000E+00 0.  1.
         -6    2    1    2    0  503  0.11650768229E+03  0.10377358708E+03 -0.56982403383E+02  0.23810103592E+03  0.17059341019E+03 0.  0.
        -24    2    3    3    0    0  0.12619980612E+03  0.49230867442E+02  0.10219166362E+01  0.15775530379E+03  0.80843195059E+02 0.  0.
          6    2    1    2  501    0 -0.11650768229E+03 -0.10377358708E+03 -0.88456080489E+02  0.24792443661E+03  0.17116965469E+03 0.  0.
         24    2    5    5    0    0 -0.10280375840E+03 -0.12636033609E+03 -0.28453489646E+02  0.18219499368E+03  0.76484425686E+02 0.  0.
          5    1    5    5  501    0 -0.13703923895E+02  0.22586749006E+02 -0.60002590843E+02  0.65729442936E+02  0.47000000000E+01 0. -1.
        -13    1    6    6    0    0 -0.86606387230E+02 -0.63583078380E+02 -0.43040819704E+02  0.11574103130E+03  0.00000000000E+00 0.  1.
         14    1    6    6    0    0 -0.16197371165E+02 -0.62777257705E+02  0.14587330058E+02  0.66453962379E+02  0.00000000000E+00 0. -1.
         -5    1    3    3    0  503 -0.96921238286E+01  0.54542719637E+02 -0.58004320019E+02  0.80345732125E+02  0.47000000000E+01 0.  1.
         11    1    4    4    0    0  0.11997711066E+03  0.63888970357E+02  0.14756539178E+02  0.13672623400E+03  0.00000000000E+00 0. -1.
        -12    1    4    4    0    0  0.62226954555E+01 -0.14658102915E+02 -0.13734622542E+02  0.21029069788E+02  0.00000000000E+00 0.  1.
</event>
<event>
12    1  0.8461994E-002  0.1773933E+03  0.7818608E-02  0.1170716E+00
         21   -1    0    0  501  502  0.00000000000E+00  0.00000000000E+00  0.13487663207E+03  0.13487663207E+03  0.00000000000E+00 0. -1.
         21   -1    0    0  502  503 -0.00000000000E+00 -0.00000000000E+00 -0.46039062843E+03  0.46039062843E+03  0.00000000000E+00 0. -1.
         -6    2    1    2    0  503  0.22861140084E+02 -0.29635551793E+02 -0.37301847300E+03  0.41305103381E+03  0.17339976263E+03 0.  0.
        -24    2    3    3    0    0  0.13646908826E+02 -0.86597360085E+02 -0.23670762699E+03  0.26495550249E+03  0.80533078457E+02 0.  0.
          6    2    1    2  501    0 -0.22861140084E+02  0.29635551793E+02  0.47504476641E+02  0.18221622668E+03  0.17188711502E+03 0.  0.
         24    2    5    5    0    0 -0.26448606801E+02 -0.11866540214E+02  0.89277938499E+02  0.12303510069E+03  0.79540820466E+02 0.  0.
          5    1    5    5  501    0  0.35874667167E+01  0.41502092007E+02 -0.41773461859E+02  0.59181125995E+02  0.47000000000E+01 0. -1.
        -13    1    6    6    0    0 -0.11404179610E+02 -0.43347442244E+02  0.28995611208E+02  0.53383532395E+02  0.00000000000E+00 0.  1.
         14    1    6    6    0    0 -0.15044427191E+02  0.31480902030E+02  0.60282327292E+02  0.69651568294E+02  0.00000000000E+00 0. -1.
         -5    1    3    3    0  503  0.92142312585E+01  0.56961808292E+02 -0.13631084600E+03  0.14809553133E+03  0.47000000000E+01 0.  1.
         11    1    4    4    0    0  0.38631058846E+02 -0.48450566792E+02 -0.18926716602E+03  0.19915289670E+03  0.00000000000E+00 0. -1.
        -12    1    4    4    0    0 -0.24984150021E+02 -0.38146793293E+02 -0.47440460970E+02  0.65802605783E+02  0.00000000000E+00 0.  1.
</event>
<event>
12    1  0.8461994E-002  0.1854899E+03  0.7818608E-02  0.1162745E+00
         21   -1    0    0  501  502  0.00000000000E+00  0.00000000000E+00  0.87867310248E+03  0.87867310248E+03  0.00000000000E+00 0.  1.
         21   -1    0    0  502  503 -0.00000000000E+00 -0.00000000000E+00 -0.65744124763E+02  0.65744124763E+02  0.00000000000E+00 0.  1.
         -6    2    1    2    0  503 -0.69029419933E+02  0.25913142518E+01  0.10497601177E+03  0.21256758862E+03  0.17144457110E+03 0.  0.
        -24    2    3    3    0    0 -0.23875389446E+02 -0.63301903486E+02  0.57903211034E+02  0.11973041297E+03  0.80033897424E+02 0.  0.
          6    2    1    2  501    0  0.69029419933E+02 -0.25913142518E+01  0.70795296594E+03  0.73184963862E+03  0.17214736661E+03 0.  0.
         24    2    5    5    0    0  0.60467892244E+02 -0.68221211140E+02  0.44490127294E+03  0.46055852872E+03  0.76593185488E+02 0.  0.
          5    1    5    5  501    0  0.85615276894E+01  0.65629896888E+02  0.26305169300E+03  0.27129110990E+03  0.47000000000E+01 0. -1.
        -13    1    6    6    0    0  0.61313312464E+02 -0.12296686612E+02  0.25781899244E+03  0.26529448477E+03  0.00000000000E+00 0.  1.
         14    1    6    6    0    0 -0.84542021994E+00 -0.55924524528E+02  0.18708228050E+03  0.19526404394E+03  0.00000000000E+00 0. -1.
         -5    1    3    3    0  503 -0.45154030488E+02  0.65893217738E+02  0.47072800736E+02  0.92837175648E+02  0.47000000000E+01 0.  1.
         11    1    4    4    0    0  0.80204865987E+01 -0.15125088445E+02  0.59516030011E+02  0.61929430274E+02  0.00000000000E+00 0. -1.
        -12    1    4    4    0    0 -0.31895876044E+02 -0.48176815041E+02 -0.16128189766E+01  0.57800982701E+02  0.00000000000E+00 0.  1.
</event>
<event>
12    1  0.8461994E-002  0.1955661E+03  0.7818608E-02  0.1153834E+00
         21   -1    0    0  503  502  0.00000000000E+00  0.00000000000E+00  0.45728890047E+03  0.45728890047E+03  0.00000000000E+00 0. -1.
         21   -1    0    0  501  503 -0.00000000000E+00 -0.00000000000E+00 -0.14013997137E+03  0.14013997137E+03  0.00000000000E+00 0.  1.
          6    2    1    2  501    0  0.82723720487E+02  0.36728093622E+02 -0.31750802572E+02  0.19812680252E+03  0.17336074994E+03 0.  0.
         24    2    3    3    0    0  0.12031250289E+03  0.17735369006E+02 -0.46207221707E+02  0.15335272290E+03  0.81193033060E+02 0.  0.
         -6    2    1    2    0  502 -0.82723720487E+02 -0.36728093622E+02  0.34889973168E+03  0.39930206932E+03  0.17181080585E+03 0.  0.
        -24    2    5    5    0    0 -0.21682362382E+02  0.31012497931E+02  0.24659152086E+03  0.26217477392E+03  0.80599839045E+02 0.  0.
          5    1    3    3  501    0 -0.37588782407E+02  0.18992724616E+02  0.14456419135E+02  0.44774079615E+02  0.47000000000E+01 0. -1.
        -11    1    4    4    0    0  0.61759358956E+02  0.70363097018E+01 -0.65964399413E+02  0.90636803026E+02  0.00000000000E+00 0.  1.
         12    1    4    4    0    0  0.58553143939E+02  0.10699059304E+02  0.19757177707E+02  0.62715919877E+02  0.00000000000E+00 0. -1.
         -5    1    5    5    0  502 -0.61041358106E+02 -0.67740591553E+02  0.10230821082E+03  0.13712729540E+03  0.47000000000E+01 0.  1.
         11    1    6    6    0    0  0.27921612466E+02  0.20851652110E+02  0.66204115817E+02  0.74815725549E+02  0.00000000000E+00 0. -1.
        -12    1    6    6    0    0 -0.49603974847E+02  0.10160845820E+02  0.18038740504E+03  0.18735904837E+03  0.00000000000E+00 0.  1.
</event>
<event>
12    1  0.8461994E-002  0.1961331E+03  0.7818608E-02  0.1153718E+00
         21   -1    0    0  501  502  0.00000000000E+00  0.00000000000E+00  0.14382655337E+03  0.14382655337E+03  0.00000000000E+00 0. -1.
         21   -1    0    0  502  503 -0.00000000000E+00 -0.00000000000E+00 -0.77057075730E+03  0.77057075730E+03  0.00000000000E+00 0.  1.
         -6    2    1    2    0  503  0.75735655036E+02 -0.41790946178E+02 -0.68348414784E+03  0.71022185139E+03  0.17257498433E+03 0.  0.
        -24    2    3    3    0    0  0.94893363488E+02 -0.79438804704E+02 -0.47677713076E+03  0.49919043203E+03  0.80990004888E+02 0.  0.
          6    2    1    2  501    0 -0.75735655036E+02  0.41790946178E+02  0.56739943909E+02  0.20417545928E+03  0.17602790776E+03 0.  0.
         24    2    5    5    0    0  0.81339603966E+01 -0.21325111082E+01 -0.17432092521E+02  0.83813656859E+02  0.81548404712E+02 0.  0.
          5    1    5    5  501    0 -0.83869615433E+02  0.43923457286E+02  0.74172036430E+02  0.12036180242E+03  0.47000000000E+01 0. -1.
        -11    1    6    6    0    0  0.17590880445E+02  0.19283623470E+02 -0.42271268096E+02  0.49680552689E+02  0.00000000000E+00 0.  1.
         12    1    6    6    0    0 -0.94569200488E+01 -0.21416134578E+02  0.24839175575E+02  0.34133104171E+02  0.00000000000E+00 0. -1.
         -5    1    3    3    0  503 -0.19157708452E+02  0.37647858525E+02 -0.20670701709E+03  0.21103141936E+03  0.47000000000E+01 0.  1.
         11    1    4    4    0    0  0.24404115005E+02 -0.73006964403E+02 -0.23747974775E+03  0.24964416330E+03  0.00000000000E+00 0. -1.
        -12    1    4    4    0    0  0.70489248483E+02 -0.64318403001E+01 -0.23929738301E+03  0.24954626873E+03  0.00000000000E+00 0.  1.
</event>
<event>
12    1  0.8461994E-002  0.2590289E+03  0.7818608E-02  0.1107763E+00
         21   -1    0    0  503  502  0.00000000000E+00  0.00000000000E+00  0.12976685352E+03  0.12976685352E+03  0.00000000000E+00 0.  1.
         21   -1    0    0  501  503 -0.00000000000E+00 -0.00000000000E+00 -0.53989651471E+03  0.53989651471E+03  0.00000000000E+00 0.  1.
          6    2    1    2  501    0 -0.17582521799E+03 -0.80520321635E+02 -0.13541314508E+03  0.29208536773E+03  0.17198579215E+03 0.  0.
         24    2    3    3    0    0 -0.75264339826E+02 -0.72675538226E+02 -0.12972897160E+03  0.19094966349E+03  0.93197173820E+02 0.  0.
         -6    2    1    2    0  502  0.17582521799E+03  0.80520321635E+02 -0.27471651611E+03  0.37757800050E+03  0.17233093966E+03 0.  0.
        -24    2    5    5    0    0  0.15846699918E+03  0.41969806997E+02 -0.12263133548E+03  0.21965573448E+03  0.79604916438E+02 0.  0.
          5    1    3    3  501    0 -0.10056087816E+03 -0.78447834088E+01 -0.56841734798E+01  0.10113570424E+03  0.47000000000E+01 0. -1.
        -11    1    4    4    0    0  0.41365331986E+01 -0.41212805433E+02 -0.79014882996E+01  0.42166808699E+02  0.00000000000E+00 0.  1.
         12    1    4    4    0    0 -0.79400873025E+02 -0.31462732793E+02 -0.12182748330E+03  0.14878285479E+03  0.00000000000E+00 0. -1.
         -5    1    5    5    0  502  0.17358218812E+02  0.38550514639E+02 -0.15208518063E+03  0.15792226602E+03  0.47000000000E+01 0.  1.
         13    1    6    6    0    0  0.77522894926E+02  0.23782478110E+02 -0.12925358170E+02  0.82112547072E+02  0.00000000000E+00 0. -1.
        -14    1    6    6    0    0  0.80944104251E+02  0.18187328887E+02 -0.10970597731E+03  0.13754318741E+03  0.00000000000E+00 0.  1.
</event>
<event>
12    1  0.8461994E-002  0.1773840E+03  0.7818608E-02  0.1170427E+00
         21   -1    0    0  501  502  0.00000000000E+00  0.00000000000E+00  0.21889125735E+03  0.21889125735E+03  0.00000000000E+00 0. -1.
         21   -1    0    0  502  503 -0.00000000000E+00 -0.00000000000E+00 -0.15707677408E+03  0.15707677408E+03  0.00000000000E+00 0. -1.
         -6    2    1    2    0  503 -0.28489122098E+02 -0.33466318514E+02 -0.24328904360E+02  0.17877330106E+03  0.17157031513E+03 0.  0.
        -24    2    3    3    0    0 -0.58636642157E+02 -0.72203706843E+02  0.12236565629E+01  0.12323519172E+03  0.80831825766E+02 0.  0.
          6    2    1    2  501    0  0.28489122098E+02  0.33466318514E+02  0.86143387625E+02  0.19719473037E+03  0.17185300085E+03 0.  0.
         24    2    5    5    0    0  0.47104855655E+02 -0.53443089508E+01 -0.68145902733E+01  0.94646761129E+02  0.81634194350E+02 0.  0.
          5    1    5    5  501    0 -0.18615733557E+02  0.38810627465E+02  0.92957977898E+02  0.10254796924E+03  0.47000000000E+01 0. -1.
        -13    1    6    6    0    0  0.38882417244E+02  0.23921299696E+02  0.23817427600E+02  0.51491172130E+02  0.00000000000E+00 0.  1.
         14    1    6    6    0    0  0.82224384117E+01 -0.29265608646E+02 -0.30632017873E+02  0.43155588999E+02  0.00000000000E+00 0. -1.
         -5    1    3    3    0  503  0.30147520059E+02  0.38737388329E+02 -0.25552560923E+02  0.55538109348E+02  0.47000000000E+01 0.  1.
         11    1    4    4    0    0 -0.35128704125E+01 -0.18288541308E+02 -0.33765820049E+02  0.38560881801E+02  0.00000000000E+00 0. -1.
        -12    1    4    4    0    0 -0.55123771744E+02 -0.53915165535E+02  0.34989476612E+02  0.84674309915E+02  0.00000000000E+00 0.  1.
</event>
<event>
12    1  0.8461994E-002  0.1817491E+03  0.7818608E-02  0.1166381E+00
         21   -1    0    0  503  502  0.00000000000E+00  0.00000000000E+00  0.15237228655E+03  0.15237228655E+03  0.00000000000E+00 0. -1.
         21   -1    0    0  501  503 -0.00000000000E+00 -0.00000000000E+00 -0.21879539831E+03  0.21879539831E+03  0.00000000000E+00 0. -1.
          6    2    1    2  501    0 -0.49249668948E+02 -0.32939350801E+02 -0.10321734412E+02  0.18095700895E+03  0.17067035526E+03 0.  0.
         24    2    3    3    0    0 -0.65532426261E+02 -0.53738325609E+02 -0.55133808918E+02  0.12872734726E+03  0.79678645289E+02 0.  0.
         -6    2    1    2    0  502  0.49249668948E+02  0.32939350801E+02 -0.56101377349E+02  0.19021067591E+03  0.17182027228E+03 0.  0.
        -24    2    5    5    0    0  0.47161234192E+02  0.77829779069E+01 -0.10159655138E+03  0.13796983445E+03  0.80181414368E+02 0.  0.
          5    1    3    3  501    0  0.16282757313E+02  0.20798974807E+02  0.44812074506E+02  0.52229661690E+02  0.47000000000E+01 0. -1.
        -13    1    4    4    0    0 -0.40057516909E+02  0.12442394620E+02 -0.58091964440E+01  0.42345774383E+02  0.00000000000E+00 0.  1.
         14    1    4    4    0    0 -0.25474909352E+02 -0.66180720228E+02 -0.49324612474E+02  0.86381572873E+02  0.00000000000E+00 0. -1.
         -5    1    5    5    0  502  0.20884347559E+01  0.25156372894E+02  0.45495174028E+02  0.52240841463E+02  0.47000000000E+01 0.  1.
         11    1    6    6    0    0 -0.14700429802E+02  0.97631699221E+01 -0.62074663141E+02  0.64534377873E+02  0.00000000000E+00 0. -1.
        -12    1    6    6    0    0  0.61861663994E+02 -0.19801920152E+01 -0.39521888235E+02  0.73435456574E+02  0.00000000000E+00 0.  1.
</event>
<event>
12    1  0.8461994E-002  0.1929880E+03  0.7818608E-02  0.1156200E+00
         21   -1    0    0  501  502  0.00000000000E+00  0.00000000000E+00  0.61172508720E+02  0.61172508720E+02  0.00000000000E+00 0.  1.
         21   -1    0    0  502  503 -0.00000000000E+00 -0.00000000000E+00 -0.10063375148E+04  0.10063375148E+04  0.00000000000E+00 0. -1.
         -6    2    1    2    0  503  0.75049505184E+02 -0.42409087077E+02 -0.81180892525E+03  0.83443280372E+03  0.17266561302E+03 0.  0.
        -24    2    3    3    0    0 -0.58133659240E+01  0.11854904836E+02 -0.53000002903E+03  0.53623533772E+03  0.80461000836E+02 0.  0.
          6    2    1    2  501    0 -0.75049505184E+02  0.42409087077E+02 -0.13335608082E+03  0.23307721978E+03  0.17061707768E+03 0.  0.
         24    2    5    5    0    0 -0.53291545743E+02  0.87742287995E+02 -0.12816353684E+03  0.18230753968E+03  0.79192480070E+02 0.  0.
          5    1    5    5  501    0 -0.21757959441E+02 -0.45333200918E+02 -0.51925439766E+01  0.50769680100E+02  0.47000000000E+01 0. -1.
        -11    1    6    6    0    0 -0.10175814565E+02  0.22647073432E+02  0.73643440629E+01  0.25897310682E+02  0.00000000000E+00 0.  1.
         12    1    6    6    0    0 -0.43115731179E+02  0.65095214564E+02 -0.13552788090E+03  0.15641022900E+03  0.00000000000E+00 0. -1.
         -5    1    3    3    0  503  0.80862871109E+02 -0.54263991914E+02 -0.28180889621E+03  0.29819746600E+03  0.47000000000E+01 0.  1.
         13    1    4    4    0    0  0.47306772075E+01  0.10584895321E+01 -0.51477709497E+03  0.51479991959E+03  0.00000000000E+00 0. -1.
        -14    1    4    4    0    0 -0.10544043132E+02  0.10796415304E+02 -0.15222934068E+02  0.21435418135E+02  0.00000000000E+00 0.  1.
</event>
<event>
12    1  0.8461994E-002  0.2105532E+03  0.7818608E-02  0.1142701E+00
         21   -1    0    0  503  502  0.00000000000E+00  0.00000000000E+00  0.24516693649E+03  0.24516693649E+03  0.00000000000E+00 0. -1.
         21   -1    0    0  501  503 -0.00000000000E+00 -0.00000000000E+00 -0.52081536722E+03  0.52081536722E+03  0.00000000000E+00 0. -1.
          6    2    1    2  501    0  0.11115091243E+03  0.65900251825E+02 -0.45112754782E+03  0.49784405734E+03  0.16623860113E+03 0.  0.
         24    2    3    3    0    0  0.49590551922E+02 -0.14013351881E+02 -0.12369187162E+03  0.15518960444E+03  0.78284975263E+02 0.  0.
         -6    2    1    2    0  502 -0.11115091243E+03 -0.65900251825E+02  0.17547911709E+03  0.26813824637E+03  0.15623005506E+03 0.  0.
        -24    2    5    5    0    0 -0.90461482083E+02 -0.42941087668E+02  0.19306197090E+03  0.23227151395E+03  0.81547009957E+02 0.  0.
          5    1    3    3  501    0  0.61560360510E+02  0.79913603706E+02 -0.32743567620E+03  0.34265445290E+03  0.47000000000E+01 0. -1.
        -11    1    4    4    0    0  0.70165015957E+02 -0.94561601309E+01 -0.10701898107E+03  0.12831839594E+03  0.00000000000E+00 0.  1.
         12    1    4    4    0    0 -0.20574464034E+02 -0.45571917500E+01 -0.16672890549E+02  0.26871208499E+02  0.00000000000E+00 0. -1.
         -5    1    5    5    0  502 -0.20689430349E+02 -0.22959164157E+02 -0.17582853803E+02  0.35866732425E+02  0.47000000000E+01 0.  1.
         13    1    6    6    0    0 -0.17609820237E+02 -0.51237600118E+02  0.10063849713E+03  0.11429568906E+03  0.00000000000E+00 0. -1.
        -14    1    6    6    0    0 -0.72851661846E+02  0.82965124504E+01  0.92423473770E+02  0.11797582488E+03  0.00000000000E+00 0.  1.
</event>
<event>
12    1  0.8461994E-002  0.1920776E+03  0.7818608E-02  0.1156765E+00
         21   -1    0    0  503  502  0.00000000000E+00  0.00000000000E+00  0.15690465034E+03  0.15690465034E+03  0.00000000000E+00 0.  1.
         21   -1    0    0  501  503 -0.00000000000E+00 -0.00000000000E+00 -0.59443684814E+03  0.59443684814E+03  0.00000000000E+00 0.  1.
          6    2    1    2  501    0 -0.65724659860E+02 -0.54741843800E+02 -0.51103414905E+03  0.54568079314E+03  0.17115848249E+03 0.  0.
         24    2    3    3    0    0 -0.77728944031E+02 -0.95822071620E+02 -0.41449660383E+03  0.43997707706E+03  0.80924258420E+02 0.  0.
         -6    2    1    2    0  502  0.65724659860E+02  0.54741843800E+02  0.73501951238E+02  0.20566070534E+03  0.17198077948E+03 0.  0.
        -24    2    5    5    0    0  0.22562911015E+02  0.91930256084E+02  0.82441301598E+02  0.14779952184E+03  0.78024826245E+02 0.  0.
          5    1    3    3  501    0  0.12004284170E+02  0.41080227820E+02 -0.96537545212E+02  0.10570371607E+03  0.47000000000E+01 0. -1.
        -13    1    4    4    0    0 -0.70573862187E+02 -0.38027750475E+02 -0.31156487615E+03  0.32171330697E+03  0.00000000000E+00 0.  1.
         14    1    4    4    0    0 -0.71550818436E+01 -0.57794321146E+02 -0.10293172768E+03  0.11826377010E+03  0.00000000000E+00 0. -1.
         -5    1    5    5    0  502  0.43161748845E+02 -0.37188412283E+02 -0.89393503600E+01  0.57861183503E+02  0.47000000000E+01 0.  1.
         13    1    6    6    0    0 -0.26878818008E+02  0.40722345569E+02  0.18712236077E+02  0.52258282263E+02  0.00000000000E+00 0. -1.
        -14    1    6    6    0    0  0.49441729023E+02  0.51207910515E+02  0.63729065521E+02  0.95541239579E+02  0.00000000000E+00 0.  1.
</event>
<event>
12    1  0.8461994E-002  0.1765726E+03  0.7818608E-02  0.1171500E+00
         21   -1    0    0  501  502  0.00000000000E+00  0.00000000000E+00  0.13665406171E+04  0.13665406171E+04  0.00000000000E+00 0. -1.
         21   -1    0    0  502  503 -0.00000000000E+00 -0.00000000000E+00 -0.96930064139E+02  0.96930064139E+02  0.00000000000E+00 0. -1.
         -6    2    1    2    0  503 -0.36819373220E+02 -0.19623170078E+02 -0.63676915365E+01  0.17533312690E+03  0.17017762146E+03 0.  0.
        -24    2    3    3    0    0  0.19849634612E+02  0.37519736542E+02 -0.17252993324E+02  0.93986534961E+02  0.82061345047E+02 0.  0.
          6    2    1    2  501    0  0.36819373220E+02  0.19623170078E+02  0.12759782445E+04  0.12881375544E+04  0.17157256020E+03 0.  0.
         24    2    5    5    0    0  0.62283650056E+02  0.15266443757E+02  0.12359129828E+04  0.12402342596E+04  0.81165263926E+02 0.  0.
          5    1    5    5  501    0 -0.25464276837E+02  0.43567263209E+01  0.40065261687E+02  0.47903294804E+02  0.47000000000E+01 0. -1.
        -11    1    6    6    0    0 -0.59532416068E+01 -0.82384481676E+01  0.62356660001E+03  0.62364943499E+03  0.00000000000E+00 0.  1.
         12    1    6    6    0    0  0.68236891663E+02  0.23504891924E+02  0.61234638282E+03  0.61658482456E+03  0.00000000000E+00 0. -1.
         -5    1    3    3    0  503 -0.56669007832E+02 -0.57142906620E+02  0.10885301787E+02  0.81346591942E+02  0.47000000000E+01 0.  1.
         11    1    4    4    0    0 -0.25541285383E+02  0.61050219184E+01  0.14809765278E+02  0.30148925341E+02  0.00000000000E+00 0. -1.
        -12    1    4    4    0    0  0.45390919995E+02  0.31414714624E+02 -0.32062758602E+02  0.63837609620E+02  0.00000000000E+00 0.  1.
</event>
<event>
12    1  0.8461994E-002  0.2067414E+03  0.7818608E-02  0.1144255E+00
         21   -1    0    0  501  502  0.00000000000E+00  0.00000000000E+00  0.94350171243E+03  0.94350171243E+03  0.00000000000E+00 0.  1.
         21   -1    0    0  502  503 -0.00000000000E+00 -0.00000000000E+00 -0.15527957082E+03  0.15527957082E+03  0.00000000000E+00 0. -1.
         -6    2    1    2    0  503 -0.83773210424E+02  0.77555879750E+02 -0.68319502158E+02  0.21773737350E+03  0.17236340730E+03 0.  0.
        -24    2    3    3    0    0 -0.23685607311E+02  0.10803216578E+03 -0.25383870522E+02  0.13770686356E+03  0.78018475701E+02 0.  0.
          6    2    1    2  501    0  0.83773210424E+02 -0.77555879750E+02  0.85654164376E+03  0.88104390975E+03  0.17187762545E+03 0.  0.
         24    2    5    5    0    0  0.76237988850E+02 -0.11726772409E+03  0.75152225875E+03  0.76841633153E+03  0.78192091128E+02 0.  0.
          5    1    5    5  501    0  0.75352215742E+01  0.39711844340E+02  0.10501938502E+03  0.11262757821E+03  0.47000000000E+01 0. -1.
        -11    1    6    6    0    0  0.58676085499E+02 -0.10729201457E+03  0.45313005639E+03  0.46934135488E+03  0.00000000000E+00 0.  1.
         12    1    6    6    0    0  0.17561903352E+02 -0.99757095225E+01  0.29839220236E+03  0.29907497665E+03  0.00000000000E+00 0. -1.
         -5    1    3    3    0  503 -0.60087603113E+02 -0.30476286032E+02 -0.42935631637E+02  0.80030509946E+02  0.47000000000E+01 0.  1.
         13    1    4    4    0    0 -0.48356616631E+02  0.72729974178E+02 -0.34110258173E+02  0.93763112302E+02  0.00000000000E+00 0. -1.
        -14    1    4    4    0    0  0.24671009320E+02  0.35302191604E+02  0.87263876513E+01  0.43943751255E+02  0.00000000000E+00 0.  1.
</event>
<event>
12    1  0.8461994E-002  0.1875178E+03  0.7818608E-02  0.1161132E+00
         21   -1    0    0  501  502  0.00000000000E+00  0.00000000000E+00  0.16787100946E+04  0.16787100946E+04  0.00000000000E+00 0. -1.
         21   -1    0    0  502  503 -0.00000000000E+00 -0.00000000000E+00 -0.14040827913E+03  0.14040827913E+03  0.00000000000E+00 0. -1.
         -6    2    1    2    0  503 -0.38144580189E+02 -0.61559697944E+02 -0.69978181359E+02  0.20014963866E+03  0.17296914922E+03 0.  0.
        -24    2    3    3    0    0 -0.66540458144E+02  0.43683910192E+01 -0.75298925569E+02  0.12801615741E+03  0.79192758226E+02 0.  0.
          6    2    1    2  501    0  0.38144580189E+02  0.61559697944E+02  0.16082799969E+04  0.16189687351E+04  0.17102810161E+03 0.  0.
         24    2    5    5    0    0  0.11200486931E+02  0.26803334348E+02  0.14936505566E+04  0.14961030053E+04  0.80550281027E+02 0.  0.
          5    1    5    5  501    0  0.26944093258E+02  0.34756363596E+02  0.11462944028E+03  0.12286572976E+03  0.47000000000E+01 0. -1.
        -11    1    6    6    0    0 -0.72204798713E+01 -0.25321714446E+02  0.29314767079E+03  0.29432784687E+03  0.00000000000E+00 0.  1.
         12    1    6    6    0    0  0.18420966802E+02  0.52125048794E+02  0.12005028858E+04  0.12017751585E+04  0.00000000000E+00 0. -1.
         -5    1    3    3    0  503  0.28395877955E+02 -0.65928088963E+02  0.53207442099E+01  0.72133481256E+02  0.47000000000E+01 0.  1.
         11    1    4    4    0    0  0.18189258660E+02 -0.13375634090E+01 -0.93567111636E+01  0.20498445070E+02  0.00000000000E+00 0. -1.
        -12    1    4    4    0    0 -0.84729716804E+02  0.57059544282E+01 -0.65942214406E+02  0.10751771234E+03  0.00000000000E+00 0.  1.
</event>
<event>
12    1  0.8461994E-002  0.3040185E+03  0.7818608E-02  0.1083297E+00
         21   -1    0    0  501  502  0.00000000000E+00  0.00000000000E+00  0.20254858872E+03  0.20254858872E+03  0.00000000000E+00 0.  1.
         21   -1    0    0  502  503 -0.00000000000E+00 -0.00000000000E+00 -0.53599212046E+03  0.53599212046E+03  0.00000000000E+00 0.  1.
         -6    2    1    2    0  503 -0.33172126538E+02 -0.24862498948E+03 -0.23921978404E+02  0.30495816947E+03  0.17179187613E+03 0.  0.
        -24    2    3    3    0    0  0.30697541558E+02 -0.14699487323E+03  0.35401442850E+02  0.17098289809E+03  0.73702492978E+02 0.  0.
          6    2    1    2  501    0  0.33172126538E+02  0.24862498948E+03 -0.30952155334E+03  0.43358253971E+03  0.17110070541E+03 0.  0.
         24    2    5    5    0    0 -0.20468965796E+02  0.56139802442E+02 -0.14148164174E+03  0.17245533718E+03  0.78441904565E+02 0.  0.
          5    1    5    5  501    0  0.53641092334E+02  0.19248518703E+03 -0.16803991160E+03  0.26112720254E+03  0.47000000000E+01 0. -1.
        -13    1    6    6    0    0  0.63853608200E+01 -0.15814782904E+02 -0.50981687828E+02  0.53758838203E+02  0.00000000000E+00 0.  1.
         14    1    6    6    0    0 -0.26854326616E+02  0.71954585346E+02 -0.90499953915E+02  0.11869649897E+03  0.00000000000E+00 0. -1.
         -5    1    3    3    0  503 -0.63869668096E+02 -0.10163011625E+03 -0.59323421254E+02  0.13397527138E+03  0.47000000000E+01 0.  1.
         13    1    4    4    0    0 -0.59532914278E+01 -0.32787620749E+02 -0.19997170829E+02  0.38863306529E+02  0.00000000000E+00 0. -1.
        -14    1    4    4    0    0  0.36650832986E+02 -0.11420725248E+03  0.55398613679E+02  0.13211959156E+03  0.00000000000E+00 0.  1.
</event>
<event>
12    1  0.8461994E-002  0.2732074E+03  0.7818608E-02  0.1100219E+00
         21   -1    0    0  501  502  0.00000000000E+00  0.00000000000E+00  0.79904402104E+02  0.79904402104E+02  0.00000000000E+00 0. -1.
         21   -1    0    0  502  503 -0.00000000000E+00 -0.00000000000E+00 -0.10492485275E+04  0.10492485275E+04  0.00000000000E+00 0. -1.
         -6    2    1    2    0  503  0.20469397071E+03 -0.45547001395E+02 -0.68170260141E+03  0.73244150689E+03  0.16666725313E+03 0.  0.
        -24    2    3    3    0    0  0.21875269500E+03 -0.26037128699E+02 -0.65330365052E+03  0.69493319751E+03  0.87153976241E+02 0.  0.
          6    2    1    2  501    0 -0.20469397071E+03  0.45547001395E+02 -0.28764152394E+03  0.39671142266E+03  0.17512325830E+03 0.  0.
         24    2    5    5    0    0 -0.55110482056E+02 -0.30581015416E+02 -0.13663690889E+03  0.17089030145E+03  0.81003003161E+02 0.  0.
          5    1    5    5  501    0 -0.14958348866E+03  0.76128016810E+02 -0.15100461505E+03  0.22582112122E+03  0.47000000000E+01 0. -1.
        -11    1    6    6    0    0 -0.71365291667E+02 -0.13866382189E+02 -0.72606737973E+02  0.10274735913E+03  0.00000000000E+00 0.  1.
         12    1    6    6    0    0  0.16254809611E+02 -0.16714633227E+02 -0.64030170918E+02  0.68142942314E+02  0.00000000000E+00 0. -1.
         -5    1    3    3    0  503 -0.14058724288E+02 -0.19509872696E+02 -0.28398950892E+02  0.37508309386E+02  0.47000000000E+01 0.  1.
         11    1    4    4    0    0  0.10894504337E+03 -0.46403181136E+02 -0.41837505161E+03  0.43481025920E+03  0.00000000000E+00 0. -1.
        -12    1    4    4    0    0  0.10980765163E+03  0.20366052437E+02 -0.23492859891E+03  0.26012293831E+03  0.00000000000E+00 0.  1.
</event>
<event>
12    1  0.8461994E-002  0.1746630E+03  0.7818608E-02  0.1174428E+00
         21   -1    0    0  503  502  0.00000000000E+00  0.00000000000E+00  0.50908265595E+03  0.50908265595E+03  0.00000000000E+00 0.  1.
         21   -1    0    0  501  503 -0.00000000000E+00 -0.00000000000E+00 -0.20521776190E+03  0.20521776190E+03  0.00000000000E+00 0.  1.
          6    2    1    2  501    0 -0.16325063809E+02  0.27091194655E+02 -0.14976972034E+03  0.23008287104E+03  0.17177519577E+03 0.  0.
         24    2    3    3    0    0 -0.14139382168E+02 -0.50983329279E+02 -0.80355359605E+02  0.12548434348E+03  0.80561247815E+02 0.  0.
         -6    2    1    2    0  502  0.16325063809E+02 -0.27091194655E+02  0.45363461439E+03  0.48421754682E+03  0.16637857054E+03 0.  0.
        -24    2    5    5    0    0  0.66751505955E+02 -0.41673385160E+02  0.25243764446E+03  0.27623250636E+03  0.79919951504E+02 0.  0.
          5    1    3    3  501    0 -0.21856816410E+01  0.78074523934E+02 -0.69414360732E+02  0.10459852756E+03  0.47000000000E+01 0. -1.
        -11    1    4    4    0    0  0.61637495284E+01 -0.17423173141E+02  0.14075697234E+02  0.23231100344E+02  0.00000000000E+00 0.  1.
         12    1    4    4    0    0 -0.20303131697E+02 -0.33560156138E+02 -0.94431056839E+02  0.10225324314E+03  0.00000000000E+00 0. -1.
         -5    1    5    5    0  502 -0.50426442145E+02  0.14582190505E+02  0.20119696993E+03  0.20798504046E+03  0.47000000000E+01 0.  1.
         11    1    6    6    0    0  0.78762732405E+01 -0.50762457636E+02  0.13731987048E+03  0.14661381113E+03  0.00000000000E+00 0. -1.
        -12    1    6    6    0    0  0.58875232714E+02  0.90890724756E+01  0.11511777398E+03  0.12961869523E+03  0.00000000000E+00 0.  1.
</event>
<event>
12    1  0.8461994E-002  0.2146756E+03  0.7818608E-02  0.1138085E+00
         21   -1    0    0  503  502  0.00000000000E+00  0.00000000000E+00  0.38899823431E+03  0.38899823431E+03  0.00000000000E+00 0. -1.
         21   -1    0    0  501  503 -0.00000000000E+00 -0.00000000000E+00 -0.19044952821E+03  0.19044952821E+03  0.00000000000E+00 0. -1.
          6    2    1    2  501    0  0.75012753599E+02  0.10330297201E+03 -0.79306311182E+02  0.22885606569E+03  0.17258965954E+03 0.  0.
         24    2    3    3    0    0  0.47175739191E+02 -0.43036845803E+01 -0.15054009826E+01  0.93102010348E+02  0.80135173486E+02 0.  0.
         -6    2    1    2    0  502 -0.75012753599E+02 -0.10330297201E+03  0.27785501728E+03  0.35059169682E+03  0.17150134117E+03 0.  0.
        -24    2    5    5    0    0 -0.85235467806E+01 -0.19496056265E+02  0.20540166664E+03  0.22130135778E+03  0.79571975197E+02 0.  0.
          5    1    3    3  501    0  0.27837014408E+02  0.10760665659E+03 -0.77800910199E+02  0.13575405534E+03  0.47000000000E+01 0. -1.
        -11    1    4    4    0    0  0.41032634543E+02 -0.29317374584E+02  0.24876247307E+02  0.56231781317E+02  0.00000000000E+00 0.  1.
         12    1    4    4    0    0  0.61431046474E+01  0.25013690004E+02 -0.26381648290E+02  0.36870229031E+02  0.00000000000E+00 0. -1.
         -5    1    5    5    0  502 -0.66489206818E+02 -0.83806915748E+02  0.72453350644E+02  0.12929033904E+03  0.47000000000E+01 0.  1.
         11    1    6    6    0    0 -0.33497933608E+02 -0.45205625882E+00  0.36659133682E+02  0.49660930249E+02  0.00000000000E+00 0. -1.
        -12    1    6    6    0    0  0.24974386828E+02 -0.19044000006E+02  0.16874253296E+03  0.17164042753E+03  0.00000000000E+00 0.  1.
</event>
<event>
12    1  0.8461994E-002  0.2747334E+03  0.7818608E-02  0.1098982E+00
         21   -1    0    0  501  502  0.00000000000E+00  0.00000000000E+00  0.87389415628E+02  0.87389415628E+02  0.00000000000E+00 0. -1.
         21   -1    0    0  502  503 -0.00000000000E+00 -0.00000000000E+00 -0.94631968131E+03  0.94631968131E+03  0.00000000000E+00 0.  1.
         -6    2    1    2    0  503 -0.19866136250E+03  0.80439484146E+02 -0.58791267986E+03  0.64779591943E+03  0.16751533221E+03 0.  0.
        -24    2    3    3    0    0 -0.87529990111E+02  0.40373636782E+02 -0.43530518445E+03  0.45475035043E+03  0.89530709205E+02 0.  0.
          6    2    1    2  501    0  0.19866136250E+03 -0.80439484146E+02 -0.27101758582E+03  0.38591317751E+03  0.17187670346E+03 0.  0.
         24    2    5    5    0    0  0.13464997309E+03 -0.88608514669E+02 -0.26531687528E+03  0.32096104795E+03  0.81491507950E+02 0.  0.
          5    1    5    5  501    0  0.64011389407E+02  0.81690305232E+01 -0.57007105399E+01  0.64952129558E+02  0.47000000000E+01 0. -1.
        -13    1    6    6    0    0 -0.66987126617E+01  0.25975138094E+00 -0.39816756515E+02  0.40377150983E+02  0.00000000000E+00 0.  1.
         14    1    6    6    0    0  0.14134868575E+03 -0.88868266050E+02 -0.22550011877E+03  0.28058389697E+03  0.00000000000E+00 0. -1.
         -5    1    3    3    0  503 -0.11113137239E+03  0.40065847364E+02 -0.15260749541E+03  0.19304556899E+03  0.47000000000E+01 0.  1.
         11    1    4    4    0    0 -0.10075947393E+03  0.41856093734E+02 -0.42219841144E+03  0.43606869045E+03  0.00000000000E+00 0. -1.
        -12    1    4    4    0    0  0.13229483822E+02 -0.14824569520E+01 -0.13106773014E+02  0.18681659982E+02  0.00000000000E+00 0.  1.
</event>
<event>
12    1  0.8461994E-002  0.1775565E+03  0.7818608E-02  0.1173080E+00
         21   -1    0    0  503  502  0.00000000000E+00  0.00000000000E+00  0.66603658240E+02  0.66603658240E+02  0.00000000000E+00 0. -1.
         21   -1    0    0  501  503 -0.00000000000E+00 -0.00000000000E+00 -0.67400718695E+03  0.67400718695E+03  0.00000000000E+00 0. -1.
          6    2    1    2  501    0  0.39043522110E+02  0.19483413089E+02 -0.52671195282E+03  0.55583430999E+03  0.17211129807E+03 0.  0.
         24    2    3    3    0    0  0.29874556631E+02  0.25385124450E+02 -0.53439535965E+03  0.54169129527E+03  0.79461722051E+02 0.  0.
         -6    2    1    2    0  502 -0.39043522110E+02 -0.19483413089E+02 -0.80691575890E+02  0.18477653519E+03  0.16039712446E+03 0.  0.
        -24    2    5    5    0    0 -0.29135344068E+02 -0.65786332074E+02 -0.23940307999E+02  0.11071623067E+03  0.80673636495E+02 0.  0.
          5    1    3    3  501    0  0.91689654793E+01 -0.59017113603E+01  0.76834068370E+01  0.14143014727E+02  0.47000000000E+01 0. -1.
        -13    1    4    4    0    0  0.55425881811E+02  0.77294888598E+01 -0.29199374264E+03  0.29730812151E+03  0.00000000000E+00 0.  1.
         14    1    4    4    0    0 -0.25551325180E+02  0.17655635590E+02 -0.24240161701E+03  0.24438317376E+03  0.00000000000E+00 0. -1.
         -5    1    5    5    0  502 -0.99081780423E+01  0.46302918984E+02 -0.56751267890E+02  0.74060304521E+02  0.47000000000E+01 0.  1.
         13    1    6    6    0    0 -0.31584656593E+02  0.15287744185E+01  0.12652341076E+02  0.34058910993E+02  0.00000000000E+00 0. -1.
        -14    1    6    6    0    0  0.24493125254E+01 -0.67315106492E+02 -0.36592649075E+02  0.76657319678E+02  0.00000000000E+00 0.  1.
</event>
<event>
12    1  0.8461994E-002  0.3247355E+03  0.7818608E-02  0.1073762E+00
         21   -1    0    0  501  502  0.00000000000E+00  0.00000000000E+00  0.18417411240E+04  0.18417411240E+04  0.00000000000E+00 0. -1.
         21   -1    0    0  502  503 -0.00000000000E+00 -0.00000000000E+00 -0.60769009265E+02  0.60769009265E+02  0.00000000000E+00 0.  1.
         -6    2    1    2    0  503 -0.10343570370E+03 -0.25497590217E+03  0.11355682182E+04  0.11810877781E+04  0.17245725863E+03 0.  0.
        -24    2    3    3    0    0 -0.12032625882E+03 -0.14141956428E+03  0.83988014659E+03  0.86385937714E+03  0.79852746358E+02 0.  0.
          6    2    1    2  501    0  0.10343570370E+03  0.25497590217E+03  0.64540389652E+03  0.72142235508E+03  0.16790583458E+03 0.  0.
         24    2    5    5    0    0  0.13286739476E+03  0.15928889369E+03  0.45131845452E+03  0.50298820751E+03  0.79259657198E+02 0.  0.
          5    1    5    5  501    0 -0.29431691066E+02  0.95687008479E+02  0.19408544200E+03  0.21843414757E+03  0.47000000000E+01 0. -1.
        -11    1    6    6    0    0  0.32529617841E+02  0.48788201044E+00  0.91078866057E+02  0.96714910474E+02  0.00000000000E+00 0.  1.
         12    1    6    6    0    0  0.10033777692E+03  0.15880101168E+03  0.36023958846E+03  0.40627329704E+03  0.00000000000E+00 0. -1.
         -5    1    3    3    0  503  0.16890555128E+02 -0.11355633789E+03  0.29568807158E+03  0.31722840100E+03  0.47000000000E+01 0.  1.
         13    1    4    4    0    0 -0.69299117364E+02 -0.10620692108E+03  0.39972720546E+03  0.41936155825E+03  0.00000000000E+00 0. -1.
        -14    1    4    4    0    0 -0.51027141460E+02 -0.35212643203E+02  0.44015294113E+03  0.44449781889E+03  0.00000000000E+00 0.  1.
</event>
<event>
12    1  0.8461994E-002  0.2241123E+03  0.7818608E-02  0.1131162E+00
         21   -1    0    0  503  502  0.00000000000E+00  0.00000000000E+00  0.10693237962E+04  0.10693237962E+04  0.00000000000E+00 0.  1.
         21   -1    0    0  501  503 -0.00000000000E+00 -0.00000000000E+00 -0.46776777543E+02  0.46776777543E+02  0.00000000000E+00 0.  1.
          6    2    1    2  501    0  0.14049039897E+03 -0.14076547625E+02  0.54194598114E+03  0.58581416721E+03  0.17186358147E+03 0.  0.
         24    2    3    3    0    0  0.10833096024E+03  0.32699570658E+02  0.22212937464E+03  0.26096499216E+03  0.77177776499E+02 0.  0.
         -6    2    1    2    0  502 -0.14049039897E+03  0.14076547625E+02  0.48060103756E+03  0.53028640657E+03  0.17404199004E+03 0.  0.
        -24    2    5    5    0    0 -0.13063819845E+02 -0.77439464086E+01  0.28002899767E+03  0.29161319858E+03  0.79946144104E+02 0.  0.
          5    1    3    3  501    0  0.32159438735E+02 -0.46776118283E+02  0.31981660649E+03  0.32484917505E+03  0.47000000000E+01 0. -1.
        -11    1    4    4    0    0  0.39810638707E+02 -0.85667718631E+01  0.14208596526E+03  0.14780628558E+03  0.00000000000E+00 0.  1.
         12    1    4    4    0    0  0.68520321530E+02  0.41266342521E+02  0.80043409383E+02  0.11315870657E+03  0.00000000000E+00 0. -1.
         -5    1    5    5    0  502 -0.12742657913E+03  0.21820494034E+02  0.20057203989E+03  0.23867320799E+03  0.47000000000E+01 0.  1.
         13    1    6    6    0    0  0.66404466927E+01 -0.18169415692E+02  0.26261221073E+03  0.26332374831E+03  0.00000000000E+00 0. -1.
        -14    1    6    6    0    0 -0.19704266538E+02  0.10425469283E+02  0.17416786942E+02  0.28289450277E+02  0.00000000000E+00 0.  1.
</event>
<event>
12    1  0.8461994E-002  0.1926630E+03  0.7818608E-02  0.1156367E+00
         21   -1    0    0  501  502  0.00000000000E+00  0.00000000000E+00  0.12584106748E+03  0.12584106748E+03  0.00000000000E+00 0. -1.
         21   -1    0    0  502  503 -0.00000000000E+00 -0.00000000000E+00 -0.39243497300E+03  0.39243497300E+03  0.00000000000E+00 0. -1.
         -6    2    1    2    0  503 -0.85854054902E+02 -0.14992102388E+02 -0.26406794069E+03  0.32688060155E+03  0.17182365521E+03 0.  0.
        -24    2    3    3    0    0 -0.68839141606E+02 -0.58407210252E+01 -0.58931536534E+02  0.12078283502E+03  0.79640603958E+02 0.  0.
          6    2    1    2  501    0  0.85854054902E+02  0.14992102388E+02 -0.25259648302E+01  0.19139543894E+03  0.17038236902E+03 0.  0.
         24    2    5    5    0    0  0.28841743973E+02  0.70457352746E+02 -0.13435086776E+02  0.11097220513E+03  0.79613089402E+02 0.  0.
          5    1    5    5  501    0  0.57012310929E+02 -0.55465250358E+02  0.10909121946E+02  0.80423233810E+02  0.47000000000E+01 0. -1.
        -13    1    6    6    0    0 -0.26797895356E+02  0.21495001006E+02 -0.13351550571E+02  0.36856833375E+02  0.00000000000E+00 0.  1.
         14    1    6    6    0    0  0.55639639329E+02  0.48962351740E+02 -0.83536204498E-01  0.74115371758E+02  0.00000000000E+00 0. -1.
         -5    1    3    3    0  503 -0.17014913295E+02 -0.91513813623E+01 -0.20513640416E+03  0.20609776652E+03  0.47000000000E+01 0.  1.
         11    1    4    4    0    0 -0.65986775192E+02 -0.34508480893E+02 -0.31013286166E+02  0.80665442865E+02  0.00000000000E+00 0. -1.
        -12    1    4    4    0    0 -0.28523664144E+01  0.28667759868E+02 -0.27918250367E+02  0.40117392158E+02  0.00000000000E+00 0.  1.
</event>
<event>
12    1  0.8461994E-002  0.1987477E+03  0.7818608E-02  0.1150813E+00
         21   -1    0    0  501  502  0.00000000000E+00  0.00000000000E+00  0.10004726738E+03  0.10004726738E+03  0.00000000000E+00 0. -1.
         21   -1    0    0  502  503 -0.00000000000E+00 -0.00000000000E+00 -0.73828707878E+03  0.73828707878E+03  0.00000000000E+00 0.  1.
         -6    2    1    2    0  503  0.61756045684E+02  0.77435270891E+02 -0.60510175467E+03  0.63690562389E+03  0.17230963372E+03 0.  0.
        -24    2    3    3    0    0  0.39208479162E+02 -0.36091365825E+01 -0.46450263832E+03  0.47299470217E+03  0.80068449271E+02 0.  0.
          6    2    1    2  501    0 -0.61756045684E+02 -0.77435270891E+02 -0.33138056732E+02  0.20142872227E+03  0.17223637535E+03 0.  0.
         24    2    5    5    0    0  0.10473161849E+02 -0.94019937015E+01  0.24027134465E+02  0.86818363617E+02  0.82231626920E+02 0.  0.
          5    1    5    5  501    0 -0.72229207533E+02 -0.68033277190E+02 -0.57165191197E+02  0.11461035865E+03  0.47000000000E+01 0. -1.
        -13    1    6    6    0    0  0.29483970353E+02  0.60240542362E+00 -0.21487876256E+02  0.36488302592E+02  0.00000000000E+00 0.  1.
         14    1    6    6    0    0 -0.19010808504E+02 -0.10004399125E+02  0.45515010721E+02  0.50330061025E+02  0.00000000000E+00 0. -1.
         -5    1    3    3    0  503  0.22547566522E+02  0.81044407474E+02 -0.14059911636E+03  0.16391092172E+03  0.47000000000E+01 0.  1.
         13    1    4    4    0    0 -0.12618686410E+00 -0.29719081955E+02 -0.75517987820E+02  0.81155444918E+02  0.00000000000E+00 0. -1.
        -14    1    4    4    0    0  0.39334666027E+02  0.26109945373E+02 -0.38898465050E+03  0.39183925725E+03  0.00000000000E+00 0.  1.
</event>
<event>
12    1  0.8461994E-002  0.2577736E+03  0.7818608E-02  0.1108493E+00
         21   -1    0    0  501  502  0.00000000000E+00  0.00000000000E+00  0.12934733176E+03  0.12934733176E+03  0.00000000000E+00 0.  1.
         21   -1    0    0  502  503 -0.00000000000E+00 -0.00000000000E+00 -0.63409847690E+03  0.63409847690E+03  0.00000000000E+00 0.  1.
         -6    2    1    2    0  503 -0.16940140677E+03 -0.90606445742E+02 -0.41873407009E+03  0.49169925964E+03  0.17182425865E+03 0.  0.
        -24    2    3    3    0    0 -0.15154171770E+03 -0.31107043663E+02 -0.38131469986E+03  0.41902569768E+03  0.79051215119E+02 0.  0.
          6    2    1    2  501    0  0.16940140677E+03  0.90606445742E+02 -0.86017075054E+02  0.27174654902E+03  0.17187462022E+03 0.  0.
         24    2    5    5    0    0  0.50854696270E+02  0.35112601974E+02 -0.96972966952E+02  0.14031211353E+03  0.80402972161E+02 0.  0.
          5    1    5    5  501    0  0.11854671049E+03  0.55493843768E+02  0.10955891898E+02  0.13143443549E+03  0.47000000000E+01 0. -1.
        -11    1    6    6    0    0  0.41038390109E+02  0.21039505483E+02 -0.45854579355E+01  0.46344758908E+02  0.00000000000E+00 0.  1.
         12    1    6    6    0    0  0.98163061609E+01  0.14073096491E+02 -0.92387509017E+02  0.93967354617E+02  0.00000000000E+00 0. -1.
         -5    1    3    3    0  503 -0.17859689061E+02 -0.59499402079E+02 -0.37419370224E+02  0.72673561967E+02  0.47000000000E+01 0.  1.
         13    1    4    4    0    0 -0.27821544150E+02  0.24727936372E+02 -0.66790583019E+02  0.76462351103E+02  0.00000000000E+00 0. -1.
        -14    1    4    4    0    0 -0.12372017355E+03 -0.55834980035E+02 -0.31452411684E+03  0.34256334657E+03  0.00000000000E+00 0.  1.
</event>
<event>
12    1  0.8461994E-002  0.2312999E+03  0.7818608E-02  0.1125792E+00
         21   -1    0    0  501  502  0.00000000000E+00  0.00000000000E+00  0.16871406592E+03  0.16871406592E+03  0.00000000000E+00 0. -1.
         21   -1    0    0  502  503 -0.00000000000E+00 -0.00000000000E+00 -0.34091382993E+03  0.34091382993E+03  0.00000000000E+00 0. -1.
         -6    2    1    2    0  503  0.12673101804E+02 -0.15325990582E+03 -0.15407888218E+03  0.27761929739E+03  0.17228745197E+03 0.  0.
        -24    2    3    3    0    0  0.36952081369E+02 -0.31558135563E+02 -0.10871365509E+03  0.14540400492E+03  0.83440359579E+02 0.  0.
          6    2    1    2  501    0 -0.12673101804E+02  0.15325990582E+03 -0.18120881825E+02  0.23200859847E+03  0.17277273270E+03 0.  0.
         24    2    5    5    0    0 -0.11514471985E+02  0.71142017098E+02  0.52127656701E+02  0.12383449234E+03  0.86162168254E+02 0.  0.
          5    1    5    5  501    0 -0.11586298189E+01  0.82117888721E+02 -0.70248538525E+02  0.10817410613E+03  0.47000000000E+01 0. -1.
        -11    1    6    6    0    0  0.30374185550E+02  0.77225847430E+01 -0.57409436359E+00  0.31345797920E+02  0.00000000000E+00 0.  1.
         12    1    6    6    0    0 -0.41888657535E+02  0.63419432355E+02  0.52701751064E+02  0.92488694420E+02  0.00000000000E+00 0. -1.
         -5    1    3    3    0  503 -0.24278979565E+02 -0.12170177026E+03 -0.45365227093E+02  0.13221529246E+03  0.47000000000E+01 0.  1.
         13    1    4    4    0    0 -0.50935492990E+01 -0.35639448101E+02 -0.94021882386E+02  0.10067884024E+03  0.00000000000E+00 0. -1.
        -14    1    4    4    0    0  0.42045630668E+02  0.40813125375E+01 -0.14691772703E+02  0.44725164678E+02  0.00000000000E+00 0.  1.
</event>
<event>
12    1  0.8461994E-002  0.2363535E+03  0.7818608E-02  0.1124488E+00
         21   -1    0    0  503  502  0.00000000000E+00  0.00000000000E+00  0.23021112058E+04  0.23021112058E+04  0.00000000000E+00 0. -1.
         21   -1    0    0  501  503 -0.00000000000E+00 -0.00000000000E+00 -0.27106224718E+02  0.27106224718E+02  0.00000000000E+00 0. -1.
          6    2    1    2  501    0 -0.16017509256E+03 -0.19967861980E+02  0.65578877774E+03  0.69284213507E+03  0.15464969232E+03 0.  0.
         24    2    3    3    0    0 -0.48873290044E+02 -0.35814502375E+02  0.41807154317E+03  0.42983874942E+03  0.79411952691E+02 0.  0.
         -6    2    1    2    0  502  0.16017509256E+03  0.19967861980E+02  0.16192162033E+04  0.16363752954E+04  0.17265056786E+03 0.  0.
        -24    2    5    5    0    0  0.48945653601E+02  0.45057091536E+02  0.10923367942E+04  0.10972784031E+04  0.79965014177E+02 0.  0.
          5    1    3    3  501    0 -0.11130180252E+03  0.15846640395E+02  0.23771723457E+03  0.26300338566E+03  0.47000000000E+01 0. -1.
        -13    1    4    4    0    0 -0.39070777929E+02  0.58427233995E+01  0.32509077908E+03  0.32748233196E+03  0.00000000000E+00 0.  1.
         14    1    4    4    0    0 -0.98025121148E+01 -0.41657225775E+02  0.92980764090E+02  0.10235641745E+03  0.00000000000E+00 0. -1.
         -5    1    5    5    0  502  0.11122943896E+03 -0.25089229556E+02  0.52687940910E+03  0.53909689227E+03  0.47000000000E+01 0.  1.
         11    1    6    6    0    0  0.59710176288E+02  0.93602316771E+01  0.47712174234E+03  0.48093458610E+03  0.00000000000E+00 0. -1.
        -12    1    6    6    0    0 -0.10764522686E+02  0.35696859859E+02  0.61521505188E+03  0.61634381705E+03  0.00000000000E+00 0.  1.
</event>
<event>
12    1  0.8461994E-002  0.1824702E+03  0.7818608E-02  0.1165549E+00
         21   -1    0    0  503  502  0.00000000000E+00  0.00000000000E+00  0.17833227778E+03  0.17833227778E+03  0.00000000000E+00 0.  1.
         21   -1    0    0  501  503 -0.00000000000E+00 -0.00000000000E+00 -0.73408173286E+03  0.73408173286E+03  0.00000000000E+00 0.  1.
          6    2    1    2  501    0  0.23965449323E+02 -0.54278386140E+02 -0.67209035804E+03  0.69641999651E+03  0.17255398054E+03 0.  0.
         24    2    3    3    0    0  0.95729633658E+01 -0.90680329588E+02 -0.61657989213E+03  0.62833367655E+03  0.79485104985E+02 0.  0.
         -6    2    1    2    0  502 -0.23965449323E+02  0.54278386140E+02  0.11634090295E+03  0.21599401414E+03  0.17203988631E+03 0.  0.
        -24    2    5    5    0    0  0.19728139545E+02 -0.23822859656E+02  0.88783200290E+02  0.12223660761E+03  0.78119161884E+02 0.  0.
          5    1    3    3  501    0  0.14392485957E+02  0.36401943447E+02 -0.55510465915E+02  0.68086319954E+02  0.47000000000E+01 0. -1.
        -13    1    4    4    0    0  0.25129953404E+02 -0.77752441399E+02 -0.29469426782E+03  0.30581312625E+03  0.00000000000E+00 0.  1.
         14    1    4    4    0    0 -0.15556990038E+02 -0.12927888189E+02 -0.32188562430E+03  0.32252055030E+03  0.00000000000E+00 0. -1.
         -5    1    5    5    0  502 -0.43693588868E+02  0.78101245797E+02  0.27557702664E+02  0.93757406530E+02  0.47000000000E+01 0.  1.
         11    1    6    6    0    0 -0.24508410824E+02 -0.88003430376E+01  0.53056946172E+01  0.26575526976E+02  0.00000000000E+00 0. -1.
        -12    1    6    6    0    0  0.44236550369E+02 -0.15022516619E+02  0.83477505673E+02  0.95661080631E+02  0.00000000000E+00 0.  1.
</event>
<event>
12    1  0.8461994E-002  0.2183553E+03  0.7818608E-02  0.1135207E+00
         21   -1    0    0  501  502  0.00000000000E+00  0.00000000000E+00  0.13120984414E+03  0.13120984414E+03  0.00000000000E+00 0.  1.
         21   -1    0    0  502  503 -0.00000000000E+00 -0.00000000000E+00 -0.36361783415E+03  0.36361783415E+03  0.00000000000E+00 0.  1.
         -6    2    1    2    0  503  0.13368999236E+03 -0.18175595413E+02 -0.10277322759E+03  0.24089022767E+03  0.17106255917E+03 0.  0.
        -24    2    3    3    0    0  0.36931729816E+02 -0.24830949714E+02  0.92398401150E+01  0.92648963343E+02  0.80733679666E+02 0.  0.
          6    2    1    2  501    0 -0.13368999236E+03  0.18175595413E+02 -0.12963476241E+03  0.25393745062E+03  0.17168485919E+03 0.  0.
         24    2    5    5    0    0 -0.11679412609E+03 -0.40840129375E+02 -0.12301099095E+03  0.19201580321E+03  0.80184666443E+02 0.  0.
          5    1    5    5  501    0 -0.16895866267E+02  0.59015724788E+02 -0.66237714638E+01  0.61921647407E+02  0.47000000000E+01 0. -1.
        -13    1    6    6    0    0 -0.56093465189E+02 -0.10341233383E+02 -0.10845862841E+03  0.12254261309E+03  0.00000000000E+00 0.  1.
         14    1    6    6    0    0 -0.60700660905E+02 -0.30498895992E+02 -0.14552362533E+02  0.69473190127E+02  0.00000000000E+00 0. -1.
         -5    1    3    3    0  503  0.96758262546E+02  0.66553543004E+01 -0.11201306771E+03  0.14824126433E+03  0.47000000000E+01 0.  1.
         11    1    4    4    0    0  0.25897945565E+02 -0.36134020723E+02  0.38882015800E+02  0.59060834660E+02  0.00000000000E+00 0. -1.
        -12    1    4    4    0    0  0.11033784251E+02  0.11303071009E+02 -0.29642175685E+02  0.33588128683E+02  0.00000000000E+00 0.  1.
</event>
<event>
12    1  0.8461994E-002  0.2675268E+03  0.7818608E-02  0.1102848E+00
         21   -1    0    0  503  502  0.00000000000E+00  0.00000000000E+00  0.12681251401E+03  0.12681251401E+03  0.00000000000E+00 0. -1.
         21   -1    0    0  501  503 -0.00000000000E+00 -0.00000000000E+00 -0.62148044814E+03  0.62148044814E+03  0.00000000000E+00 0.  1.
          6    2    1    2  501    0 -0.11504597033E+03 -0.16810430847E+03 -0.36238657826E+03  0.44984873031E+03  0.17188721372E+03 0.  0.
         24    2    3    3    0    0 -0.13710205143E+03 -0.10532429240E+03 -0.31413456285E+03  0.36751922088E+03  0.80620562302E+02 0.  0.
         -6    2    1    2    0  502  0.11504597033E+03  0.16810430847E+03 -0.13228135587E+03  0.29844423185E+03  0.17342424455E+03 0.  0.
        -24    2    5    5    0    0  0.74606754721E+02  0.17343981059E+03 -0.56827445845E+02  0.21254207658E+03  0.79355150862E+02 0.  0.
          5    1    3    3  501    0  0.22056081097E+02 -0.62780016068E+02 -0.48252015410E+02  0.82329509424E+02  0.47000000000E+01 0. -1.
        -11    1    4    4    0    0 -0.33463247982E+02 -0.60369130661E+02 -0.68954415410E+02  0.97565015794E+02  0.00000000000E+00 0.  1.
         12    1    4    4    0    0 -0.10363880345E+03 -0.44955161740E+02 -0.24518014744E+03  0.26995420509E+03  0.00000000000E+00 0. -1.
         -5    1    5    5    0  502  0.40439215612E+02 -0.53355021183E+01 -0.75453910023E+02  0.85902155270E+02  0.47000000000E+01 0.  1.
         11    1    6    6    0    0  0.76409035100E+02  0.84085107370E+02 -0.45765357697E+02  0.12248719889E+03  0.00000000000E+00 0. -1.
        -12    1    6    6    0    0 -0.18022803782E+01  0.89354703218E+02 -0.11062088148E+02  0.90054877691E+02  0.00000000000E+00 0.  1.
</event>
<event>
12    1  0.8461994E-002  0.2683621E+03  0.7818608E-02  0.1102351E+00
         21   -1    0    0  501  502  0.00000000000E+00  0.00000000000E+00  0.11147646600E+04  0.11147646600E+04  0.00000000000E+00 0. -1.
         21   -1    0    0  502  503 -0.00000000000E+00 -0.00000000000E+00 -0.64687450602E+02  0.64687450602E+02  0.00000000000E+00 0. -1.
         -6    2    1    2    0  503  0.42384096530E+02 -0.20431448427E+03  0.56611211058E+03  0.62649910978E+03  0.16875245981E+03 0.  0.
        -24    2    3    3    0    0  0.39088961270E+02 -0.22727568319E+03  0.49930947591E+03  0.55562770108E+03  0.78930389669E+02 0.  0.
          6    2    1    2  501    0 -0.42384096530E+02  0.20431448427E+03  0.48396509878E+03  0.55295300078E+03  0.16731402845E+03 0.  0.
         24    2    5    5    0    0  0.21056245655E+02  0.14882221053E+03  0.39697458402E+03  0.43173621515E+03  0.78841126860E+02 0.  0.
          5    1    5    5  501    0 -0.63440342185E+02  0.55492273734E+02  0.86990514756E+02  0.12121678563E+03  0.47000000000E+01 0. -1.
        -11    1    6    6    0    0 -0.90575600756E+01 -0.66692963498E+01  0.30188365199E+02  0.32215777217E+02  0.00000000000E+00 0.  1.
         12    1    6    6    0    0  0.30113805731E+02  0.15549150688E+03  0.36678621882E+03  0.39952043793E+03  0.00000000000E+00 0. -1.
         -5    1    3    3    0  503  0.32951352593E+01  0.22961198921E+02  0.66802634676E+02  0.70871408706E+02  0.47000000000E+01 0.  1.
         11    1    4    4    0    0  0.48924613110E+02 -0.69217151388E+02  0.15558681940E+03  0.17717756682E+03  0.00000000000E+00 0. -1.
        -12    1    4    4    0    0 -0.98356518393E+01 -0.15805853180E+03  0.34372265651E+03  0.37845013426E+03  0.00000000000E+00 0.  1.
</event>
<event>
12    1  0.8461994E-002  0.2620903E+03  0.7818608E-02  0.1105951E+00
         21   -1    0    0  503  502  0.00000000000E+00  0.00000000000E+00  0.29042714160E+03  0.29042714160E+03  0.00000000000E+00 0.  1.
         21   -1    0    0  501  503 -0.00000000000E+00 -0.00000000000E+00 -0.29033214232E+03  0.29033214232E+03  0.00000000000E+00 0.  1.
          6    2    1    2  501    0  0.64923158878E+02 -0.18622410543E+03 -0.12537330306E+03  0.29018461259E+03  0.17202967843E+03 0.  0.
         24    2    3    3    0    0 -0.74695470364E+01 -0.15279873309E+03 -0.11991477409E+03  0.21012310546E+03  0.79805510049E+02 0.  0.
         -6    2    1    2    0  502 -0.64923158878E+02  0.18622410543E+03  0.12546830233E+03  0.29057467133E+03  0.17261781694E+03 0.  0.
        -24    2    5    5    0    0 -0.80796014695E+02  0.48885392655E+02  0.76395034749E+02  0.14379543175E+03  0.76961985768E+02 0.  0.
          5    1    3    3  501    0  0.72392705914E+02 -0.33425372344E+02 -0.54585289635E+01  0.80061507133E+02  0.47000000000E+01 0. -1.
        -13    1    4    4    0    0  0.23122323927E+02 -0.13304074085E+03 -0.84318324030E+02  0.15919817950E+03  0.00000000000E+00 0.  1.
         14    1    4    4    0    0 -0.30591870963E+02 -0.19757992240E+02 -0.35596450064E+02  0.50924925955E+02  0.00000000000E+00 0. -1.
         -5    1    5    5    0  502  0.15872855817E+02  0.13733871278E+03  0.49073267579E+02  0.14677923958E+03  0.47000000000E+01 0.  1.
         11    1    6    6    0    0 -0.62307534455E+02  0.54420899189E+02  0.21311163715E+02  0.85428501200E+02  0.00000000000E+00 0. -1.
        -12    1    6    6    0    0 -0.18488480239E+02 -0.55355065335E+01  0.55083871035E+02  0.58366930554E+02  0.00000000000E+00 0.  1.
</event>
<event>
12    1  0.8461994E-002  0.1744357E+03  0.7818608E-02  0.1174070E+00
         21   -1    0    0  503  502  0.00000000000E+00  0.00000000000E+00  0.44723291905E+03  0.44723291905E+03  0.00000000000E+00 0.  1.
         21   -1    0    0  501  503 -0.00000000000E+00 -0.00000000000E+00 -0.97042819963E+02  0.97042819963E+02  0.00000000000E+00 0.  1.
          6    2    1    2  501    0  0.87640806877E+00 -0.11665713884E+02  0.22271274079E+02  0.17284799021E+03  0.17100748843E+03 0.  0.
         24    2    3    3    0    0 -0.42427835328E+01  0.19703891204E+02  0.74612667444E+02  0.11143162671E+03  0.80272739751E+02 0.  0.
         -6    2    1    2    0  502 -0.87640806877E+00  0.11665713884E+02  0.32791882501E+03  0.37142774881E+03  0.17404298267E+03 0.  0.
        -24    2    5    5    0    0  0.59621518526E+02 -0.19483307137E+02  0.23246214026E+03  0.25410627040E+03  0.81222073808E+02 0.  0.
          5    1    3    3  501    0  0.51191916016E+01 -0.31369605088E+02 -0.52341393365E+02  0.61416363499E+02  0.47000000000E+01 0. -1.
        -13    1    4    4    0    0  0.13639781156E+02  0.37834180556E+02  0.92279446250E+01  0.41262862362E+02  0.00000000000E+00 0.  1.
         14    1    4    4    0    0 -0.17882564689E+02 -0.18130289351E+02  0.65384722819E+02  0.70168764347E+02  0.00000000000E+00 0. -1.
         -5    1    5    5    0  502 -0.60497926595E+02  0.31149021020E+02  0.95456684756E+02  0.11732147841E+03  0.47000000000E+01 0.  1.
         13    1    6    6    0    0 -0.16598223294E+01  0.24593295531E+02  0.35897374288E+02  0.43545455285E+02  0.00000000000E+00 0. -1.
        -14    1    6    6    0    0  0.61281340855E+02 -0.44076602668E+02  0.19656476597E+03  0.21056081511E+03  0.00000000000E+00 0.  1.
</event>
<event>
12    1  0.8461994E-002  0.1922769E+03  0.7818608E-02  0.1156584E+00
         21   -1    0    0  501  502  0.00000000000E+00  0.00000000000E+00  0.62177747893E+02  0.62177747893E+02  0.00000000000E+00 0. -1.
         21   -1    0    0  502  503 -0.00000000000E+00 -0.00000000000E+00 -0.72298471903E+03  0.72298471903E+03  0.00000000000E+00 0. -1.
         -6    2    1    2    0  503 -0.87096584002E+00  0.92600656879E+02 -0.49777879264E+03  0.53362359876E+03  0.16850750284E+03 0.  0.
        -24    2    3    3    0    0  0.12828753977E+02  0.10001930384E+02 -0.11161096533E+03  0.13845539053E+03  0.80301133527E+02 0.  0.
          6    2    1    2  501    0  0.87096584002E+00 -0.92600656879E+02 -0.16302817849E+03  0.25153886816E+03  0.16768415243E+03 0.  0.
         24    2    5    5    0    0 -0.23016022816E+02  0.12039851776E+02 -0.61795643216E+02  0.10392335245E+03  0.79414522148E+02 0.  0.
          5    1    5    5  501    0  0.23886988656E+02 -0.10464050866E+03 -0.10123253527E+03  0.14761551571E+03  0.47000000000E+01 0. -1.
        -11    1    6    6    0    0  0.54912254527E+01 -0.16198908653E+02  0.11326858631E+02  0.20514773335E+02  0.00000000000E+00 0.  1.
         12    1    6    6    0    0 -0.28507248268E+02  0.28238760429E+02 -0.73122501847E+02  0.83408579120E+02  0.00000000000E+00 0. -1.
         -5    1    3    3    0  503 -0.13699719817E+02  0.82598726495E+02 -0.38616782732E+03  0.39516820823E+03  0.47000000000E+01 0.  1.
         11    1    4    4    0    0  0.37888841943E+02  0.73860762622E+01 -0.10576575568E+03  0.11259002416E+03  0.00000000000E+00 0. -1.
        -12    1    4    4    0    0 -0.25060087966E+02  0.26158541215E+01 -0.58452096505E+01  0.25865366371E+02  0.00000000000E+00 0.  1.
</event>
<event>
12    1  0.8461994E-002  0.1742328E+03  0.7818608E-02  0.1173727E+00
         21   -1    0    0  501  502  0.00000000000E+00  0.00000000000E+00  0.99515840988E+02  0.99515840988E+02  0.00000000000E+00 0. -1.
         21   -1    0    0  502  503 -0.00000000000E+00 -0.00000000000E+00 -0.35727773184E+03  0.35727773184E+03  0.00000000000E+00 0. -1.
         -6    2    1    2    0  503 -0.60841145572E+01  0.23374523557E+02 -0.21776468888E+03  0.27888800206E+03  0.17255049454E+03 0.  0.
        -24    2    3    3    0    0  0.34126892703E+01  0.82167924040E+02 -0.15469406869E+03  0.19201541515E+03  0.78590397512E+02 0.  0.
          6    2    1    2  501    0  0.60841145572E+01 -0.23374523557E+02 -0.39997201974E+02  0.17790557077E+03  0.17166022004E+03 0.  0.
         24    2    5    5    0    0 -0.12996045567E+02  0.51133034894E+02 -0.12736646772E+01  0.91667347709E+02  0.74951957657E+02 0.  0.
          5    1    5    5  501    0  0.19080160125E+02 -0.74507558450E+02 -0.38723537297E+02  0.86238223065E+02  0.47000000000E+01 0. -1.
        -13    1    6    6    0    0  0.10394288941E+02 -0.14576701739E+02 -0.11345361208E+02  0.21195251759E+02  0.00000000000E+00 0.  1.
         14    1    6    6    0    0 -0.23390334509E+02  0.65709736632E+02  0.10071696531E+02  0.70472095951E+02  0.00000000000E+00 0. -1.
         -5    1    3    3    0  503 -0.94968038275E+01 -0.58793400484E+02 -0.63070620194E+02  0.86872586902E+02  0.47000000000E+01 0.  1.
         11    1    4    4    0    0  0.10770194331E+02 -0.18895547667E+01  0.45136957635E+01  0.11829664094E+02  0.00000000000E+00 0. -1.
        -12    1    4    4    0    0 -0.73575050604E+01  0.84057478807E+02 -0.15920776445E+03  0.18018575106E+03  0.00000000000E+00 0.  1.
</event>
<event>
12    1  0.8461994E-002  0.2563238E+03  0.7818608E-02  0.1110513E+00
         21   -1    0    0  501  502  0.00000000000E+00  0.00000000000E+00  0.11476225829E+04  0.11476225829E+04  0.00000000000E+00 0.  1.
         21   -1    0    0  502  503 -0.00000000000E+00 -0.00000000000E+00 -0.16902039363E+03  0.16902039363E+03  0.00000000000E+00 0.  1.
         -6    2    1    2    0  503 -0.17955743970E+03  0.57000672310E-01 -0.52247098133E+02  0.25440376337E+03  0.17248373301E+03 0.  0.
        -24    2    3    3    0    0 -0.25291530604E+02 -0.49822492191E+01  0.72237490567E+01  0.88927975373E+02  0.84802817913E+02 0.  0.
          6    2    1    2  501    0  0.17955743970E+03 -0.57000672310E-01  0.10308492874E+04  0.10622392132E+04  0.18292352294E+03 0.  0.
         24    2    5    5    0    0  0.17609254803E+03 -0.49530732340E+02  0.90741681346E+03  0.92913278499E+03  0.80128520892E+02 0.  0.
          5    1    5    5  501    0  0.34648916665E+01  0.49473731668E+02  0.12343247393E+03  0.13310642817E+03  0.47000000000E+01 0. -1.
        -11    1    6    6    0    0  0.13255560393E+03 -0.11402709561E+02  0.49070263662E+03  0.50841920450E+03  0.00000000000E+00 0.  1.
         12    1    6    6    0    0  0.43536944102E+02 -0.38128022779E+02  0.41671417684E+03  0.42071358049E+03  0.00000000000E+00 0. -1.
         -5    1    3    3    0  503 -0.15426590910E+03  0.50392498914E+01 -0.59470847189E+02  0.16547578800E+03  0.47000000000E+01 0.  1.
         13    1    4    4    0    0 -0.32615334255E+02  0.34554866925E+02 -0.24202691912E+01  0.47577899909E+02  0.00000000000E+00 0. -1.
        -14    1    4    4    0    0  0.73238036518E+01 -0.39537116144E+02  0.96440182479E+01  0.41350075464E+02  0.00000000000E+00 0.  1.
</event>
<event>
12    1  0.8461994E-002  0.3033266E+03  0.7818608E-02  0.1083730E+00
         21   -1    0    0  501  502  0.00000000000E+00  0.00000000000E+00  0.13363363572E+03  0.13363363572E+03  0.00000000000E+00 0. -1.
         21   -1    0    0  502  503 -0.00000000000E+00 -0.00000000000E+00 -0.89709083546E+03  0.89709083546E+03  0.00000000000E+00 0.  1.
         -6    2    1    2    0  503 -0.22132157622E+03  0.11470633777E+03 -0.13223374097E+03  0.33089693094E+03  0.17281849620E+03 0.  0.
        -24    2    3    3    0    0 -0.12159046832E+03 -0.56054083928E+00 -0.95642738256E+02  0.17407302119E+03  0.79808064344E+02 0.  0.
          6    2    1    2  501    0  0.22132157622E+03 -0.11470633777E+03 -0.63122345876E+03  0.69982754024E+03  0.17080616841E+03 0.  0.
         24    2    5    5    0    0  0.20900259779E+03 -0.14392822844E+03 -0.59140273042E+03  0.64870556327E+03  0.81635148346E+02 0.  0.
          5    1    5    5  501    0  0.12318978431E+02  0.29221890669E+02 -0.39820728345E+02  0.51121976974E+02  0.47000000000E+01 0. -1.
        -13    1    6    6    0    0  0.18788406144E+03 -0.12130932996E+03 -0.43339635478E+03  0.48769742097E+03  0.00000000000E+00 0.  1.
         14    1    6    6    0    0  0.21118536344E+02 -0.22618898483E+02 -0.15800637563E+03  0.16100814230E+03  0.00000000000E+00 0. -1.
         -5    1    3    3    0  503 -0.99731107898E+02  0.11526687861E+03 -0.36591002718E+02  0.15682390974E+03  0.47000000000E+01 0.  1.
         13    1    4    4    0    0 -0.33942741316E+02 -0.96873410518E+01  0.98214396630E+01  0.36638981178E+02  0.00000000000E+00 0. -1.
        -14    1    4    4    0    0 -0.87647727003E+02  0.91268002125E+01 -0.10546417792E+03  0.13743404002E+03  0.00000000000E+00 0.  1.
</event>
<event>
12    1  0.8461994E-002  0.1788386E+03  0.7818608E-02  0.1169156E+00
         21   -1    0    0  501  502  0.00000000000E+00  0.00000000000E+00  0.14914764256E+03  0.14914764256E+03  0.00000000000E+00 0.  1.
         21   -1    0    0  502  503 -0.00000000000E+00 -0.00000000000E+00 -0.26652830002E+03  0.26652830002E+03  0.00000000000E+00 0.  1.
         -6    2    1    2    0  503 -0.46252260025E+02 -0.18843526668E+01  0.34275495744E+02  0.18119175746E+03  0.17179295975E+03 0.  0.
        -24    2    3    3    0    0 -0.89739671187E+02  0.28839416364E+02  0.16110542650E+02  0.12473681584E+03  0.80092466058E+02 0.  0.
          6    2    1    2  501    0  0.46252260025E+02  0.18843526668E+01 -0.15165615320E+03  0.23448418511E+03  0.17274380429E+03 0.  0.
         24    2    5    5    0    0  0.78082361361E+02 -0.14081903886E+02 -0.43001440175E+02  0.12004637072E+03  0.79163451748E+02 0.  0.
          5    1    5    5  501    0 -0.31830101336E+02  0.15966256553E+02 -0.10865471303E+03  0.11443781439E+03  0.47000000000E+01 0. -1.
        -11    1    6    6    0    0  0.87285962337E+02 -0.15658814484E+02 -0.55372090641E+02  0.10454714780E+03  0.00000000000E+00 0.  1.
         12    1    6    6    0    0 -0.92036009760E+01  0.15769105980E+01  0.12370650466E+02  0.15499222913E+02  0.00000000000E+00 0. -1.
         -5    1    3    3    0  503  0.43487411162E+02 -0.30723769031E+02  0.18164953095E+02  0.56454941626E+02  0.47000000000E+01 0.  1.
         13    1    4    4    0    0 -0.63928502271E+02  0.41297658478E+02  0.41290239349E+02  0.86586568612E+02  0.00000000000E+00 0. -1.
        -14    1    4    4    0    0 -0.25811168916E+02 -0.12458242114E+02 -0.25179696699E+02  0.38150247224E+02  0.00000000000E+00 0.  1.
</event>
<event>
12    1  0.8461994E-002  0.2007399E+03  0.7818608E-02  0.1149451E+00
         21   -1    0    0  503  502  0.00000000000E+00  0.00000000000E+00  0.12754765079E+03  0.12754765079E+03  0.00000000000E+00 0.  1.
         21   -1    0    0  501  503 -0.00000000000E+00 -0.00000000000E+00 -0.49928868861E+03  0.49928868861E+03  0.00000000000E+00 0.  1.
          6    2    1    2  501    0 -0.95680276846E+02 -0.36316035256E+02 -0.37755148398E+03  0.42759985876E+03  0.17269321456E+03 0.  0.
         24    2    3    3    0    0 -0.77783410442E+02 -0.82532467595E+02 -0.20010686353E+03  0.24330406452E+03  0.79323665025E+02 0.  0.
         -6    2    1    2    0  502  0.95680276846E+02  0.36316035256E+02  0.58104461674E+01  0.19923648065E+03  0.17084450281E+03 0.  0.
        -24    2    5    5    0    0  0.58683138831E+02 -0.42667346844E+02 -0.13306241366E+02  0.10982339094E+03  0.81362816249E+02 0.  0.
          5    1    3    3  501    0 -0.17896866404E+02  0.46216432339E+02 -0.17744462046E+03  0.18429579424E+03  0.47000000000E+01 0. -1.
        -13    1    4    4    0    0  0.10955401066E+02 -0.36813978242E+02 -0.50382011590E+02  0.63353270621E+02  0.00000000000E+00 0.  1.
         14    1    4    4    0    0 -0.88738811508E+02 -0.45718489353E+02 -0.14972485194E+03  0.17995079390E+03  0.00000000000E+00 0. -1.
         -5    1    5    5    0  502  0.36997138015E+02  0.78983382100E+02  0.19116687533E+02  0.89413089710E+02  0.47000000000E+01 0.  1.
         13    1    6    6    0    0  0.13410165998E+02 -0.46170311987E+02 -0.35029792288E+02  0.59486272440E+02  0.00000000000E+00 0. -1.
        -14    1    6    6    0    0  0.45272972833E+02  0.35029651427E+01  0.21723550923E+02  0.50337118498E+02  0.00000000000E+00 0.  1.
</event>
<event>
12    1  0.8461994E-002  0.1883409E+03  0.7818608E-02  0.1160918E+00
         21   -1    0    0  501  502  0.00000000000E+00  0.00000000000E+00  0.74361873921E+03  0.74361873921E+03  0.00000000000E+00 0. -1.
         21   -1    0    0  502  503 -0.00000000000E+00 -0.00000000000E+00 -0.10763202243E+03  0.10763202243E+03  0.00000000000E+00 0. -1.
         -6    2    1    2    0  503 -0.58312065218E+02  0.48935722647E+02 -0.38626805201E+01  0.18425785623E+03  0.16775289977E+03 0.  0.
        -24    2    3    3    0    0 -0.41550385038E+02  0.60022340876E+02 -0.60473549826E+02  0.12400217144E+03  0.79939804808E+02 0.  0.
          6    2    1    2  501    0  0.58312065218E+02 -0.48935722647E+02  0.63984939730E+03  0.66699290540E+03  0.17227095728E+03 0.  0.
         24    2    5    5    0    0  0.38774684796E+02 -0.48814826476E+02  0.18318339656E+03  0.20988498588E+03  0.81296906821E+02 0.  0.
          5    1    5    5  501    0  0.19537380423E+02 -0.12089617076E+00  0.45666600075E+03  0.45710791952E+03  0.47000000000E+01 0. -1.
        -11    1    6    6    0    0  0.53401660517E+02 -0.14326172148E+02  0.14990525118E+03  0.15977659680E+03  0.00000000000E+00 0.  1.
         12    1    6    6    0    0 -0.14626975721E+02 -0.34488654328E+02  0.33278145374E+02  0.50108389075E+02  0.00000000000E+00 0. -1.
         -5    1    3    3    0  503 -0.16761680180E+02 -0.11086618229E+02  0.56610869306E+02  0.60255684793E+02  0.47000000000E+01 0.  1.
         11    1    4    4    0    0 -0.13058512288E+02 -0.94005705090E+00 -0.54945285946E+02  0.56483563079E+02  0.00000000000E+00 0. -1.
        -12    1    4    4    0    0 -0.28491872750E+02  0.60962397927E+02 -0.55282638807E+01  0.67518608363E+02  0.00000000000E+00 0.  1.
</event>
<event>
12    1  0.8461994E-002  0.1782372E+03  0.7818608E-02  0.1170042E+00
         21   -1    0    0  501  502  0.00000000000E+00  0.00000000000E+00  0.23367093594E+03  0.23367093594E+03  0.00000000000E+00 0. -1.
         21   -1    0    0  502  503 -0.00000000000E+00 -0.00000000000E+00 -0.14913517871E+03  0.14913517871E+03  0.00000000000E+00 0. -1.
         -6    2    1    2    0  503 -0.42683557414E+02 -0.12029435251E+02 -0.18235081429E+02  0.17706272302E+03  0.17044675504E+03 0.  0.
        -24    2    3    3    0    0  0.43210653128E+02 -0.73175646192E+00 -0.34154805348E+02  0.88852856449E+02  0.69717884072E+02 0.  0.
          6    2    1    2  501    0  0.42683557414E+02  0.12029435251E+02  0.10277083866E+03  0.20574339163E+03  0.17263228126E+03 0.  0.
         24    2    5    5    0    0  0.72436070368E+01 -0.11488154612E+02 -0.13533093579E+02  0.81816954701E+02  0.79538807606E+02 0.  0.
          5    1    5    5  501    0  0.35439950377E+02  0.23517589863E+02  0.11630393224E+03  0.12392643693E+03  0.47000000000E+01 0. -1.
        -11    1    6    6    0    0  0.45930468730E+01  0.24026870652E+02  0.20977885768E+02  0.32225118839E+02  0.00000000000E+00 0.  1.
         12    1    6    6    0    0  0.26505601638E+01 -0.35515025264E+02 -0.34510979347E+02  0.49591835862E+02  0.00000000000E+00 0. -1.
         -5    1    3    3    0  503 -0.85894210542E+02 -0.11297678789E+02  0.15919723920E+02  0.88209866570E+02  0.47000000000E+01 0.  1.
         11    1    4    4    0    0  0.26493001202E+02  0.26110035542E+02 -0.42169729938E+02  0.56230767305E+02  0.00000000000E+00 0. -1.
        -12    1    4    4    0    0  0.16717651926E+02 -0.26841792004E+02  0.80149245896E+01  0.32622089144E+02  0.00000000000E+00 0.  1.
</event>
<event>
12    1  0.8461994E-002  0.1977965E+03  0.7818608E-02  0.1151706E+00
         21   -1    0    0  503  502  0.00000000000E+00  0.00000000000E+00  0.12641502015E+03  0.12641502015E+03  0.00000000000E+00 0. -1.
         21   -1    0    0  501  503 -0.00000000000E+00 -0.00000000000E+00 -0.31364562103E+03  0.31364562103E+03  0.00000000000E+00 0. -1.
          6    2    1    2  501    0 -0.25008505683E+02  0.95799063110E+02 -0.12087439673E+03  0.23143030830E+03  0.17072340778E+03 0.  0.
         24    2    3    3    0    0 -0.49724520391E+02  0.11930814162E+03 -0.64872754726E+02  0.16568966591E+03  0.80855615122E+02 0.  0.
         -6    2    1    2    0  502  0.25008505683E+02 -0.95799063110E+02 -0.66356204152E+02  0.20863033288E+03  0.17123254399E+03 0.  0.
        -24    2    5    5    0    0  0.68511518294E+01 -0.10626930945E+02 -0.88874606524E+02  0.11855730672E+03  0.77442038644E+02 0.  0.
          5    1    3    3  501    0  0.24716014708E+02 -0.23509078511E+02 -0.56001642000E+02  0.65740642392E+02  0.47000000000E+01 0. -1.
        -13    1    4    4    0    0  0.10975585048E+02  0.29679006125E+02  0.10997164945E+02  0.33499918038E+02  0.00000000000E+00 0.  1.
         14    1    4    4    0    0 -0.60700105440E+02  0.89629135497E+02 -0.75869919672E+02  0.13218974787E+03  0.00000000000E+00 0. -1.
         -5    1    5    5    0  502  0.18157353853E+02 -0.85172132165E+02  0.22518402373E+02  0.90073026162E+02  0.47000000000E+01 0.  1.
         11    1    6    6    0    0  0.24568076909E+02  0.18439768006E+02 -0.94399491024E+01  0.32136086977E+02  0.00000000000E+00 0. -1.
        -12    1    6    6    0    0 -0.17716925080E+02 -0.29066698951E+02 -0.79434657422E+02  0.86421219743E+02  0.00000000000E+00 0.  1.
</event>
<event>
12    1  0.8461994E-002  0.2391972E+03  0.7818608E-02  0.1120477E+00
         21   -1    0    0  503  502  0.00000000000E+00  0.00000000000E+00  0.31727101515E+03  0.31727101515E+03  0.00000000000E+00 0.  1.
         21   -1    0    0  501  503 -0.00000000000E+00 -0.00000000000E+00 -0.38362630790E+03  0.38362630790E+03  0.00000000000E+00 0.  1.
          6    2    1    2  501    0 -0.92646840983E+02  0.13770144191E+03 -0.28867706059E+03  0.37433606528E+03  0.17102023334E+03 0.  0.
         24    2    3    3    0    0 -0.35548680354E+02  0.57837040960E+02 -0.24610923363E+03  0.26722569053E+03  0.78936574665E+02 0.  0.
         -6    2    1    2    0  502  0.92646840983E+02 -0.13770144191E+03  0.22232176784E+03  0.32656125777E+03  0.17225028989E+03 0.  0.
        -24    2    5    5    0    0  0.12326746594E+03 -0.70988217169E+02  0.13226778653E+03  0.21028535064E+03  0.80566532778E+02 0.  0.
          5    1    3    3  501    0 -0.57098160629E+02  0.79864400954E+02 -0.42567826958E+02  0.10711037475E+03  0.47000000000E+01 0. -1.
        -13    1    4    4    0    0 -0.40692148809E+02  0.25615721695E+02 -0.53749247589E+02  0.72117943600E+02  0.00000000000E+00 0.  1.
         14    1    4    4    0    0  0.51434684544E+01  0.32221319264E+02 -0.19235998604E+03  0.19510774693E+03  0.00000000000E+00 0. -1.
         -5    1    5    5    0  502 -0.30620624954E+02 -0.66713224745E+02  0.90053981314E+02  0.11627590713E+03  0.47000000000E+01 0.  1.
         11    1    6    6    0    0  0.25623729857E+02  0.17957783849E+02  0.28370317451E+02  0.42236624449E+02  0.00000000000E+00 0. -1.
        -12    1    6    6    0    0  0.97643736081E+02 -0.88946001018E+02  0.10389746908E+03  0.16804872619E+03  0.00000000000E+00 0.  1.
</event>
<event>
12    1  0.8461994E-002  0.2340094E+03  0.7818608E-02  0.1123871E+00
         21   -1    0    0  501  502  0.00000000000E+00  0.00000000000E+00  0.22962746941E+03  0.22962746941E+03  0.00000000000E+00 0.  1.
         21   -1    0    0  502  503 -0.00000000000E+00 -0.00000000000E+00 -0.27966053236E+03  0.27966053236E+03  0.00000000000E+00 0. -1.
         -6    2    1    2    0  503  0.14383702197E+03 -0.66431752277E+02 -0.12288441396E+03  0.26420086766E+03  0.17204433348E+03 0.  0.
        -24    2    3    3    0    0  0.46611006619E+02 -0.92319918702E+02 -0.86526483580E+02  0.15711639483E+03  0.80642270776E+02 0.  0.
          6    2    1    2  501    0 -0.14383702197E+03  0.66431752277E+02  0.72851351005E+02  0.24508713410E+03  0.17221532267E+03 0.  0.
         24    2    5    5    0    0 -0.81810074816E+02  0.80571732951E+02  0.99476399650E+02  0.17596214266E+03  0.88783044950E+02 0.  0.
          5    1    5    5  501    0 -0.62026947151E+02 -0.14139980674E+02 -0.26625048646E+02  0.69124991441E+02  0.47000000000E+01 0. -1.
        -11    1    6    6    0    0 -0.73647006938E+02  0.31680535319E+02  0.97671075297E+02  0.12636129510E+03  0.00000000000E+00 0.  1.
         12    1    6    6    0    0 -0.81630678780E+01  0.48891197632E+02  0.18053243530E+01  0.49600847564E+02  0.00000000000E+00 0. -1.
         -5    1    3    3    0  503  0.97226015349E+02  0.25888166425E+02 -0.36357930375E+02  0.10708447284E+03  0.47000000000E+01 0.  1.
         11    1    4    4    0    0  0.60145274752E+02 -0.67857841011E+02 -0.91388669915E+02  0.12874016332E+03  0.00000000000E+00 0. -1.
        -12    1    4    4    0    0 -0.13534268134E+02 -0.24462077691E+02  0.48621863353E+01  0.28376231512E+02  0.00000000000E+00 0.  1.
</event>
<event>
12    1  0.8461994E-002  0.2088245E+03  0.7818608E-02  0.1143169E+00
         21   -1    0    0  503  502  0.00000000000E+00  0.00000000000E+00  0.18055774999E+03  0.18055774999E+03  0.00000000000E+00 0. -1.
         21   -1    0    0  501  503 -0.00000000000E+00 -0.00000000000E+00 -0.25277799957E+03  0.25277799957E+03  0.00000000000E+00 0. -1.
          6    2    1    2  501    0 -0.11649055214E+03  0.19917658491E+02 -0.89324377939E+02  0.22712664604E+03  0.17216534782E+03 0.  0.
         24    2    3    3    0    0 -0.81125434680E+02  0.34123128716E+02  0.11239425484E+02  0.11948067317E+03  0.80022387558E+02 0.  0.
         -6    2    1    2    0  502  0.11649055214E+03 -0.19917658491E+02  0.17104128358E+02  0.20620910352E+03  0.16811567836E+03 0.  0.
        -24    2    5    5    0    0  0.71762993571E+02  0.41628904063E+02  0.14807809282E+02  0.12994707536E+03  0.98914499843E+02 0.  0.
          5    1    3    3  501    0 -0.35365117458E+02 -0.14205470225E+02 -0.10056380342E+03  0.10764597287E+03  0.47000000000E+01 0. -1.
        -11    1    4    4    0    0 -0.43638070558E+02  0.49560140919E+01  0.43695808982E+02  0.61952941821E+02  0.00000000000E+00 0.  1.
         12    1    4    4    0    0 -0.37487364122E+02  0.29167114624E+02 -0.32456383498E+02  0.57527731348E+02  0.00000000000E+00 0. -1.
         -5    1    5    5    0  502  0.44727558567E+02 -0.61546562554E+02  0.22963190758E+01  0.76262028159E+02  0.47000000000E+01 0.  1.
         13    1    6    6    0    0  0.25763218485E+02  0.45621487491E+02 -0.34236740325E+02  0.62587681981E+02  0.00000000000E+00 0. -1.
        -14    1    6    6    0    0  0.45999775085E+02 -0.39925834284E+01  0.49044549606E+02  0.67359393379E+02  0.00000000000E+00 0.  1.
</event>
<event>
12    1  0.8461994E-002  0.2696616E+03  0.7818608E-02  0.1101514E+00
         21   -1    0    0  503  502  0.00000000000E+00  0.00000000000E+00  0.10181695056E+03  0.10181695056E+03  0.00000000000E+00 0. -1.
         21   -1    0    0  501  503 -0.00000000000E+00 -0.00000000000E+00 -0.99536817507E+03  0.99536817507E+03  0.00000000000E+00 0.  1.
          6    2    1    2  501    0 -0.24977255155E+02 -0.20506376892E+03 -0.73856560343E+03  0.78615790090E+03  0.17288748358E+03 0.  0.
         24    2    3    3    0    0  0.37054205564E+02 -0.87806361357E+02 -0.47529701353E+03  0.49131956863E+03  0.80029345901E+02 0.  0.
         -6    2    1    2    0  502  0.24977255155E+02  0.20506376892E+03 -0.15498562108E+03  0.31102722472E+03  0.17332737574E+03 0.  0.
        -24    2    5    5    0    0 -0.16621858169E+02  0.26798929666E+02 -0.63181258331E+02  0.10618833642E+03  0.79307140831E+02 0.  0.
          5    1    3    3  501    0 -0.62031460719E+02 -0.11725740756E+03 -0.26326858990E+03  0.29483833227E+03  0.47000000000E+01 0. -1.
        -13    1    4    4    0    0  0.14087970574E+02 -0.91302805499E+02 -0.28474316278E+03  0.29935487628E+03  0.00000000000E+00 0.  1.
         14    1    4    4    0    0  0.22966234990E+02  0.34964441422E+01 -0.19055385076E+03  0.19196469235E+03  0.00000000000E+00 0. -1.
         -5    1    5    5    0  502  0.41599113324E+02  0.17826483925E+03 -0.91804362749E+02  0.20483888831E+03  0.47000000000E+01 0.  1.
         13    1    6    6    0    0 -0.88313064935E+01  0.30884110548E+02  0.90902671720E+01  0.33383427265E+02  0.00000000000E+00 0. -1.
        -14    1    6    6    0    0 -0.77905516756E+01 -0.40851808819E+01 -0.72271525503E+02  0.72804909153E+02  0.00000000000E+00 0.  1.
</event>
<event>
12    1  0.8461994E-002  0.1919223E+03  0.7818608E-02  0.1157364E+00
         21   -1    0    0  501  502  0.00000000000E+00  0.00000000000E+00  0.53597232692E+02  0.53597232692E+02  0.00000000000E+00 0. -1.
         21   -1    0    0  502  503 -0.00000000000E+00 -0.00000000000E+00 -0.96320039016E+03  0.96320039016E+03  0.00000000000E+00 0. -1.
         -6    2    1    2    0  503  0.78091546278E+02 -0.36178617151E+02 -0.72944326383E+03  0.75356433440E+03  0.16841778113E+03 0.  0.
        -24    2    3    3    0    0  0.10743444834E+03 -0.28824802727E+02 -0.69052938777E+03  0.70405207089E+03  0.80532311605E+02 0.  0.
          6    2    1    2  501    0 -0.78091546278E+02  0.36178617151E+02 -0.18015989364E+03  0.26323328845E+03  0.17154298276E+03 0.  0.
         24    2    5    5    0    0 -0.61276245746E+02  0.66953329553E+02 -0.53851156287E+02  0.13206231458E+03  0.79391317325E+02 0.  0.
          5    1    5    5  501    0 -0.16815300532E+02 -0.30774712401E+02 -0.12630873736E+03  0.13117097388E+03  0.47000000000E+01 0. -1.
        -13    1    6    6    0    0 -0.34977255012E+02  0.75455340716E+02 -0.61439040415E+02  0.10340054399E+03  0.00000000000E+00 0.  1.
         14    1    6    6    0    0 -0.26298990734E+02 -0.85020111630E+01  0.75878841278E+01  0.28661770583E+02  0.00000000000E+00 0. -1.
         -5    1    3    3    0  503 -0.29342902062E+02 -0.73538144244E+01 -0.38913876056E+02  0.49512263508E+02  0.47000000000E+01 0.  1.
         13    1    4    4    0    0 -0.66894825467E+01  0.12765523694E+02 -0.47014485379E+02  0.49173871185E+02  0.00000000000E+00 0. -1.
        -14    1    4    4    0    0  0.11412393089E+03 -0.41590326421E+02 -0.64351490239E+03  0.65487819971E+03  0.00000000000E+00 0.  1.
</event>
<event>
12    1  0.8461994E-002  0.3201295E+03  0.7818608E-02  0.1075680E+00
         21   -1    0    0  501  502  0.00000000000E+00  0.00000000000E+00  0.35535630619E+03  0.35535630619E+03  0.00000000000E+00 0. -1.
         21   -1    0    0  502  503 -0.00000000000E+00 -0.00000000000E+00 -0.28822463848E+03  0.28822463848E+03  0.00000000000E+00 0.  1.
         -6    2    1    2    0  503  0.95475390935E+02  0.25282970211E+03  0.19697945424E+02  0.32073491068E+03  0.17159389653E+03 0.  0.
        -24    2    3    3    0    0  0.28914826089E-01  0.16640162843E+03  0.41274850267E+02  0.19009228921E+03  0.82109453601E+02 0.  0.
          6    2    1    2  501    0 -0.95475390935E+02 -0.25282970211E+03  0.47433722277E+02  0.32284603399E+03  0.17012111894E+03 0.  0.
         24    2    5    5    0    0  0.61058622358E+01 -0.16139774029E+03  0.10190949704E+02  0.18111506085E+03  0.81316035853E+02 0.  0.
          5    1    5    5  501    0 -0.10158125317E+03 -0.91431961826E+02  0.37242772573E+02  0.14173097314E+03  0.47000000000E+01 0. -1.
        -11    1    6    6    0    0 -0.35479346471E+02 -0.94121207047E+02 -0.44291094316E+01  0.10068367620E+03  0.00000000000E+00 0.  1.
         12    1    6    6    0    0  0.41585208707E+02 -0.67276533242E+02  0.14620059136E+02  0.80431384654E+02  0.00000000000E+00 0. -1.
         -5    1    3    3    0  503  0.95446476109E+02  0.86428073683E+02 -0.21576904843E+02  0.13064262147E+03  0.47000000000E+01 0.  1.
         13    1    4    4    0    0  0.22176320381E+02  0.12982255861E+02  0.22115230736E+02  0.33902973076E+02  0.00000000000E+00 0. -1.
        -14    1    4    4    0    0 -0.22147405555E+02  0.15341937257E+03  0.19159619531E+02  0.15618931613E+03  0.00000000000E+00 0.  1.
</event>
<event>
12    1  0.8461994E-002  0.2350819E+03  0.7818608E-02  0.1123159E+00
         21   -1    0    0  501  502  0.00000000000E+00  0.00000000000E+00  0.68940269183E+02  0.68940269183E+02  0.00000000000E+00 0.  1.
         21   -1    0    0  502  503 -0.00000000000E+00 -0.00000000000E+00 -0.10819917126E+04  0.10819917126E+04  0.00000000000E+00 0. -1.
         -6    2    1    2    0  503 -0.15615998553E+03  0.36631927465E+02 -0.21332288487E+03  0.31744312478E+03  0.17185937587E+03 0.  0.
        -24    2    3    3    0    0 -0.14458272575E+03  0.55091891602E+02 -0.23101904971E+03  0.28898179189E+03  0.78748927667E+02 0.  0.
          6    2    1    2  501    0  0.15615998553E+03 -0.36631927465E+02 -0.79972855858E+03  0.83348885703E+03  0.17149363894E+03 0.  0.
         24    2    5    5    0    0  0.15663164480E+03  0.17603934045E+02 -0.66592820920E+03  0.68903687666E+03  0.80424293318E+02 0.  0.
          5    1    5    5  501    0 -0.47165927111E+00 -0.54235861511E+02 -0.13380034938E+03  0.14445198036E+03  0.47000000000E+01 0. -1.
        -11    1    6    6    0    0  0.53402188899E+02 -0.14075453658E+02 -0.11433862239E+03  0.12697729224E+03  0.00000000000E+00 0.  1.
         12    1    6    6    0    0  0.10322945590E+03  0.31679387703E+02 -0.55158958680E+03  0.56205958442E+03  0.00000000000E+00 0. -1.
         -5    1    3    3    0  503 -0.11577259772E+02 -0.18459964137E+02  0.17696164844E+02  0.28461332891E+02  0.47000000000E+01 0.  1.
         11    1    4    4    0    0 -0.77384885829E+02  0.22997536091E+02 -0.18394845955E+03  0.20088390427E+03  0.00000000000E+00 0. -1.
        -12    1    4    4    0    0 -0.67197839926E+02  0.32094355511E+02 -0.47070590157E+02  0.88097887626E+02  0.00000000000E+00 0.  1.
</event>
<event>
12    1  0.8461994E-002  0.2412293E+03  0.7818608E-02  0.1119109E+00
         21   -1    0    0  503  502  0.00000000000E+00  0.00000000000E+00  0.19844600440E+03  0.19844600440E+03  0.00000000000E+00 0. -1.
         21   -1    0    0  501  503 -0.00000000000E+00 -0.00000000000E+00 -0.29322081771E+03  0.29322081771E+03  0.00000000000E+00 0. -1.
          6    2    1    2  501    0  0.91116382826E+02  0.14165791238E+03 -0.61467618497E+02  0.24893741837E+03  0.17269166391E+03 0.  0.
         24    2    3    3    0    0  0.11868527157E+03  0.14909660702E+03 -0.37191872200E+02  0.21116468134E+03  0.83013826407E+02 0.  0.
         -6    2    1    2    0  502 -0.91116382826E+02 -0.14165791238E+03 -0.33307194817E+02  0.24272940374E+03  0.17157807218E+03 0.  0.
        -24    2    5    5    0    0 -0.11939147359E+03 -0.13822938530E+03 -0.54137033982E+02  0.20713154207E+03  0.81307873823E+02 0.  0.
          5    1    3    3  501    0 -0.27568888741E+02 -0.74386946485E+01 -0.24275746297E+02  0.37772737031E+02  0.47000000000E+01 0. -1.
        -13    1    4    4    0    0  0.22210398113E+02  0.14688529349E+02  0.22921473562E+02  0.35134721131E+02  0.00000000000E+00 0.  1.
         14    1    4    4    0    0  0.96474873455E+02  0.13440807768E+03 -0.60113345761E+02  0.17602996021E+03  0.00000000000E+00 0. -1.
         -5    1    5    5    0  502  0.28275090762E+02 -0.34285270741E+01  0.20829839165E+02  0.35597861665E+02  0.47000000000E+01 0.  1.
         13    1    6    6    0    0 -0.49992298989E+02 -0.94044496995E+02  0.36905077537E+01  0.10657024548E+03  0.00000000000E+00 0. -1.
        -14    1    6    6    0    0 -0.69399174599E+02 -0.44184888308E+02 -0.57827541735E+02  0.10056129660E+03  0.00000000000E+00 0.  1.
</event>
<event>
12    1  0.8461994E-002  0.1808077E+03  0.7818608E-02  0.1169338E+00
         21   -1    0    0  501  502  0.00000000000E+00  0.00000000000E+00  0.54071258165E+03  0.54071258165E+03  0.00000000000E+00 0.  1.
         21   -1    0    0  502  503 -0.00000000000E+00 -0.00000000000E+00 -0.16010750850E+03  0.16010750850E+03  0.00000000000E+00 0.  1.
         -6    2    1    2    0  503 -0.57388391748E+02 -0.16589477834E+01 -0.92162406749E+02  0.19465753685E+03  0.16155948694E+03 0.  0.
        -24    2    3    3    0    0 -0.22593870122E+02 -0.55603309718E+02 -0.33593791082E+02  0.10763440394E+03  0.82791370891E+02 0.  0.
          6    2    1    2  501    0  0.57388391748E+02  0.16589477834E+01  0.47276747990E+03  0.50616255330E+03  0.17145046135E+03 0.  0.
         24    2    5    5    0    0 -0.33477929826E+01  0.19586408025E+02  0.40541116723E+03  0.41359235927E+03  0.79407745430E+02 0.  0.
          5    1    5    5  501    0  0.60736184731E+02 -0.17927460241E+02  0.67356312673E+02  0.92570194032E+02  0.47000000000E+01 0. -1.
        -13    1    6    6    0    0 -0.26837783646E+01 -0.44532191489E+01  0.37398086819E+03  0.37401700977E+03  0.00000000000E+00 0.  1.
         14    1    6    6    0    0 -0.66401461805E+00  0.24039627174E+02  0.31430299040E+02  0.39575349497E+02  0.00000000000E+00 0. -1.
         -5    1    3    3    0  503 -0.34794521626E+02  0.53944361935E+02 -0.58568615667E+02  0.87023132906E+02  0.47000000000E+01 0.  1.
         11    1    4    4    0    0 -0.43396650207E+02 -0.48312903106E+02  0.28928998790E+01  0.65005959153E+02  0.00000000000E+00 0. -1.
        -12    1    4    4    0    0  0.20802780085E+02 -0.72904066128E+01 -0.36486690961E+02  0.42628444789E+02  0.00000000000E+00 0.  1.
</event>
<event>
12    1  0.8461994E-002  0.1858102E+03  0.7818608E-02  0.1162367E+00
         21   -1    0    0  503  502  0.00000000000E+00  0.00000000000E+00  0.99798904813E+03  0.99798904813E+03  0.00000000000E+00 0.  1.
         21   -1    0    0  501  503 -0.00000000000E+00 -0.00000000000E+00 -0.60791440720E+02  0.60791440720E+02  0.00000000000E+00 0.  1.
          6    2    1    2  501    0  0.67187918947E+02 -0.19598516919E+01  0.12092278473E+03  0.22169292402E+03  0.17322636989E+03 0.  0.
         24    2    3    3    0    0  0.26676904541E+02 -0.96021863747E+01 -0.95935974746E+01  0.84739780244E+02  0.79277575797E+02 0.  0.
         -6    2    1    2    0  502 -0.67187918947E+02  0.19598516919E+01  0.81627482268E+03  0.83708756483E+03  0.17289577084E+03 0.  0.
        -24    2    5    5    0    0 -0.45909194653E+02 -0.76906143188E+01  0.21820948179E+03  0.23854754313E+03  0.84396402094E+02 0.  0.
          5    1    3    3  501    0  0.40511014406E+02  0.76423346828E+01  0.13051638220E+03  0.13695314378E+03  0.47000000000E+01 0. -1.
        -11    1    4    4    0    0  0.51826021158E+02  0.71167612023E+01  0.21024705017E+01  0.52354609551E+02  0.00000000000E+00 0.  1.
         12    1    4    4    0    0 -0.25149116617E+02 -0.16718947577E+02 -0.11696067976E+02  0.32385170693E+02  0.00000000000E+00 0. -1.
         -5    1    5    5    0  502 -0.21278724294E+02  0.96504660106E+01  0.59806534089E+03  0.59854002170E+03  0.47000000000E+01 0.  1.
         11    1    6    6    0    0  0.87878820589E+01  0.28766419878E+02  0.81017056040E+02  0.86420467212E+02  0.00000000000E+00 0. -1.
        -12    1    6    6    0    0 -0.54697076712E+02 -0.36457034197E+02  0.13719242575E+03  0.15212707592E+03  0.00000000000E+00 0.  1.
</event>
<event>
12    1  0.8461994E-002  0.2184008E+03  0.7818608E-02  0.1135416E+00
         21   -1    0    0  503  502  0.00000000000E+00  0.00000000000E+00  0.20464054399E+04  0.20464054399E+04  0.00000000000E+00 0.  1.
         21   -1    0    0  501  503 -0.00000000000E+00 -0.00000000000E+00 -0.24260568784E+02  0.24260568784E+02  0.00000000000E+00 0.  1.
          6    2    1    2  501    0  0.12011834086E+03  0.59118142092E+02  0.79050511059E+03  0.82012026587E+03  0.17255593324E+03 0.  0.
         24    2    3    3    0    0  0.12841091957E+03  0.61090647485E+02  0.79450772200E+03  0.80959560258E+03  0.63095862900E+02 0.  0.
         -6    2    1    2    0  502 -0.12011834086E+03 -0.59118142092E+02  0.12316397605E+04  0.12505457428E+04  0.17030791118E+03 0.  0.
        -24    2    5    5    0    0 -0.60282974752E+02 -0.95765719864E+02  0.97064252503E+03  0.98024042852E+03  0.76936832335E+02 0.  0.
          5    1    3    3  501    0 -0.82925787176E+01 -0.19725053925E+01 -0.40026114164E+01  0.10524663294E+02  0.47000000000E+01 0. -1.
        -11    1    4    4    0    0  0.21990950966E+02 -0.13126840533E+02  0.14759780942E+03  0.14980330174E+03  0.00000000000E+00 0.  1.
         12    1    4    4    0    0  0.10641996861E+03  0.74217488018E+02  0.64690991258E+03  0.65979230084E+03  0.00000000000E+00 0. -1.
         -5    1    5    5    0  502 -0.59835366105E+02  0.36647577772E+02  0.26099723549E+03  0.27030531428E+03  0.47000000000E+01 0.  1.
         13    1    6    6    0    0 -0.72404320870E+01  0.13239657840E+02  0.13729725573E+03  0.13812403421E+03  0.00000000000E+00 0. -1.
        -14    1    6    6    0    0 -0.53042542665E+02 -0.10900537770E+03  0.83334526930E+03  0.84211639431E+03  0.00000000000E+00 0.  1.
</event>
<event>
12    1  0.8461994E-002  0.2128427E+03  0.7818608E-02  0.1139510E+00
         21   -1    0    0  503  502  0.00000000000E+00  0.00000000000E+00  0.10452704004E+03  0.10452704004E+03  0.00000000000E+00 0.  1.
         21   -1    0    0  501  503 -0.00000000000E+00 -0.00000000000E+00 -0.43417610917E+03  0.43417610917E+03  0.00000000000E+00 0.  1.
          6    2    1    2  501    0 -0.91847838591E+02 -0.85902917942E+02 -0.14362317698E+03  0.25602374989E+03  0.17060248174E+03 0.  0.
         24    2    3    3    0    0 -0.65285785073E+02 -0.31360798826E+02 -0.16044576104E+03  0.19289313308E+03  0.78861810265E+02 0.  0.
         -6    2    1    2    0  502  0.91847838591E+02  0.85902917942E+02 -0.18602589215E+03  0.28267939933E+03  0.17171684102E+03 0.  0.
        -24    2    5    5    0    0  0.66806229029E+02  0.13931311485E+02 -0.36240379782E+02  0.11455806201E+03  0.84575592036E+02 0.  0.
          5    1    3    3  501    0 -0.26562053518E+02 -0.54542119116E+02  0.16822584058E+02  0.63130616812E+02  0.47000000000E+01 0. -1.
        -13    1    4    4    0    0 -0.82006388404E+02 -0.20186902947E+02 -0.11070957969E+03  0.13924499928E+03  0.00000000000E+00 0.  1.
         14    1    4    4    0    0  0.16720603332E+02 -0.11173895879E+02 -0.49736181345E+02  0.53648133795E+02  0.00000000000E+00 0. -1.
         -5    1    5    5    0  502  0.25041609561E+02  0.71971606457E+02 -0.14978551237E+03  0.16812133732E+03  0.47000000000E+01 0.  1.
         11    1    6    6    0    0  0.12051761885E+01 -0.29482594410E+02 -0.50574545518E+01  0.29937496043E+02  0.00000000000E+00 0. -1.
        -12    1    6    6    0    0  0.65601052841E+02  0.43413905895E+02 -0.31182925230E+02  0.84620565968E+02  0.00000000000E+00 0.  1.
</event>
<event>
12    1  0.8461994E-002  0.3267177E+03  0.7818608E-02  0.1072689E+00
         21   -1    0    0  503  502  0.00000000000E+00  0.00000000000E+00  0.10359657293E+03  0.10359657293E+03  0.00000000000E+00 0. -1.
         21   -1    0    0  501  503 -0.00000000000E+00 -0.00000000000E+00 -0.12172222159E+04  0.12172222159E+04  0.00000000000E+00 0. -1.
          6    2    1    2  501    0 -0.70286112579E+02 -0.26788768662E+03 -0.81789056414E+03  0.88073232279E+03  0.17332195252E+03 0.  0.
         24    2    3    3    0    0 -0.81876197061E+02 -0.13397248580E+03 -0.59951562681E+03  0.62426143881E+03  0.75040113342E+02 0.  0.
         -6    2    1    2    0  502  0.70286112579E+02  0.26788768662E+03 -0.29573507882E+03  0.44008646604E+03  0.17179322013E+03 0.  0.
        -24    2    5    5    0    0  0.83231158139E+02  0.22808715146E+03 -0.16873731430E+03  0.30628744139E+03  0.79928350228E+02 0.  0.
          5    1    3    3  501    0  0.11590084482E+02 -0.13391520082E+03 -0.21837493734E+03  0.25647088397E+03  0.47000000000E+01 0. -1.
        -13    1    4    4    0    0 -0.37770857656E+02 -0.11928525288E+03 -0.47953482964E+03  0.49558981233E+03  0.00000000000E+00 0.  1.
         14    1    4    4    0    0 -0.44105339405E+02 -0.14687232918E+02 -0.11998079716E+03  0.12867162649E+03  0.00000000000E+00 0. -1.
         -5    1    5    5    0  502 -0.12945045561E+02  0.39800535162E+02 -0.12699776452E+03  0.13379902465E+03  0.47000000000E+01 0.  1.
         11    1    6    6    0    0  0.64199468698E+02  0.20121124993E+03 -0.10804626619E+03  0.23723729579E+03  0.00000000000E+00 0. -1.
        -12    1    6    6    0    0  0.19031689441E+02  0.26875901534E+02 -0.60691048110E+02  0.69050145597E+02  0.00000000000E+00 0.  1.
</event>
<event>
12    1  0.8461994E-002  0.1821192E+03  0.7818608E-02  0.1166105E+00
         21   -1    0    0  503  502  0.00000000000E+00  0.00000000000E+00  0.17695887961E+03  0.17695887961E+03  0.00000000000E+00 0.  1.
         21   -1    0    0  501  503 -0.00000000000E+00 -0.00000000000E+00 -0.26343271319E+03  0.26343271319E+03  0.00000000000E+00 0. -1.
          6    2    1    2  501    0 -0.12963188464E+02 -0.57972241930E+02 -0.16275075091E+03  0.24424412334E+03  0.17215853094E+03 0.  0.
         24    2    3    3    0    0 -0.10816142248E+02 -0.85887089554E+02 -0.52909688841E+02  0.13079370492E+03  0.82546816941E+02 0.  0.
         -6    2    1    2    0  502  0.12963188464E+02  0.57972241930E+02  0.76276917322E+02  0.19614746946E+03  0.17066586235E+03 0.  0.
        -24    2    5    5    0    0 -0.52291069655E+02  0.49895186796E+02  0.11138609913E+02  0.10347359982E+03  0.73204040854E+02 0.  0.
          5    1    3    3  501    0 -0.21470462159E+01  0.27914847624E+02 -0.10984106206E+03  0.11345041842E+03  0.47000000000E+01 0. -1.
        -13    1    4    4    0    0 -0.76676640333E+01 -0.66984609742E+02 -0.75465513954E+02  0.10119671344E+03  0.00000000000E+00 0.  1.
         14    1    4    4    0    0 -0.31484782152E+01 -0.18902479813E+02  0.22555825112E+02  0.29596991480E+02  0.00000000000E+00 0. -1.
         -5    1    5    5    0  502  0.65254258120E+02  0.80770551340E+01  0.65138307410E+02  0.92673869643E+02  0.47000000000E+01 0.  1.
         11    1    6    6    0    0 -0.37491301077E+01 -0.14192898053E+02 -0.12918834763E+02  0.19554810747E+02  0.00000000000E+00 0. -1.
        -12    1    6    6    0    0 -0.48541939548E+02  0.64088084850E+02  0.24057444676E+02  0.83918789071E+02  0.00000000000E+00 0.  1.
</event>
<event>
12    1  0.8461994E-002  0.2056513E+03  0.7818608E-02  0.1145101E+00
         21   -1    0    0  501  502  0.00000000000E+00  0.00000000000E+00  0.46938451366E+02  0.46938451366E+02  0.00000000000E+00 0.  1.
         21   -1    0    0  502  503 -0.00000000000E+00 -0.00000000000E+00 -0.94330092833E+03  0.94330092833E+03  0.00000000000E+00 0. -1.
         -6    2    1    2    0  503  0.29353442447E+02  0.10932195760E+03 -0.55396101907E+03  0.59082577779E+03  0.17143329330E+03 0.  0.
        -24    2    3    3    0    0 -0.36010279701E+02  0.94877961736E+02 -0.26382319852E+03  0.29302871584E+03  0.77230695732E+02 0.  0.
          6    2    1    2  501    0 -0.29353442447E+02 -0.10932195760E+03 -0.34240145789E+03  0.39941360191E+03  0.17169610370E+03 0.  0.
         24    2    5    5    0    0 -0.69952096633E+02 -0.50324814139E+02 -0.13425102273E+03  0.17923729229E+03  0.81711609348E+02 0.  0.
          5    1    5    5  501    0  0.40598654187E+02 -0.58997143459E+02 -0.20815043516E+03  0.22017630961E+03  0.47000000000E+01 0. -1.
        -13    1    6    6    0    0  0.13030431352E+01  0.64531782885E+01  0.79687352845E+01  0.10336448784E+02  0.00000000000E+00 0.  1.
         14    1    6    6    0    0 -0.71255139769E+02 -0.56777992428E+02 -0.14221975802E+03  0.16890084351E+03  0.00000000000E+00 0. -1.
         -5    1    3    3    0  503  0.65363722147E+02  0.14443995862E+02 -0.29013782055E+03  0.29779706194E+03  0.47000000000E+01 0.  1.
         13    1    4    4    0    0 -0.65662626767E+01  0.81832918229E+02 -0.11836831672E+03  0.14405138220E+03  0.00000000000E+00 0. -1.
        -14    1    4    4    0    0 -0.29444017024E+02  0.13045043506E+02 -0.14545488180E+03  0.14897733364E+03  0.00000000000E+00 0.  1.
</event>
<event>
12    1  0.8461994E-002  0.2045692E+03  0.7818608E-02  0.1146198E+00
         21   -1    0    0  503  502  0.00000000000E+00  0.00000000000E+00  0.78165760450E+02  0.78165760450E+02  0.00000000000E+00 0. -1.
         21   -1    0    0  501  503 -0.00000000000E+00 -0.00000000000E+00 -0.56588700148E+03  0.56588700148E+03  0.00000000000E+00 0. -1.
          6    2    1    2  501    0  0.42995036600E+02  0.10236001946E+03 -0.32325556318E+03  0.38254766604E+03  0.17182086866E+03 0.  0.
         24    2    3    3    0    0  0.28835662412E+02 -0.16763247177E+02 -0.12955322549E+03  0.15465838117E+03  0.77605893769E+02 0.  0.
         -6    2    1    2    0  502 -0.42995036600E+02 -0.10236001946E+03 -0.16446567785E+03  0.26150509589E+03  0.17032266212E+03 0.  0.
        -24    2    5    5    0    0  0.14058272571E+02 -0.11386104225E+03 -0.13824306517E+03  0.19749674465E+03  0.82047834282E+02 0.  0.
          5    1    3    3  501    0  0.14159374187E+02  0.11912326664E+03 -0.19370233769E+03  0.22788928487E+03  0.47000000000E+01 0. -1.
        -13    1    4    4    0    0 -0.34551863921E+01  0.13811834669E+02 -0.10058100498E+03  0.10158367808E+03  0.00000000000E+00 0.  1.
         14    1    4    4    0    0  0.32290848804E+02 -0.30575081847E+02 -0.28972220515E+02  0.53074703089E+02  0.00000000000E+00 0. -1.
         -5    1    5    5    0  502 -0.57053309171E+02  0.11501022791E+02 -0.26222612685E+02  0.64008351241E+02  0.47000000000E+01 0.  1.
         13    1    6    6    0    0 -0.18403787888E+02 -0.46131785816E+02 -0.10338185065E+03  0.11469371437E+03  0.00000000000E+00 0. -1.
        -14    1    6    6    0    0  0.32462060460E+02 -0.67729256439E+02 -0.34861214517E+02  0.82803030286E+02  0.00000000000E+00 0.  1.
</event>
<event>
12    1  0.8461994E-002  0.2425965E+03  0.7818608E-02  0.1118128E+00
         21   -1    0    0  503  502  0.00000000000E+00  0.00000000000E+00  0.95618471718E+02  0.95618471718E+02  0.00000000000E+00 0. -1.
         21   -1    0    0  501  503 -0.00000000000E+00 -0.00000000000E+00 -0.70131163589E+03  0.70131163589E+03  0.00000000000E+00 0.  1.
          6    2    1    2  501    0 -0.16255853812E+03 -0.52783005002E+02 -0.44306392199E+03  0.50513235042E+03  0.17216773373E+03 0.  0.
         24    2    3    3    0    0 -0.15175769252E+03 -0.93808194282E+02 -0.39834761783E+03  0.44331518226E+03  0.77570301287E+02 0.  0.
         -6    2    1    2    0  502  0.16255853812E+03  0.52783005002E+02 -0.16262924218E+03  0.29179775718E+03  0.17171586051E+03 0.  0.
        -24    2    5    5    0    0  0.11676046116E+03  0.95699895469E+02 -0.14662043567E+03  0.22685397206E+03  0.84697681187E+02 0.  0.
          5    1    3    3  501    0 -0.10800845599E+02  0.41025189280E+02 -0.44716304167E+02  0.61817168161E+02  0.47000000000E+01 0. -1.
        -11    1    4    4    0    0 -0.71147330851E+02 -0.68871181301E+01 -0.19818715318E+03  0.21068346582E+03  0.00000000000E+00 0.  1.
         12    1    4    4    0    0 -0.80610361673E+02 -0.86921076152E+02 -0.20016046464E+03  0.23263171644E+03  0.00000000000E+00 0. -1.
         -5    1    5    5    0  502  0.45798076960E+02 -0.42916890466E+02 -0.16008806509E+02  0.64943785125E+02  0.47000000000E+01 0.  1.
         11    1    6    6    0    0  0.56655263634E+02  0.34196793882E+02 -0.12217920886E+02  0.67294258299E+02  0.00000000000E+00 0. -1.
        -12    1    6    6    0    0  0.60105197530E+02  0.61503101586E+02 -0.13440251478E+03  0.15955971376E+03  0.00000000000E+00 0.  1.
</event>
<event>
12    1  0.8461994E-002  0.1786028E+03  0.7818608E-02  0.1171163E+00
         21   -1    0    0  501  502  0.00000000000E+00  0.00000000000E+00  0.18390218601E+03  0.18390218601E+03  0.00000000000E+00 0. -1.
         21   -1    0    0  502  503 -0.00000000000E+00 -0.00000000000E+00 -0.34514109292E+03  0.34514109292E+03  0.00000000000E+00 0.  1.
         -6    2    1    2    0  503 -0.48795938527E+02  0.60721446672E+01 -0.27039605475E+03  0.31972473234E+03  0.16337675321E+03 0.  0.
        -24    2    3    3    0    0 -0.69043118816E+02 -0.20287241070E+02 -0.10366305383E+03  0.14964607665E+03  0.80432550139E+02 0.  0.
          6    2    1    2  501    0  0.48795938527E+02 -0.60721446672E+01  0.10915714785E+03  0.20931854659E+03  0.17170048475E+03 0.  0.
         24    2    5    5    0    0  0.37774591256E+02 -0.58542911918E+02  0.11196765953E+03  0.15542382989E+03  0.82253375844E+02 0.  0.
          5    1    5    5  501    0  0.11021347271E+02  0.52470767251E+02 -0.28105116832E+01  0.53894716694E+02  0.47000000000E+01 0. -1.
        -13    1    6    6    0    0 -0.23903344909E+02 -0.26210003118E+02  0.22338571955E+02  0.41920710374E+02  0.00000000000E+00 0.  1.
         14    1    6    6    0    0  0.61677936165E+02 -0.32332908800E+02  0.89629087575E+02  0.11350311952E+03  0.00000000000E+00 0. -1.
         -5    1    3    3    0  503  0.20247180289E+02  0.26359385738E+02 -0.16673300092E+03  0.17007865569E+03  0.47000000000E+01 0.  1.
         11    1    4    4    0    0  0.16852620213E+02 -0.12713384359E+02 -0.26939108160E+02  0.34225085805E+02  0.00000000000E+00 0. -1.
        -12    1    4    4    0    0 -0.85895739029E+02 -0.75738567110E+01 -0.76723945673E+02  0.11542099085E+03  0.00000000000E+00 0.  1.
</event>
<event>
12    1  0.8461994E-002  0.1887721E+03  0.7818608E-02  0.1159803E+00
         21   -1    0    0  503  502  0.00000000000E+00  0.00000000000E+00  0.89528528537E+03  0.89528528537E+03  0.00000000000E+00 0.  1.
         21   -1    0    0  501  503 -0.00000000000E+00 -0.00000000000E+00 -0.11654692944E+03  0.11654692944E+03  0.00000000000E+00 0.  1.
          6    2    1    2  501    0  0.25508001696E+02  0.72183354171E+02 -0.21378159259E+02  0.18997878715E+03  0.17255091742E+03 0.  0.
         24    2    3    3    0    0  0.39654462219E+02  0.30575745147E+02  0.49092503659E+02  0.10679513607E+03  0.80546723139E+02 0.  0.
         -6    2    1    2    0  502 -0.25508001696E+02 -0.72183354171E+02  0.80011651518E+03  0.82185342767E+03  0.17145122899E+03 0.  0.
        -24    2    5    5    0    0 -0.87270318698E+00 -0.64875104387E+01  0.65864193716E+03  0.66386612424E+03  0.82862416845E+02 0.  0.
          5    1    3    3  501    0 -0.14146460523E+02  0.41607609023E+02 -0.70470662917E+02  0.83183651074E+02  0.47000000000E+01 0. -1.
        -13    1    4    4    0    0  0.95352371256E+01  0.52085251970E+02  0.11791085130E+02  0.54247800954E+02  0.00000000000E+00 0.  1.
         14    1    4    4    0    0  0.30119225094E+02 -0.21509506823E+02  0.37301418529E+02  0.52547335120E+02  0.00000000000E+00 0. -1.
         -5    1    5    5    0  502 -0.24635298509E+02 -0.65695843732E+02  0.14147457803E+03  0.15798730343E+03  0.47000000000E+01 0.  1.
         11    1    6    6    0    0  0.34114571088E+02  0.17843131016E+02  0.38579747924E+03  0.38771365242E+03  0.00000000000E+00 0. -1.
        -12    1    6    6    0    0 -0.34987274275E+02 -0.24330641454E+02  0.27284445791E+03  0.27615247181E+03  0.00000000000E+00 0.  1.
</event>
<event>
12    1  0.8461994E-002  0.1763776E+03  0.7818608E-02  0.1171440E+00
         21   -1    0    0  503  502  0.00000000000E+00  0.00000000000E+00  0.14920758971E+04  0.14920758971E+04  0.00000000000E+00 0.  1.
         21   -1    0    0  501  503 -0.00000000000E+00 -0.00000000000E+00 -0.21640341209E+02  0.21640341209E+02  0.00000000000E+00 0.  1.
          6    2    1    2  501    0 -0.14773297462E+02 -0.40035852892E+02  0.58623524962E+03  0.61209589151E+03  0.17078785867E+03 0.  0.
         24    2    3    3    0    0 -0.55544042616E+02 -0.18014910745E+02  0.52485512463E+03  0.53504535421E+03  0.85970643460E+02 0.  0.
         -6    2    1    2    0  502  0.14773297462E+02  0.40035852892E+02  0.88420030623E+03  0.90162034676E+03  0.17113722073E+03 0.  0.
        -24    2    5    5    0    0  0.49490612709E+02 -0.28941960047E+02  0.54652683527E+03  0.55519763727E+03  0.79157292577E+02 0.  0.
          5    1    3    3  501    0  0.40770745154E+02 -0.22020942147E+02  0.61380124990E+02  0.77050537294E+02  0.47000000000E+01 0. -1.
        -13    1    4    4    0    0  0.19351875815E+02 -0.20253516218E+02  0.11230340811E+03  0.11574435403E+03  0.00000000000E+00 0.  1.
         14    1    4    4    0    0 -0.74895918431E+02  0.22386054735E+01  0.41255171651E+03  0.41930100018E+03  0.00000000000E+00 0. -1.
         -5    1    5    5    0  502 -0.34717315247E+02  0.68977812939E+02  0.33767347096E+03  0.34642270948E+03  0.47000000000E+01 0.  1.
         13    1    6    6    0    0 -0.65389054776E+01 -0.18395696077E+02  0.31743376708E+02  0.37266618894E+02  0.00000000000E+00 0. -1.
        -14    1    6    6    0    0  0.56029518186E+02 -0.10546263970E+02  0.51478345856E+03  0.51793101838E+03  0.00000000000E+00 0.  1.
</event>
<event>
12    1  0.8461994E-002  0.1774698E+03  0.7818608E-02  0.1170712E+00
         21   -1    0    0  501  502  0.00000000000E+00  0.00000000000E+00  0.59906762000E+02  0.59906762000E+02  0.00000000000E+00 0.  1.
         21   -1    0    0  502  503 -0.00000000000E+00 -0.00000000000E+00 -0.52350945317E+03  0.52350945317E+03  0.00000000000E+00 0.  1.
         -6    2    1    2    0  503 -0.36716525346E+02  0.26262866589E+02 -0.21093398909E+03  0.27566045878E+03  0.17163245434E+03 0.  0.
        -24    2    3    3    0    0 -0.77314048402E+02  0.56980099811E+02 -0.13123934869E+03  0.18097660058E+03  0.79401318985E+02 0.  0.
          6    2    1    2  501    0  0.36716525346E+02 -0.26262866589E+02 -0.25266870208E+03  0.30775575640E+03  0.16980662881E+03 0.  0.
         24    2    5    5    0    0  0.39610283795E+02 -0.11536932677E+02 -0.26941747180E+03  0.28478102562E+03  0.82537161594E+02 0.  0.
          5    1    5    5  501    0 -0.28937584488E+01 -0.14725933912E+02  0.16748769713E+02  0.22974730781E+02  0.47000000000E+01 0. -1.
        -13    1    6    6    0    0  0.62244019024E+02  0.19991765996E+01 -0.14865919782E+03  0.16117652344E+03  0.00000000000E+00 0.  1.
         14    1    6    6    0    0 -0.22633735229E+02 -0.13536109277E+02 -0.12075827398E+03  0.12360450218E+03  0.00000000000E+00 0. -1.
         -5    1    3    3    0  503  0.40597523056E+02 -0.30717233222E+02 -0.79694640395E+02  0.94683858196E+02  0.47000000000E+01 0.  1.
         13    1    4    4    0    0 -0.35053997737E+02  0.35750687226E+02 -0.10297379593E+02  0.51116831092E+02  0.00000000000E+00 0. -1.
        -14    1    4    4    0    0 -0.42260050666E+02  0.21229412586E+02 -0.12094196910E+03  0.12985976949E+03  0.00000000000E+00 0.  1.
</event>
<event>
12    1  0.8461994E-002  0.1942719E+03  0.7818608E-02  0.1155004E+00
         21   -1    0    0  501  502  0.00000000000E+00  0.00000000000E+00  0.61594638048E+02  0.61594638048E+02  0.00000000000E+00 0.  1.
         21   -1    0    0  502  503 -0.00000000000E+00 -0.00000000000E+00 -0.11817274347E+04  0.11817274347E+04  0.00000000000E+00 0.  1.
         -6    2    1    2    0  503  0.87093227668E+02  0.20479636493E+02 -0.99442277129E+03  0.10132217116E+04  0.17244402875E+03 0.  0.
        -24    2    3    3    0    0  0.89058018561E+02  0.30062186448E+02 -0.39595752836E+03  0.41465807871E+03  0.79522903924E+02 0.  0.
          6    2    1    2  501    0 -0.87093227668E+02 -0.20479636493E+02 -0.12571002537E+03  0.23010036112E+03  0.17070008756E+03 0.  0.
         24    2    5    5    0    0 -0.89609011834E+02 -0.60493247527E+02 -0.48535160491E+02  0.14300576883E+03  0.80036117567E+02 0.  0.
          5    1    5    5  501    0  0.25157841663E+01  0.40013611034E+02 -0.77174864876E+02  0.87094592293E+02  0.47000000000E+01 0. -1.
        -11    1    6    6    0    0 -0.36554299617E+02 -0.31940923434E+02 -0.64453234870E+02  0.80688654069E+02  0.00000000000E+00 0.  1.
         12    1    6    6    0    0 -0.53054712218E+02 -0.28552324093E+02  0.15918074379E+02  0.62317114756E+02  0.00000000000E+00 0. -1.
         -5    1    3    3    0  503 -0.19647908935E+01 -0.95825499550E+01 -0.59846524292E+03  0.59856363292E+03  0.47000000000E+01 0.  1.
         13    1    4    4    0    0 -0.10635613900E+02 -0.10997169426E+02 -0.47977775087E+02  0.50357928082E+02  0.00000000000E+00 0. -1.
        -14    1    4    4    0    0  0.99693632461E+02  0.41059355874E+02 -0.34797975327E+03  0.36430015063E+03  0.00000000000E+00 0.  1.
</event>
<event>
12    1  0.8461994E-002  0.1993194E+03  0.7818608E-02  0.1150609E+00
         21   -1    0    0  501  502  0.00000000000E+00  0.00000000000E+00  0.36379686604E+03  0.36379686604E+03  0.00000000000E+00 0. -1.
         21   -1    0    0  502  503 -0.00000000000E+00 -0.00000000000E+00 -0.11565446575E+03  0.11565446575E+03  0.00000000000E+00 0. -1.
         -6    2    1    2    0  503  0.10034507160E+03 -0.94326677233E+01  0.18431527203E+03  0.27147806489E+03  0.17195962201E+03 0.  0.
        -24    2    3    3    0    0  0.51782302593E+02 -0.32446147710E+02  0.34105185027E+02  0.11187504791E+03  0.87285183939E+02 0.  0.
          6    2    1    2  501    0 -0.10034507160E+03  0.94326677233E+01  0.63827128272E+02  0.20797326690E+03  0.17035512562E+03 0.  0.
         24    2    5    5    0    0 -0.13252866349E+03  0.32591046824E+02  0.50595364652E+02  0.16591065074E+03  0.79626817870E+02 0.  0.
          5    1    5    5  501    0  0.32183591892E+02 -0.23158379100E+02  0.13231763620E+02  0.42062616158E+02  0.47000000000E+01 0. -1.
        -13    1    6    6    0    0 -0.33542576812E+02  0.46598131044E+02  0.25583865673E+02  0.62857175077E+02  0.00000000000E+00 0.  1.
         14    1    6    6    0    0 -0.98986086681E+02 -0.14007084220E+02  0.25011498979E+02  0.10305347566E+03  0.00000000000E+00 0. -1.
         -5    1    3    3    0  503  0.48562769008E+02  0.23013479986E+02  0.15021008700E+03  0.15960301699E+03  0.47000000000E+01 0.  1.
         11    1    4    4    0    0  0.71399524789E+02 -0.43795009871E+02  0.24596416392E+02  0.87297644464E+02  0.00000000000E+00 0. -1.
        -12    1    4    4    0    0 -0.19617222195E+02  0.11348862161E+02  0.95087686347E+01  0.24577403442E+02  0.00000000000E+00 0.  1.
</event>
<event>
12    1  0.8461994E-002  0.1768927E+03  0.7818608E-02  0.1171422E+00
         21   -1    0    0  503  502  0.00000000000E+00  0.00000000000E+00  0.53274025452E+02  0.53274025452E+02  0.00000000000E+00 0.  1.
         21   -1    0    0  501  503 -0.00000000000E+00 -0.00000000000E+00 -0.62568787382E+03  0.62568787382E+03  0.00000000000E+00 0. -1.
          6    2    1    2  501    0 -0.13760086183E+02 -0.27436940494E+02 -0.19242418056E+03  0.25981613931E+03  0.17185818370E+03 0.  0.
         24    2    3    3    0    0  0.20193820925E+02 -0.72787151942E+02 -0.16183120005E+03  0.19525973031E+03  0.78938362537E+02 0.  0.
         -6    2    1    2    0  502  0.13760086183E+02  0.27436940494E+02 -0.37998966781E+03  0.41914575996E+03  0.17420934182E+03 0.  0.
        -24    2    5    5    0    0  0.60061607782E+02  0.28281935231E+02 -0.34690462464E+03  0.36203836114E+03  0.79509067098E+02 0.  0.
          5    1    3    3  501    0 -0.33953907108E+02  0.45350211448E+02 -0.30592980509E+02  0.64556408998E+02  0.47000000000E+01 0. -1.
        -13    1    4    4    0    0  0.50160902628E+01 -0.77391977131E+02 -0.78193128177E+02  0.11013103368E+03  0.00000000000E+00 0.  1.
         14    1    4    4    0    0  0.15177730662E+02  0.46048251890E+01 -0.83638071872E+02  0.85128696628E+02  0.00000000000E+00 0. -1.
         -5    1    5    5    0  502 -0.46301521599E+02 -0.84499473707E+00 -0.33085043161E+02  0.57107398815E+02  0.47000000000E+01 0.  1.
         13    1    6    6    0    0  0.62176446531E+02 -0.10894700504E+02 -0.23997541873E+03  0.24813868420E+03  0.00000000000E+00 0. -1.
        -14    1    6    6    0    0 -0.21148387485E+01  0.39176635735E+02 -0.10692920592E+03  0.11389967695E+03  0.00000000000E+00 0.  1.
</event>
<event>
12    1  0.8461994E-002  0.2075983E+03  0.7818608E-02  0.1144165E+00
         21   -1    0    0  503  502  0.00000000000E+00  0.00000000000E+00  0.25685520424E+03  0.25685520424E+03  0.00000000000E+00 0. -1.
         21   -1    0    0  501  503 -0.00000000000E+00 -0.00000000000E+00 -0.23550954634E+03  0.23550954634E+03  0.00000000000E+00 0. -1.
          6    2    1    2  501    0 -0.87782523758E+02 -0.67371232609E+02 -0.12389178559E+03  0.24175655473E+03  0.17564852051E+03 0.  0.
         24    2    3    3    0    0 -0.85318867684E+02 -0.74821294407E+02 -0.22970312967E+02  0.14042143417E+03  0.79454443655E+02 0.  0.
         -6    2    1    2    0  502  0.87782523758E+02  0.67371232609E+02  0.14523744349E+03  0.25060819585E+03  0.17165633800E+03 0.  0.
        -24    2    5    5    0    0 -0.14309226306E+02  0.96960560829E+01  0.32549756295E+02  0.87912909307E+02  0.79814945511E+02 0.  0.
          5    1    3    3  501    0 -0.24636560747E+01  0.74500617979E+01 -0.10092147263E+03  0.10133512056E+03  0.47000000000E+01 0. -1.
        -13    1    4    4    0    0 -0.97760196262E+02 -0.52196892805E+02 -0.93144482922E+01  0.11121299627E+03  0.00000000000E+00 0.  1.
         14    1    4    4    0    0  0.12441328578E+02 -0.22624401602E+02 -0.13655864675E+02  0.29208437902E+02  0.00000000000E+00 0. -1.
         -5    1    5    5    0  502  0.10209175006E+03  0.57675176526E+02  0.11268768719E+03  0.16269528654E+03  0.47000000000E+01 0.  1.
         13    1    6    6    0    0  0.35301504901E+01 -0.13118223705E+02  0.51527314354E+02  0.53288027551E+02  0.00000000000E+00 0. -1.
        -14    1    6    6    0    0 -0.17839376796E+02  0.22814279788E+02 -0.18977558059E+02  0.34624881756E+02  0.00000000000E+00 0.  1.
</event>
<event>
12    1  0.8461994E-002  0.2046716E+03  0.7818608E-02  0.1145952E+00
         21   -1    0    0  501  502  0.00000000000E+00  0.00000000000E+00  0.19629239007E+03  0.19629239007E+03  0.00000000000E+00 0. -1.
         21   -1    0    0  502  503 -0.00000000000E+00 -0.00000000000E+00 -0.26739510170E+03  0.26739510170E+03  0.00000000000E+00 0.  1.
         -6    2    1    2    0  503  0.87630674985E+02 -0.66022155245E+02 -0.14022435398E+03  0.24809942566E+03  0.17277845752E+03 0.  0.
        -24    2    3    3    0    0  0.13846939219E+02  0.16974234000E+02 -0.15377671962E+02  0.80943138604E+02  0.76390160011E+02 0.  0.
          6    2    1    2  501    0 -0.87630674985E+02  0.66022155245E+02  0.69121642343E+02  0.21558806611E+03  0.17222761865E+03 0.  0.
         24    2    5    5    0    0 -0.50399026238E+02 -0.22068681073E+02  0.72523576389E+02  0.11977651009E+03  0.77843783998E+02 0.  0.
          5    1    5    5  501    0 -0.37231648747E+02  0.88090836318E+02 -0.34019340465E+01  0.95811556020E+02  0.47000000000E+01 0. -1.
        -11    1    6    6    0    0 -0.18848645776E+02 -0.16301606913E+02  0.82504805776E+02  0.86186175294E+02  0.00000000000E+00 0.  1.
         12    1    6    6    0    0 -0.31550380463E+02 -0.57670741596E+01 -0.99812293874E+01  0.33590334797E+02  0.00000000000E+00 0. -1.
         -5    1    3    3    0  503  0.73783735766E+02 -0.82996389245E+02 -0.12484668202E+03  0.16715628706E+03  0.47000000000E+01 0.  1.
         11    1    4    4    0    0 -0.27534257861E+02 -0.76307846301E+01 -0.16096299636E+02  0.32794131975E+02  0.00000000000E+00 0. -1.
        -12    1    4    4    0    0  0.41381197081E+02  0.24605018630E+02  0.71862767370E+00  0.48149006629E+02  0.00000000000E+00 0.  1.
</event>
<event>
12    1  0.8461994E-002  0.1844850E+03  0.7818608E-02  0.1163861E+00
         21   -1    0    0  503  502  0.00000000000E+00  0.00000000000E+00  0.78848777833E+03  0.78848777833E+03  0.00000000000E+00 0.  1.
         21   -1    0    0  501  503 -0.00000000000E+00 -0.00000000000E+00 -0.70518421390E+02  0.70518421390E+02  0.00000000000E+00 0.  1.
          6    2    1    2  501    0 -0.39883956460E+02  0.51066160771E+02  0.90722589032E+02  0.20558527594E+03  0.17273168430E+03 0.  0.
         24    2    3    3    0    0 -0.70222251712E+02  0.76420617758E+02  0.99352421256E+02  0.16484433029E+03  0.80817536253E+02 0.  0.
         -6    2    1    2    0  502  0.39883956460E+02 -0.51066160771E+02  0.62724676791E+03  0.65342092378E+03  0.17123642436E+03 0.  0.
        -24    2    5    5    0    0  0.54484953769E+02  0.48731506321E+01  0.51768820720E+03  0.52945494496E+03  0.96587271816E+02 0.  0.
          5    1    3    3  501    0  0.30338295252E+02 -0.25354456987E+02 -0.86298322234E+01  0.40740945646E+02  0.47000000000E+01 0. -1.
        -13    1    4    4    0    0 -0.49197657578E+02  0.69904592935E+02  0.27653898920E+02  0.89843195346E+02  0.00000000000E+00 0.  1.
         14    1    4    4    0    0 -0.21024594134E+02  0.65160248232E+01  0.71698522336E+02  0.75001134946E+02  0.00000000000E+00 0. -1.
         -5    1    5    5    0  502 -0.14600997309E+02 -0.55939311403E+02  0.10955856071E+03  0.12396597883E+03  0.47000000000E+01 0.  1.
         13    1    6    6    0    0 -0.27621068553E+02  0.72025485135E+01  0.11668284390E+03  0.12012362879E+03  0.00000000000E+00 0. -1.
        -14    1    6    6    0    0  0.82106022323E+02 -0.23293978814E+01  0.40100536330E+03  0.40933131616E+03  0.00000000000E+00 0.  1.
</event>
<event>
12    1  0.8461994E-002  0.1915259E+03  0.7818608E-02  0.1157194E+00
         21   -1    0    0  503  502  0.00000000000E+00  0.00000000000E+00  0.34217938426E+02  0.34217938426E+02  0.00000000000E+00 0. -1.
         21   -1    0    0  501  503 -0.00000000000E+00 -0.00000000000E+00 -0.12535020376E+04  0.12535020376E+04  0.00000000000E+00 0. -1.
          6    2    1    2  501    0  0.57998769253E+02  0.59893943088E+02 -0.85695761531E+03  0.87809937682E+03  0.17242685257E+03 0.  0.
         24    2    3    3    0    0  0.39269657494E+02  0.50281246304E+02 -0.84866540442E+03  0.85499019405E+03  0.81883780688E+02 0.  0.
         -6    2    1    2    0  502 -0.57998769253E+02 -0.59893943088E+02 -0.36232648383E+03  0.40962059917E+03  0.17192269404E+03 0.  0.
        -24    2    5    5    0    0 -0.89729769302E+02 -0.84283029966E+02 -0.31466524268E+03  0.34720771724E+03  0.79899457568E+02 0.  0.
          5    1    3    3  501    0  0.18729111759E+02  0.96126967837E+01 -0.82922108854E+01  0.23109182766E+02  0.47000000000E+01 0. -1.
        -13    1    4    4    0    0  0.93714294429E+01  0.61754982823E+01 -0.62368407587E+03  0.62378504868E+03  0.00000000000E+00 0.  1.
         14    1    4    4    0    0  0.29898228051E+02  0.44105748022E+02 -0.22498132855E+03  0.23120514537E+03  0.00000000000E+00 0. -1.
         -5    1    5    5    0  502  0.31731000049E+02  0.24389086879E+02 -0.47661241156E+02  0.62412881934E+02  0.47000000000E+01 0.  1.
         11    1    6    6    0    0 -0.65306599624E+02 -0.60872901835E+02 -0.29469717537E+03  0.30792350886E+03  0.00000000000E+00 0. -1.
        -12    1    6    6    0    0 -0.24423169678E+02 -0.23410128131E+02 -0.19968067302E+02  0.39284208380E+02  0.00000000000E+00 0.  1.
</event>
<event>
12    1  0.8461994E-002  0.2357738E+03  0.7818608E-02  0.1123108E+00
         21   -1    0    0  503  502  0.00000000000E+00  0.00000000000E+00  0.83455438990E+02  0.83455438990E+02  0.00000000000E+00 0.  1.
         21   -1    0    0  501  503 -0.00000000000E+00 -0.00000000000E+00 -0.66013697813E+03  0.66013697813E+03  0.00000000000E+00 0. -1.
          6    2    1    2  501    0 -0.14107855939E+03 -0.72291045827E+02 -0.30896819423E+03  0.38865233433E+03  0.17452832636E+03 0.  0.
         24    2    3    3    0    0 -0.15462559847E+03 -0.10431552794E+03 -0.23715167661E+03  0.30872241548E+03  0.65404946535E+02 0.  0.
         -6    2    1    2    0  502  0.14107855939E+03  0.72291045827E+02 -0.26771334491E+03  0.35494008280E+03  0.17082995085E+03 0.  0.
        -24    2    5    5    0    0  0.17366053103E+03  0.55199800580E+02 -0.21279540434E+03  0.28866968415E+03  0.69593853329E+02 0.  0.
          5    1    3    3  501    0  0.13547039077E+02  0.32024482116E+02 -0.71816517624E+02  0.79929918843E+02  0.47000000000E+01 0. -1.
        -13    1    4    4    0    0 -0.94396533362E+02 -0.30009004193E+02 -0.14717656298E+03  0.17740402062E+03  0.00000000000E+00 0.  1.
         14    1    4    4    0    0 -0.60229065104E+02 -0.74306523750E+02 -0.89975113632E+02  0.13131839486E+03  0.00000000000E+00 0. -1.
         -5    1    5    5    0  502 -0.32581971639E+02  0.17091245248E+02 -0.54917940571E+02  0.66270398645E+02  0.47000000000E+01 0.  1.
         11    1    6    6    0    0  0.11791343681E+03  0.23012781840E+01 -0.12130904994E+03  0.16918853406E+03  0.00000000000E+00 0. -1.
        -12    1    6    6    0    0  0.55747094215E+02  0.52898522396E+02 -0.91486354401E+02  0.11948115009E+03  0.00000000000E+00 0.  1.
</event>
<event>
12    1  0.8461994E-002  0.1752836E+03  0.7818608E-02  0.1172601E+00
         21   -1    0    0  503  502  0.00000000000E+00  0.00000000000E+00  0.85545156976E+02  0.85545156976E+02  0.00000000000E+00 0.  1.
         21   -1    0    0  501  503 -0.00000000000E+00 -0.00000000000E+00 -0.51906010434E+03  0.51906010434E+03  0.00000000000E+00 0.  1.
          6    2    1    2  501    0  0.34186420255E+02 -0.15592815133E+01 -0.38493965108E+03  0.42271550118E+03  0.17128548473E+03 0.  0.
         24    2    3    3    0    0  0.54833616255E+02  0.53344723868E+02 -0.27520186789E+03  0.29819551255E+03  0.85627744214E+02 0.  0.
         -6    2    1    2    0  502 -0.34186420255E+02  0.15592815133E+01 -0.48575296285E+02  0.18188976013E+03  0.17191039161E+03 0.  0.
        -24    2    5    5    0    0 -0.32470155913E+02 -0.62597472571E+02 -0.45773027760E+02  0.11747720416E+03  0.82054669765E+02 0.  0.
          5    1    3    3  501    0 -0.20647196000E+02 -0.54904005381E+02 -0.10973778318E+03  0.12451998863E+03  0.47000000000E+01 0. -1.
        -11    1    4    4    0    0  0.79712576757E+01 -0.94011984488E+01 -0.27152270615E+00  0.12328714685E+02  0.00000000000E+00 0.  1.
         12    1    4    4    0    0  0.46862358579E+02  0.62745922317E+02 -0.27493034519E+03  0.28586679787E+03  0.00000000000E+00 0. -1.
         -5    1    5    5    0  502 -0.17162643426E+01  0.64156754084E+02 -0.28022685255E+01  0.64412555972E+02  0.47000000000E+01 0.  1.
         13    1    6    6    0    0 -0.31898613498E+02 -0.50856769434E+02 -0.68991034786E+02  0.91453241721E+02  0.00000000000E+00 0. -1.
        -14    1    6    6    0    0 -0.57154241443E+00 -0.11740703136E+02  0.23218007027E+02  0.26023962441E+02  0.00000000000E+00 0.  1.
</event>
<event>
12    1  0.8461994E-002  0.2396477E+03  0.7818608E-02  0.1120110E+00
         21   -1    0    0  503  502  0.00000000000E+00  0.00000000000E+00  0.10289506669E+03  0.10289506669E+03  0.00000000000E+00 0.  1.
         21   -1    0    0  501  503 -0.00000000000E+00 -0.00000000000E+00 -0.10243091688E+04  0.10243091688E+04  0.00000000000E+00 0.  1.
          6    2    1    2  501    0 -0.11841275492E+03 -0.11726634644E+03 -0.84112703200E+03  0.87446517947E+03  0.17152751854E+03 0.  0.
         24    2    3    3    0    0 -0.36912467392E+02  0.79477279514E+01 -0.37303137085E+03  0.38308294610E+03  0.78577626095E+02 0.  0.
         -6    2    1    2    0  502  0.11841275492E+03  0.11726634644E+03 -0.80287070092E+02  0.25273905599E+03  0.17221509882E+03 0.  0.
        -24    2    5    5    0    0  0.14815849947E+03  0.79170857689E+02 -0.44203884643E+02  0.19223978447E+03  0.82360097399E+02 0.  0.
          5    1    3    3  501    0 -0.81500287526E+02 -0.12521407439E+03 -0.46809566114E+03  0.49138223337E+03  0.47000000000E+01 0. -1.
        -11    1    4    4    0    0 -0.61730290495E+02  0.61591894752E+01 -0.27913680658E+03  0.28594740979E+03  0.00000000000E+00 0.  1.
         12    1    4    4    0    0  0.24817823102E+02  0.17885384761E+01 -0.93894564272E+02  0.97135536305E+02  0.00000000000E+00 0. -1.
         -5    1    5    5    0  502 -0.29745744548E+02  0.38095488755E+02 -0.36083185448E+02  0.60499271518E+02  0.47000000000E+01 0.  1.
         13    1    6    6    0    0  0.36482915654E+02  0.41753829232E+01 -0.44531293896E+02  0.57718914519E+02  0.00000000000E+00 0. -1.
        -14    1    6    6    0    0  0.11167558381E+03  0.74995474766E+02  0.32740925297E+00  0.13452086995E+03  0.00000000000E+00 0.  1.
</event>
<event>
12    1  0.8461994E-002  0.1939582E+03  0.7818608E-02  0.1154968E+00
         21   -1    0    0  501  502  0.00000000000E+00  0.00000000000E+00  0.18873153703E+03  0.18873153703E+03  0.00000000000E+00 0. -1.
         21   -1    0    0  502  503 -0.00000000000E+00 -0.00000000000E+00 -0.68125684024E+03  0.68125684024E+03  0.00000000000E+00 0. -1.
         -6    2    1    2    0  503 -0.78397539008E+02 -0.41809874158E+02 -0.61220259713E+03  0.64219295165E+03  0.17241092633E+03 0.  0.
        -24    2    3    3    0    0 -0.89722045293E+02  0.22912267401E+02 -0.31132498897E+03  0.33418869009E+03  0.78637233010E+02 0.  0.
          6    2    1    2  501    0  0.78397539008E+02  0.41809874158E+02  0.11967729392E+03  0.22779542562E+03  0.17226102738E+03 0.  0.
         24    2    5    5    0    0  0.61792557120E+02  0.49749807196E+01 -0.31794481978E+00  0.10109308895E+03  0.79853872768E+02 0.  0.
          5    1    5    5  501    0  0.16604981887E+02  0.36834893438E+02  0.11999523874E+03  0.12670233667E+03  0.47000000000E+01 0. -1.
        -13    1    6    6    0    0  0.16363082778E+02 -0.32179643898E+02  0.16999604202E+02  0.39903214187E+02  0.00000000000E+00 0.  1.
         14    1    6    6    0    0  0.45429474343E+02  0.37154624618E+02 -0.17317549022E+02  0.61189874764E+02  0.00000000000E+00 0. -1.
         -5    1    3    3    0  503  0.11324506285E+02 -0.64722141559E+02 -0.30087760815E+03  0.30800426156E+03  0.47000000000E+01 0.  1.
         11    1    4    4    0    0 -0.53242248289E+01  0.11954400657E+02 -0.16031109536E+03  0.16084434202E+03  0.00000000000E+00 0. -1.
        -12    1    4    4    0    0 -0.84397820464E+02  0.10957866743E+02 -0.15101389361E+03  0.17334434807E+03  0.00000000000E+00 0.  1.
</event>
<event>
12    1  0.8461994E-002  0.2172432E+03  0.7818608E-02  0.1136041E+00
         21   -1    0    0  501  502  0.00000000000E+00  0.00000000000E+00  0.97946564886E+02  0.97946564886E+02  0.00000000000E+00 0.  1.
         21   -1    0    0  502  503 -0.00000000000E+00 -0.00000000000E+00 -0.54225287964E+03  0.54225287964E+03  0.00000000000E+00 0. -1.
         -6    2    1    2    0  503 -0.39250105730E+02  0.12636591610E+03 -0.33007898485E+03  0.39515405060E+03  0.17229530439E+03 0.  0.
        -24    2    3    3    0    0  0.31624794319E+02  0.11056811042E+03 -0.22637159295E+03  0.26846492220E+03  0.87200239097E+02 0.  0.
          6    2    1    2  501    0  0.39250105730E+02 -0.12636591610E+03 -0.11422732991E+03  0.24504539393E+03  0.17172782720E+03 0.  0.
         24    2    5    5    0    0  0.55021955373E+02 -0.99914833058E+01 -0.69537082156E+02  0.11930332422E+03  0.79187322616E+02 0.  0.
          5    1    5    5  501    0 -0.15771849643E+02 -0.11637443280E+03 -0.44690247756E+02  0.12574206971E+03  0.47000000000E+01 0. -1.
        -13    1    6    6    0    0  0.57404298604E+02 -0.92665526647E+01 -0.91476468169E+01  0.58862568231E+02  0.00000000000E+00 0.  1.
         14    1    6    6    0    0 -0.23823432308E+01 -0.72493064114E+00 -0.60389435340E+02  0.60440755987E+02  0.00000000000E+00 0. -1.
         -5    1    3    3    0  503 -0.70874900049E+02  0.15797805682E+02 -0.10370739190E+03  0.12668912840E+03  0.47000000000E+01 0.  1.
         13    1    4    4    0    0  0.42731656983E+02  0.12613272002E+02 -0.87092442812E+02  0.97827310778E+02  0.00000000000E+00 0. -1.
        -14    1    4    4    0    0 -0.11106862664E+02  0.97954838421E+02 -0.13927915014E+03  0.17063761142E+03  0.00000000000E+00 0.  1.
</event>
<event>
12    1  0.8461994E-002  0.2073045E+03  0.7818608E-02  0.1144037E+00
         21   -1    0    0  501  502  0.00000000000E+00  0.00000000000E+00  0.76194353746E+03  0.76194353746E+03  0.00000000000E+00 0. -1.
         21   -1    0    0  502  503 -0.00000000000E+00 -0.00000000000E+00 -0.11340904854E+03  0.11340904854E+03  0.00000000000E+00 0. -1.
         -6    2    1    2    0  503 -0.91809569366E+01  0.11586689629E+03  0.12185278085E+02  0.20608770418E+03  0.16974755723E+03 0.  0.
        -24    2    3    3    0    0  0.10874136059E+02  0.11856394275E+03 -0.40765986228E+02  0.14920706418E+03  0.80157513763E+02 0.  0.
          6    2    1    2  501    0  0.91809569366E+01 -0.11586689629E+03  0.63634921083E+03  0.66926488182E+03  0.17165586584E+03 0.  0.
         24    2    5    5    0    0 -0.31549074934E+02 -0.14935644100E+02  0.16991799525E+03  0.19028030791E+03  0.78205197248E+02 0.  0.
          5    1    5    5  501    0  0.40730031870E+02 -0.10093125219E+03  0.46643121559E+03  0.47898457390E+03  0.47000000000E+01 0. -1.
        -11    1    6    6    0    0  0.17053380714E+02 -0.30166394532E+02  0.72181397617E+02  0.80068616291E+02  0.00000000000E+00 0.  1.
         12    1    6    6    0    0 -0.48602455648E+02  0.15230750432E+02  0.97736597631E+02  0.11021169162E+03  0.00000000000E+00 0. -1.
         -5    1    3    3    0  503 -0.20055092995E+02 -0.26970464565E+01  0.52951264314E+02  0.56880640002E+02  0.47000000000E+01 0.  1.
         13    1    4    4    0    0 -0.13168796173E+02  0.11700242401E+03 -0.24861168376E+02  0.12033728479E+03  0.00000000000E+00 0. -1.
        -14    1    4    4    0    0  0.24042932232E+02  0.15615187349E+01 -0.15904817853E+02  0.28869779389E+02  0.00000000000E+00 0.  1.
</event>
<event>
12    1  0.8461994E-002  0.1741411E+03  0.7818608E-02  0.1173656E+00
         21   -1    0    0  503  502  0.00000000000E+00  0.00000000000E+00  0.97090052223E+02  0.97090052223E+02  0.00000000000E+00 0.  1.
         21   -1    0    0  501  503 -0.00000000000E+00 -0.00000000000E+00 -0.80443816064E+03  0.80443816064E+03  0.00000000000E+00 0.  1.
          6    2    1    2  501    0 -0.26361318742E+02  0.19521083303E+02 -0.70628830181E+03  0.72738384384E+03  0.17078670669E+03 0.  0.
         24    2    3    3    0    0 -0.58068048120E+02 -0.29850154169E+02 -0.25740709076E+03  0.27465957078E+03  0.70118040001E+02 0.  0.
         -6    2    1    2    0  502  0.26361318742E+02 -0.19521083303E+02 -0.10598066047E+01  0.17414436902E+03  0.17102381780E+03 0.  0.
        -24    2    5    5    0    0 -0.42423684666E+02  0.37189540393E+00 -0.25053075353E+02  0.98481470316E+02  0.85270370494E+02 0.  0.
          5    1    3    3  501    0  0.31706729378E+02  0.49371237473E+02 -0.44888121105E+03  0.45272427306E+03  0.47000000000E+01 0. -1.
        -11    1    4    4    0    0 -0.39463782941E+02 -0.14346341840E+02 -0.24274370364E+03  0.24634876364E+03  0.00000000000E+00 0.  1.
         12    1    4    4    0    0 -0.18604265178E+02 -0.15503812329E+02 -0.14663387120E+02  0.28310807149E+02  0.00000000000E+00 0. -1.
         -5    1    5    5    0  502  0.68785003407E+02 -0.19892978707E+02  0.23993268749E+02  0.75662898708E+02  0.47000000000E+01 0.  1.
         11    1    6    6    0    0 -0.51288664086E+01  0.30896167287E+02  0.16003174217E+02  0.35170726587E+02  0.00000000000E+00 0. -1.
        -12    1    6    6    0    0 -0.37294818257E+02 -0.30524271883E+02 -0.41056249570E+02  0.63310743729E+02  0.00000000000E+00 0.  1.
</event>
<event>
12    1  0.8461994E-002  0.2151734E+03  0.7818608E-02  0.1137803E+00
         21   -1    0    0  503  502  0.00000000000E+00  0.00000000000E+00  0.13849088916E+04  0.13849088916E+04  0.00000000000E+00 0.  1.
         21   -1    0    0  501  503 -0.00000000000E+00 -0.00000000000E+00 -0.34316927561E+02  0.34316927561E+02  0.00000000000E+00 0. -1.
          6    2    1    2  501    0 -0.87433658466E+02 -0.91941012198E+02  0.55022762678E+03  0.59080454748E+03  0.17378658664E+03 0.  0.
         24    2    3    3    0    0 -0.74239544554E+02 -0.44004248564E+02  0.51873201946E+03  0.53176150191E+03  0.78990524962E+02 0.  0.
         -6    2    1    2    0  502  0.87433658466E+02  0.91941012198E+02  0.80036433729E+03  0.82842127171E+03  0.17204922744E+03 0.  0.
        -24    2    5    5    0    0  0.88230026967E+02  0.12729511168E+03  0.71599785068E+03  0.73682246923E+03  0.79157096132E+02 0.  0.
          5    1    3    3  501    0 -0.13194113912E+02 -0.47936763634E+02  0.31495607318E+02  0.59043045568E+02  0.47000000000E+01 0. -1.
        -11    1    4    4    0    0 -0.27154423512E+02  0.17276359093E+02  0.25240561992E+03  0.25444927248E+03  0.00000000000E+00 0.  1.
         12    1    4    4    0    0 -0.47085121042E+02 -0.61280607657E+02  0.26632639955E+03  0.27731222943E+03  0.00000000000E+00 0. -1.
         -5    1    5    5    0  502 -0.79636850140E+00 -0.35354099482E+02  0.84366486612E+02  0.91598802483E+02  0.47000000000E+01 0.  1.
         13    1    6    6    0    0  0.37132934821E+02  0.87951065804E+02  0.27423880688E+03  0.29038107381E+03  0.00000000000E+00 0. -1.
        -14    1    6    6    0    0  0.51097092147E+02  0.39344045877E+02  0.44175904379E+03  0.44644139542E+03  0.00000000000E+00 0.  1.
</event>
<event>
12    1  0.8461994E-002  0.1826139E+03  0.7818608E-02  0.1165772E+00
         21   -1    0    0  501  502  0.00000000000E+00  0.00000000000E+00  0.52912229648E+02  0.52912229648E+02  0.00000000000E+00 0.  1.
         21   -1    0    0  502  503 -0.00000000000E+00 -0.00000000000E+00 -0.76176117991E+03  0.76176117991E+03  0.00000000000E+00 0.  1.
         -6    2    1    2    0  503 -0.50191729310E+02 -0.21125650886E+02 -0.52960529202E+03  0.56020496006E+03  0.17430527568E+03 0.  0.
        -24    2    3    3    0    0 -0.72020109604E+02  0.11801406607E+02 -0.19754027369E+03  0.22576522603E+03  0.81373264468E+02 0.  0.
          6    2    1    2  501    0  0.50191729310E+02  0.21125650886E+02 -0.17924365824E+03  0.25446844949E+03  0.17222194968E+03 0.  0.
         24    2    5    5    0    0  0.49672450417E-01  0.38361015437E+02 -0.18011209322E+03  0.20123192221E+03  0.81131685678E+02 0.  0.
          5    1    5    5  501    0  0.50142056860E+02 -0.17235364551E+02  0.86843498011E+00  0.53236527279E+02  0.47000000000E+01 0. -1.
        -13    1    6    6    0    0 -0.30172180171E+02  0.27366854392E+02 -0.38623337252E+02  0.56134368760E+02  0.00000000000E+00 0.  1.
         14    1    6    6    0    0  0.30221852621E+02  0.10994161046E+02 -0.14148875597E+03  0.14509755345E+03  0.00000000000E+00 0. -1.
         -5    1    3    3    0  503  0.21828380293E+02 -0.32927057493E+02 -0.33206501833E+03  0.33443973403E+03  0.47000000000E+01 0.  1.
         11    1    4    4    0    0  0.16139446369E+02  0.13304557205E+02 -0.43724238242E+02  0.48469598527E+02  0.00000000000E+00 0. -1.
        -12    1    4    4    0    0 -0.88159555973E+02 -0.15031505978E+01 -0.15381603545E+03  0.17729562750E+03  0.00000000000E+00 0.  1.
</event>
<event>
12    1  0.8461994E-002  0.1958000E+03  0.7818608E-02  0.1154462E+00
         21   -1    0    0  503  502  0.00000000000E+00  0.00000000000E+00  0.24454020956E+04  0.24454020956E+04  0.00000000000E+00 0. -1.
         21   -1    0    0  501  503 -0.00000000000E+00 -0.00000000000E+00 -0.16307736055E+02  0.16307736055E+02  0.00000000000E+00 0. -1.
          6    2    1    2  501    0  0.40129340773E+02 -0.70496475081E+02  0.88873433640E+03  0.90895529712E+03  0.17254244253E+03 0.  0.
         24    2    3    3    0    0  0.13728110958E+02 -0.11369671401E+03  0.68207745603E+03  0.69613508712E+03  0.79113840070E+02 0.  0.
         -6    2    1    2    0  502 -0.40129340773E+02  0.70496475081E+02  0.15403600232E+04  0.15527545346E+04  0.17820641579E+03 0.  0.
        -24    2    5    5    0    0  0.67762553884E+01  0.74362111824E+02  0.14073495582E+04  0.14115845948E+04  0.79766208529E+02 0.  0.
          5    1    3    3  501    0  0.26401229816E+02  0.43200238928E+02  0.20665688038E+03  0.21282021000E+03  0.47000000000E+01 0. -1.
        -11    1    4    4    0    0 -0.18506183761E+02 -0.10730782294E+02  0.43148621994E+02  0.48160482826E+02  0.00000000000E+00 0.  1.
         12    1    4    4    0    0  0.32234294719E+02 -0.10296593172E+03  0.63892883403E+03  0.64797460429E+03  0.00000000000E+00 0. -1.
         -5    1    5    5    0  502 -0.46905596162E+02 -0.38656367423E+01  0.13301046501E+03  0.14116993979E+03  0.47000000000E+01 0.  1.
         13    1    6    6    0    0 -0.45711049237E+01  0.89686589129E+02  0.11121161038E+04  0.11157359937E+04  0.00000000000E+00 0. -1.
        -14    1    6    6    0    0  0.11347360312E+02 -0.15324477305E+02  0.29523345432E+03  0.29584860105E+03  0.00000000000E+00 0.  1.
</event>
<event>
12    1  0.8461994E-002  0.1862268E+03  0.7818608E-02  0.1162062E+00
         21   -1    0    0  501  502  0.00000000000E+00  0.00000000000E+00  0.14746793995E+04  0.14746793995E+04  0.00000000000E+00 0.  1.
         21   -1    0    0  502  503 -0.00000000000E+00 -0.00000000000E+00 -0.23933687459E+02  0.23933687459E+02  0.00000000000E+00 0.  1.
         -6    2    1    2    0  503 -0.63928190643E+02  0.29888781469E+02  0.83235973758E+03  0.85279451527E+03  0.17162633744E+03 0.  0.
        -24    2    3    3    0    0 -0.50389138101E+02  0.33831357446E+02  0.23448316947E+03  0.25473320524E+03  0.78886140120E+02 0.  0.
          6    2    1    2  501    0  0.63928190643E+02 -0.29888781469E+02  0.61838597449E+03  0.64581857173E+03  0.17233763757E+03 0.  0.
         24    2    5    5    0    0 -0.80686553378E+01 -0.40224998857E+02  0.16442566632E+03  0.18604424163E+03  0.76769175889E+02 0.  0.
          5    1    5    5  501    0  0.71996845981E+02  0.10336217388E+02  0.45396030817E+03  0.45977433010E+03  0.47000000000E+01 0. -1.
        -13    1    6    6    0    0 -0.64705197802E+01  0.22950869203E+02  0.44432674566E+02  0.50426903459E+02  0.00000000000E+00 0.  1.
         14    1    6    6    0    0 -0.15981355575E+01 -0.63175868059E+02  0.11999299175E+03  0.13561733817E+03  0.00000000000E+00 0. -1.
         -5    1    3    3    0  503 -0.13539052542E+02 -0.39425759771E+01  0.59787656811E+03  0.59806131003E+03  0.47000000000E+01 0.  1.
         11    1    4    4    0    0 -0.69125808539E+02  0.13031029112E+02  0.18432560209E+03  0.19729194791E+03  0.00000000000E+00 0. -1.
        -12    1    4    4    0    0  0.18736670438E+02  0.20800328334E+02  0.50157567378E+02  0.57441257326E+02  0.00000000000E+00 0.  1.
</event>
<event>
12    1  0.8461994E-002  0.1855650E+03  0.7818608E-02  0.1162705E+00
         21   -1    0    0  503  502  0.00000000000E+00  0.00000000000E+00  0.19883757888E+03  0.19883757888E+03  0.00000000000E+00 0.  1.
         21   -1    0    0  501  503 -0.00000000000E+00 -0.00000000000E+00 -0.19198524234E+03  0.19198524234E+03  0.00000000000E+00 0. -1.
          6    2    1    2  501    0  0.67283789000E+02 -0.47856890749E+01 -0.58914501809E+02  0.19394813898E+03  0.17203183138E+03 0.  0.
         24    2    3    3    0    0  0.15273016614E+02  0.18312206324E+02  0.31540250510E+02  0.86977182949E+02  0.77470258903E+02 0.  0.
         -6    2    1    2    0  502 -0.67283789000E+02  0.47856890749E+01  0.65766838353E+02  0.19687468225E+03  0.17287091253E+03 0.  0.
        -24    2    5    5    0    0  0.13027055808E+02  0.42236683037E+02  0.64272004032E+01  0.90124078619E+02  0.78277704775E+02 0.  0.
          5    1    3    3  501    0  0.52010772386E+02 -0.23097895399E+02 -0.90454752319E+02  0.10697095603E+03  0.47000000000E+01 0. -1.
        -13    1    4    4    0    0 -0.13520997928E+02  0.41537644257E+02  0.12869890252E+02  0.45539294576E+02  0.00000000000E+00 0.  1.
         14    1    4    4    0    0  0.28794014542E+02 -0.23225437933E+02  0.18670360258E+02  0.41437888373E+02  0.00000000000E+00 0. -1.
         -5    1    5    5    0  502 -0.80310844808E+02 -0.37450993963E+02  0.59339637949E+02  0.10675060363E+03  0.47000000000E+01 0.  1.
         13    1    6    6    0    0  0.11194435590E+02  0.63965404033E+02  0.15077711385E+02  0.66665025927E+02  0.00000000000E+00 0. -1.
        -14    1    6    6    0    0  0.18326202178E+01 -0.21728720995E+02 -0.86505109816E+01  0.23459052692E+02  0.00000000000E+00 0.  1.
</event>
<event>
12    1  0.8461994E-002  0.2146527E+03  0.7818608E-02  0.1138024E+00
         21   -1    0    0  503  502  0.00000000000E+00  0.00000000000E+00  0.14090939651E+03  0.14090939651E+03  0.00000000000E+00 0.  1.
         21   -1    0    0  501  503 -0.00000000000E+00 -0.00000000000E+00 -0.32627876959E+03  0.32627876959E+03  0.00000000000E+00 0. -1.
          6    2    1    2  501    0 -0.28947972668E+02  0.12410113376E+03 -0.92172286633E+02  0.23360546948E+03  0.17273305540E+03 0.  0.
         24    2    3    3    0    0  0.41940849052E+02  0.11024981568E+03 -0.55671955619E+02  0.15254099995E+03  0.79090665355E+02 0.  0.
         -6    2    1    2    0  502  0.28947972668E+02 -0.12410113376E+03 -0.93197086441E+02  0.23358269661E+03  0.17215139475E+03 0.  0.
        -24    2    5    5    0    0  0.12249352186E+02  0.57938328786E+01 -0.52531853823E+02  0.96370097238E+02  0.79649135885E+02 0.  0.
          5    1    3    3  501    0 -0.70888821719E+02  0.13851318079E+02 -0.36500331015E+02  0.81064469538E+02  0.47000000000E+01 0. -1.
        -13    1    4    4    0    0  0.13629304247E+02  0.86131978265E+01 -0.43431077331E+02  0.46327136639E+02  0.00000000000E+00 0.  1.
         14    1    4    4    0    0  0.28311544804E+02  0.10163661785E+03 -0.12240878288E+02  0.10621386331E+03  0.00000000000E+00 0. -1.
         -5    1    5    5    0  502  0.16698620482E+02 -0.12989496664E+03 -0.40665232618E+02  0.13721259937E+03  0.47000000000E+01 0.  1.
         11    1    6    6    0    0  0.39571183264E+02 -0.96685775647E-01 -0.55609262268E+02  0.68251578319E+02  0.00000000000E+00 0. -1.
        -12    1    6    6    0    0 -0.27321831078E+02  0.58905186542E+01  0.30774084446E+01  0.28118518919E+02  0.00000000000E+00 0.  1.
</event>
<event>
12    1  0.8461994E-002  0.1910524E+03  0.7818608E-02  0.1157789E+00
         21   -1    0    0  503  502  0.00000000000E+00  0.00000000000E+00  0.52856008837E+03  0.52856008837E+03  0.00000000000E+00 0.  1.
         21   -1    0    0  501  503 -0.00000000000E+00 -0.00000000000E+00 -0.12697346760E+03  0.12697346760E+03  0.00000000000E+00 0.  1.
          6    2    1    2  501    0 -0.45562007702E+02  0.64426367308E+02 -0.21753170506E+02  0.19107946628E+03  0.17266009573E+03 0.  0.
         24    2    3    3    0    0 -0.71740478184E+02  0.92211400044E+02 -0.42082021493E+02  0.14757460973E+03  0.79735377325E+02 0.  0.
         -6    2    1    2    0  502  0.45562007702E+02 -0.64426367308E+02  0.42333979128E+03  0.46445408969E+03  0.17399531374E+03 0.  0.
        -24    2    5    5    0    0  0.62452748416E+02 -0.70177578811E+02  0.42772406737E+03  0.44548871513E+03  0.81774562962E+02 0.  0.
          5    1    3    3  501    0  0.26178470481E+02 -0.27785032736E+02  0.20328850986E+02  0.43504856549E+02  0.47000000000E+01 0. -1.
        -13    1    4    4    0    0 -0.43691072219E+02  0.24517208966E+01 -0.29315358861E+02  0.52671728585E+02  0.00000000000E+00 0.  1.
         14    1    4    4    0    0 -0.28049405964E+02  0.89759679148E+02 -0.12766662632E+02  0.94902881149E+02  0.00000000000E+00 0. -1.
         -5    1    5    5    0  502 -0.16890740714E+02  0.57512115029E+01 -0.43842760910E+01  0.18965374567E+02  0.47000000000E+01 0.  1.
         13    1    6    6    0    0 -0.27845017655E+01  0.32960703848E+01 -0.19416310368E+01  0.47315389829E+01  0.00000000000E+00 0. -1.
        -14    1    6    6    0    0  0.65237250181E+02 -0.73473649195E+02  0.42966569841E+03  0.44075717615E+03  0.00000000000E+00 0.  1.
</event>
<event>
12    1  0.8461994E-002  0.1960638E+03  0.7818608E-02  0.1153472E+00
         21   -1    0    0  503  502  0.00000000000E+00  0.00000000000E+00  0.26780831160E+03  0.26780831160E+03  0.00000000000E+00 0. -1.
         21   -1    0    0  501  503 -0.00000000000E+00 -0.00000000000E+00 -0.18858752342E+03  0.18858752342E+03  0.00000000000E+00 0. -1.
          6    2    1    2  501    0 -0.85404026416E+02  0.39277846035E+02 -0.73312208099E+02  0.20932194630E+03  0.17205929335E+03 0.  0.
         24    2    3    3    0    0 -0.11936792215E+02  0.74038356512E+02 -0.64221676202E+02  0.12740457720E+03  0.80519173825E+02 0.  0.
         -6    2    1    2    0  502  0.85404026416E+02 -0.39277846035E+02  0.15253299628E+03  0.24707388872E+03  0.17012523215E+03 0.  0.
        -24    2    5    5    0    0  0.10671938459E+03  0.11235992563E+02  0.80692136576E+02  0.15657973694E+03  0.80564995738E+02 0.  0.
          5    1    3    3  501    0 -0.73467234201E+02 -0.34760510477E+02 -0.90905318973E+01  0.81917369098E+02  0.47000000000E+01 0. -1.
        -13    1    4    4    0    0  0.29102104977E+02  0.10075404412E+02 -0.33301056278E+02  0.45358644572E+02  0.00000000000E+00 0.  1.
         14    1    4    4    0    0 -0.41038897192E+02  0.63962952099E+02 -0.30920619923E+02  0.82045932626E+02  0.00000000000E+00 0. -1.
         -5    1    5    5    0  502 -0.21315358172E+02 -0.50513838598E+02  0.71840859704E+02  0.90494151783E+02  0.47000000000E+01 0.  1.
         13    1    6    6    0    0  0.72158643664E+02  0.36500114427E+02  0.80019735820E+02  0.11376416980E+03  0.00000000000E+00 0. -1.
        -14    1    6    6    0    0  0.34560740923E+02 -0.25264121864E+02  0.67240075509E+00  0.42815567140E+02  0.00000000000E+00 0.  1.
</event>
<event>
12    1  0.8461994E-002  0.1920821E+03  0.7818608E-02  0.1156655E+00
         21   -1    0    0  501  502  0.00000000000E+00  0.00000000000E+00  0.27513742394E+03  0.27513742394E+03  0.00000000000E+00 0. -1.
         21   -1    0    0  502  503 -0.00000000000E+00 -0.00000000000E+00 -0.14290491710E+03  0.14290491710E+03  0.00000000000E+00 0.  1.
         -6    2    1    2    0  503 -0.13871235704E+02  0.83435788956E+02  0.11849419206E+03  0.22546955692E+03  0.17216766679E+03 0.  0.
        -24    2    3    3    0    0  0.22859679269E+01  0.53444100772E+02  0.14922793250E+03  0.17934787665E+03  0.83876024373E+02 0.  0.
          6    2    1    2  501    0  0.13871235704E+02 -0.83435788956E+02  0.13738314774E+02  0.19257278412E+03  0.17245751312E+03 0.  0.
         24    2    5    5    0    0  0.19223857995E+02 -0.79719262863E+02 -0.47179827406E+02  0.13112709120E+03  0.90794605261E+02 0.  0.
          5    1    5    5  501    0 -0.53526222912E+01 -0.37165260935E+01  0.60918142180E+02  0.61445692919E+02  0.47000000000E+01 0. -1.
        -11    1    6    6    0    0  0.52764772989E+02 -0.26093191255E+02 -0.18731511996E+02  0.61772529818E+02  0.00000000000E+00 0.  1.
         12    1    6    6    0    0 -0.33540914993E+02 -0.53626071608E+02 -0.28448315410E+02  0.69354561381E+02  0.00000000000E+00 0. -1.
         -5    1    3    3    0  503 -0.16157203631E+02  0.29991688184E+02 -0.30733740442E+02  0.46121680269E+02  0.47000000000E+01 0.  1.
         13    1    4    4    0    0  0.32306863355E+02  0.25511771761E+02  0.24164861069E+02  0.47733891824E+02  0.00000000000E+00 0. -1.
        -14    1    4    4    0    0 -0.30020895428E+02  0.27932329011E+02  0.12506307143E+03  0.13161398483E+03  0.00000000000E+00 0.  1.
</event>
<event>
12    1  0.8461994E-002  0.2531978E+03  0.7818608E-02  0.1111373E+00
         21   -1    0    0  501  502  0.00000000000E+00  0.00000000000E+00  0.57399036923E+02  0.57399036923E+02  0.00000000000E+00 0. -1.
         21   -1    0    0  502  503 -0.00000000000E+00 -0.00000000000E+00 -0.17425410863E+04  0.17425410863E+04  0.00000000000E+00 0.  1.
         -6    2    1    2    0  503 -0.17397857079E+03  0.63792739169E+02 -0.13822216852E+04  0.14051365258E+04  0.17185404347E+03 0.  0.
        -24    2    3    3    0    0 -0.16828520946E+03  0.98198173926E+02 -0.12800290283E+04  0.12970551794E+04  0.76909245267E+02 0.  0.
          6    2    1    2  501    0  0.17397857079E+03 -0.63792739169E+02 -0.30292036414E+03  0.39480359744E+03  0.17254297112E+03 0.  0.
         24    2    5    5    0    0  0.20746613446E+02  0.21719022728E+02 -0.61226376636E+02  0.96089071906E+02  0.67692707333E+02 0.  0.
          5    1    5    5  501    0  0.15323195734E+03 -0.85511761897E+02 -0.24169398750E+03  0.29871452554E+03  0.47000000000E+01 0. -1.
        -13    1    6    6    0    0 -0.23478217749E+02  0.41934938215E+01 -0.33192538941E+02  0.40872444758E+02  0.00000000000E+00 0.  1.
         14    1    6    6    0    0  0.44224831196E+02  0.17525528907E+02 -0.28033837695E+02  0.55216627148E+02  0.00000000000E+00 0. -1.
         -5    1    3    3    0  503 -0.56933613319E+01 -0.34405434757E+02 -0.10219265693E+03  0.10808134637E+03  0.47000000000E+01 0.  1.
         11    1    4    4    0    0 -0.11404210813E+03  0.77202056908E+02 -0.65473858211E+03  0.66906529646E+03  0.00000000000E+00 0. -1.
        -12    1    4    4    0    0 -0.54243101324E+02  0.20996117018E+02 -0.62529044619E+03  0.62798988293E+03  0.00000000000E+00 0.  1.
</event>
<event>
12    1  0.8461994E-002  0.2870628E+03  0.7818608E-02  0.1092063E+00
         21   -1    0    0  503  502  0.00000000000E+00  0.00000000000E+00  0.33362570332E+03  0.33362570332E+03  0.00000000000E+00 0.  1.
         21   -1    0    0  501  503 -0.00000000000E+00 -0.00000000000E+00 -0.25816449635E+03  0.25816449635E+03  0.00000000000E+00 0. -1.
          6    2    1    2  501    0 -0.22945471497E+03 -0.18354301010E+02 -0.26861930873E+02  0.28703608291E+03  0.16935702812E+03 0.  0.
         24    2    3    3    0    0 -0.21105398402E+03  0.34719132241E+02 -0.29879047062E+02  0.23058637780E+03  0.80796768880E+02 0.  0.
         -6    2    1    2    0  502  0.22945471497E+03  0.18354301010E+02  0.10232313784E+03  0.30475411676E+03  0.17151880525E+03 0.  0.
        -24    2    5    5    0    0  0.73518498161E+02  0.61627548633E+02  0.50364583899E+02  0.13472335777E+03  0.80067893038E+02 0.  0.
          5    1    3    3  501    0 -0.18400730957E+02 -0.53073433251E+02  0.30171161887E+01  0.56449705109E+02  0.47000000000E+01 0. -1.
        -13    1    4    4    0    0 -0.19395394897E+03  0.22915359697E+02 -0.13686877294E+01  0.19530776056E+03  0.00000000000E+00 0.  1.
         14    1    4    4    0    0 -0.17100035048E+02  0.11803772544E+02 -0.28510359332E+02  0.35278617237E+02  0.00000000000E+00 0. -1.
         -5    1    5    5    0  502  0.15593621681E+03 -0.43273247623E+02  0.51958553944E+02  0.17003075899E+03  0.47000000000E+01 0.  1.
         11    1    6    6    0    0  0.63363694831E+02  0.49986926788E+01  0.97601737481E+01  0.64305565411E+02  0.00000000000E+00 0. -1.
        -12    1    6    6    0    0  0.10154803330E+02  0.56628855954E+02  0.40604410151E+02  0.70417792361E+02  0.00000000000E+00 0.  1.
</event>
<event>
12    1  0.8461994E-002  0.3191013E+03  0.7818608E-02  0.1076622E+00
         21   -1    0    0  503  502  0.00000000000E+00  0.00000000000E+00  0.49061181633E+03  0.49061181633E+03  0.00000000000E+00 0.  1.
         21   -1    0    0  501  503 -0.00000000000E+00 -0.00000000000E+00 -0.33890480755E+03  0.33890480755E+03  0.00000000000E+00 0. -1.
          6    2    1    2  501    0 -0.73301162073E+01  0.26341919886E+03 -0.18504590724E+03  0.36887342490E+03  0.17995057898E+03 0.  0.
         24    2    3    3    0    0 -0.40090544423E+02  0.48158618141E+02 -0.48967674122E+02  0.11206661269E+03  0.78959409298E+02 0.  0.
         -6    2    1    2    0  502  0.73301162073E+01 -0.26341919886E+03  0.33675291603E+03  0.46064319899E+03  0.17130740027E+03 0.  0.
        -24    2    5    5    0    0  0.68883607631E+02 -0.18095451347E+03  0.24699297271E+03  0.32401159917E+03  0.80551228951E+02 0.  0.
          5    1    3    3  501    0  0.32760428215E+02  0.21526058072E+03 -0.13607823312E+03  0.25680681221E+03  0.47000000000E+01 0. -1.
        -11    1    4    4    0    0  0.51742122896E+01  0.93150921099E+01  0.18910077553E+02  0.21705631686E+02  0.00000000000E+00 0.  1.
         12    1    4    4    0    0 -0.45264756712E+02  0.38843526032E+02 -0.67877751675E+02  0.90360981000E+02  0.00000000000E+00 0. -1.
         -5    1    5    5    0  502 -0.61553491424E+02 -0.82464685395E+02  0.89759943314E+02  0.13663159981E+03  0.47000000000E+01 0.  1.
         11    1    6    6    0    0  0.13495482934E+02 -0.28696546052E+02  0.10120317496E+03  0.10605518581E+03  0.00000000000E+00 0. -1.
        -12    1    6    6    0    0  0.55388124697E+02 -0.15225796741E+03  0.14578979776E+03  0.21795641337E+03  0.00000000000E+00 0.  1.
</event>
<event>
12    1  0.8461994E-002  0.2811720E+03  0.7818608E-02  0.1095114E+00
         21   -1    0    0  503  502  0.00000000000E+00  0.00000000000E+00  0.16479645700E+04  0.16479645700E+04  0.00000000000E+00 0.  1.
         21   -1    0    0  501  503 -0.00000000000E+00 -0.00000000000E+00 -0.87908849248E+02  0.87908849248E+02  0.00000000000E+00 0. -1.
          6    2    1    2  501    0  0.19128649644E+03  0.11164557056E+03  0.13659624278E+04  0.13946006759E+04  0.17321210710E+03 0.  0.
         24    2    3    3    0    0  0.35000723255E+02 -0.33241322323E+01  0.39823159800E+03  0.40760101819E+03  0.79461210058E+02 0.  0.
         -6    2    1    2    0  502 -0.19128649644E+03 -0.11164557056E+03  0.19409329295E+03  0.34127274330E+03  0.17245179559E+03 0.  0.
        -24    2    5    5    0    0 -0.17215787515E+03 -0.11841630122E+03  0.21590043062E+03  0.31111667924E+03  0.80745512520E+02 0.  0.
          5    1    3    3  501    0  0.15628577318E+03  0.11496970279E+03  0.96773082976E+03  0.98699965772E+03  0.47000000000E+01 0. -1.
        -11    1    4    4    0    0  0.18961063055E+02  0.20378791341E+02  0.35286521464E+03  0.35396140574E+03  0.00000000000E+00 0.  1.
         12    1    4    4    0    0  0.16039660200E+02 -0.23702923573E+02  0.45366383353E+02  0.53639612450E+02  0.00000000000E+00 0. -1.
         -5    1    5    5    0  502 -0.19128621284E+02  0.67707306546E+01 -0.21807137668E+02  0.30156064052E+02  0.47000000000E+01 0.  1.
         13    1    6    6    0    0 -0.66583236799E+02 -0.57422507425E+02  0.38803626750E+02  0.96106156050E+02  0.00000000000E+00 0. -1.
        -14    1    6    6    0    0 -0.10557463836E+03 -0.60993793791E+02  0.17709680387E+03  0.21501052319E+03  0.00000000000E+00 0.  1.
</event>
<event>
12    1  0.8461994E-002  0.2642651E+03  0.7818608E-02  0.1104614E+00
         21   -1    0    0  503  502  0.00000000000E+00  0.00000000000E+00  0.17747509604E+03  0.17747509604E+03  0.00000000000E+00 0. -1.
         21   -1    0    0  501  503 -0.00000000000E+00 -0.00000000000E+00 -0.64139333207E+03  0.64139333207E+03  0.00000000000E+00 0.  1.
          6    2    1    2  501    0  0.54386744350E+02 -0.19236311162E+03 -0.48654264237E+03  0.55367842673E+03  0.17284262409E+03 0.  0.
         24    2    3    3    0    0  0.99997651309E+02 -0.16978094295E+03 -0.40557580798E+03  0.45792860978E+03  0.79886023631E+02 0.  0.
         -6    2    1    2    0  502 -0.54386744350E+02  0.19236311162E+03  0.22624406346E+02  0.26519000139E+03  0.17277843732E+03 0.  0.
        -24    2    5    5    0    0  0.19307986627E+02  0.34071899958E+02  0.23941044733E+02  0.90516464184E+02  0.78015152061E+02 0.  0.
          5    1    3    3  501    0 -0.45610906959E+02 -0.22582168667E+02 -0.80966834390E+02  0.95749816953E+02  0.47000000000E+01 0. -1.
        -11    1    4    4    0    0  0.79469242029E+02 -0.73209709484E+02 -0.26467404456E+03  0.28587999555E+03  0.00000000000E+00 0.  1.
         12    1    4    4    0    0  0.20528409280E+02 -0.96571233469E+02 -0.14090176343E+03  0.17204861423E+03  0.00000000000E+00 0. -1.
         -5    1    5    5    0  502 -0.73694730976E+02  0.15829121166E+03 -0.13166383871E+01  0.17467353721E+03  0.47000000000E+01 0.  1.
         11    1    6    6    0    0 -0.13756355385E+02  0.29519347741E+01  0.39962437732E+02  0.42366822655E+02  0.00000000000E+00 0. -1.
        -12    1    6    6    0    0  0.33064342012E+02  0.31119965184E+02 -0.16021392999E+02  0.48149641529E+02  0.00000000000E+00 0.  1.
</event>
<event>
12    1  0.8461994E-002  0.1760948E+03  0.7818608E-02  0.1171807E+00
         21   -1    0    0  503  502  0.00000000000E+00  0.00000000000E+00  0.44546643952E+02  0.44546643952E+02  0.00000000000E+00 0.  1.
         21   -1    0    0  501  503 -0.00000000000E+00 -0.00000000000E+00 -0.76796922793E+03  0.76796922793E+03  0.00000000000E+00 0.  1.
          6    2    1    2  501    0  0.20499077035E+02  0.28704701004E+02 -0.48892184481E+03  0.51966714148E+03  0.17252592729E+03 0.  0.
         24    2    3    3    0    0 -0.11349327044E+02  0.22122189485E+02 -0.47778839957E+03  0.48497284940E+03  0.79364421514E+02 0.  0.
         -6    2    1    2    0  502 -0.20499077035E+02 -0.28704701004E+02 -0.23450073917E+03  0.29284873040E+03  0.17183017839E+03 0.  0.
        -24    2    5    5    0    0  0.28416406044E+02 -0.32832908535E+02 -0.22419621205E+03  0.24246976791E+03  0.81499416175E+02 0.  0.
          5    1    3    3  501    0  0.31848404079E+02  0.65825115191E+01 -0.11133445241E+02  0.34694292084E+02  0.47000000000E+01 0. -1.
        -11    1    4    4    0    0  0.10358195739E+02  0.70807957947E+01 -0.43148551434E+03  0.43166790357E+03  0.00000000000E+00 0.  1.
         12    1    4    4    0    0 -0.21707522783E+02  0.15041393691E+02 -0.46302885231E+02  0.53304945833E+02  0.00000000000E+00 0. -1.
         -5    1    5    5    0  502 -0.48915483079E+02  0.41282075305E+01 -0.10304527119E+02  0.50378962488E+02  0.47000000000E+01 0.  1.
         13    1    6    6    0    0 -0.71283139532E+00  0.20070717978E+02 -0.12295068571E+03  0.12458014676E+03  0.00000000000E+00 0. -1.
        -14    1    6    6    0    0  0.29129237439E+02 -0.52903626513E+02 -0.10124552633E+03  0.11788962115E+03  0.00000000000E+00 0.  1.
</event>
<event>
12    1  0.8461994E-002  0.2194149E+03  0.7818608E-02  0.1134518E+00
         21   -1    0    0  501  502  0.00000000000E+00  0.00000000000E+00  0.24970210094E+02  0.24970210094E+02  0.00000000000E+00 0.  1.
         21   -1    0    0  502  503 -0.00000000000E+00 -0.00000000000E+00 -0.19257363194E+04  0.19257363194E+04  0.00000000000E+00 0. -1.
         -6    2    1    2    0  503 -0.13607583717E+03 -0.19301117370E+01 -0.10113890468E+04  0.10349157949E+04  0.17211199805E+03 0.  0.
        -24    2    3    3    0    0 -0.13862859077E+03 -0.10579594591E+02 -0.10119000273E+04  0.10247333981E+04  0.82504896627E+02 0.  0.
          6    2    1    2  501    0  0.13607583717E+03  0.19301117370E+01 -0.88937706254E+03  0.91579073457E+03  0.17076519364E+03 0.  0.
         24    2    5    5    0    0  0.75050075665E+02 -0.64110656061E+02 -0.49788223182E+03  0.51407464196E+03  0.81506629602E+02 0.  0.
          5    1    5    5  501    0  0.61025761506E+02  0.66040767798E+02 -0.39149483072E+03  0.40171609260E+03  0.47000000000E+01 0. -1.
        -11    1    6    6    0    0  0.82688625678E+01 -0.15333215442E+02 -0.11878217617E+02  0.21084914932E+02  0.00000000000E+00 0.  1.
         12    1    6    6    0    0  0.66781213097E+02 -0.48777440619E+02 -0.48600401420E+03  0.49298972703E+03  0.00000000000E+00 0. -1.
         -5    1    3    3    0  503  0.25527536020E+01  0.86494828537E+01  0.51098048785E+00  0.10182396852E+02  0.47000000000E+01 0.  1.
         13    1    4    4    0    0  0.16504885331E+01 -0.41903297384E+01 -0.24756404828E+03  0.24760501000E+03  0.00000000000E+00 0. -1.
        -14    1    4    4    0    0 -0.14027907931E+03 -0.63892648522E+01 -0.76433597899E+03  0.77712838809E+03  0.00000000000E+00 0.  1.
</event>
<event>
12    1  0.8461994E-002  0.2093417E+03  0.7818608E-02  0.1142347E+00
         21   -1    0    0  503  502  0.00000000000E+00  0.00000000000E+00  0.26131152908E+03  0.26131152908E+03  0.00000000000E+00 0.  1.
         21   -1    0    0  501  503 -0.00000000000E+00 -0.00000000000E+00 -0.17859295930E+03  0.17859295930E+03  0.00000000000E+00 0.  1.
          6    2    1    2  501    0  0.11564550501E+03 -0.14827457802E+02 -0.15589109865E+02  0.20862899273E+03  0.17230583254E+03 0.  0.
         24    2    3    3    0    0  0.56357790259E+02 -0.73796649230E+02 -0.17712151152E+02  0.12484954440E+03  0.81556989146E+02 0.  0.
         -6    2    1    2    0  502 -0.11564550501E+03  0.14827457802E+02  0.98307679644E+02  0.23127549566E+03  0.17386839471E+03 0.  0.
        -24    2    5    5    0    0 -0.13337087026E+03  0.51267401331E+02  0.64791950045E+02  0.17847916824E+03  0.85092192545E+02 0.  0.
          5    1    3    3  501    0  0.59287714751E+02  0.58969191428E+02  0.21230412861E+01  0.83779448329E+02  0.47000000000E+01 0. -1.
        -11    1    4    4    0    0  0.25080767059E+02  0.21296138870E+01 -0.32814099240E+02  0.41356320442E+02  0.00000000000E+00 0.  1.
         12    1    4    4    0    0  0.31277023200E+02 -0.75926263117E+02  0.15101948089E+02  0.83493223960E+02  0.00000000000E+00 0. -1.
         -5    1    5    5    0  502  0.17725365253E+02 -0.36439943530E+02  0.33515729599E+02  0.52796327413E+02  0.47000000000E+01 0.  1.
         11    1    6    6    0    0 -0.82372065017E+02 -0.69168635855E+01  0.91264582074E+01  0.83164249148E+02  0.00000000000E+00 0. -1.
        -12    1    6    6    0    0 -0.50998805246E+02  0.58184264917E+02  0.55665491838E+02  0.95314919094E+02  0.00000000000E+00 0.  1.
</event>
<event>
12    1  0.8461994E-002  0.1749934E+03  0.7818608E-02  0.1172805E+00
         21   -1    0    0  501  502  0.00000000000E+00  0.00000000000E+00  0.76667877142E+02  0.76667877142E+02  0.00000000000E+00 0. -1.
         21   -1    0    0  502  503 -0.00000000000E+00 -0.00000000000E+00 -0.39944258551E+03  0.39944258551E+03  0.00000000000E+00 0. -1.
         -6    2    1    2    0  503 -0.14189427910E+02 -0.26583363361E+02 -0.15209364888E+03  0.23185159745E+03  0.17237943653E+03 0.  0.
        -24    2    3    3    0    0  0.10334899796E+02 -0.20207100909E+02 -0.17848056950E+03  0.19496719760E+03  0.75111632715E+02 0.  0.
          6    2    1    2  501    0  0.14189427910E+02  0.26583363361E+02 -0.17068105948E+03  0.24425886520E+03  0.17211145834E+03 0.  0.
         24    2    5    5    0    0  0.52008190732E+02  0.43076215392E+02 -0.45524970324E+02  0.11239374607E+03  0.77455916474E+02 0.  0.
          5    1    5    5  501    0 -0.37818762823E+02 -0.16492852031E+02 -0.12515608916E+03  0.13186511913E+03  0.47000000000E+01 0. -1.
        -13    1    6    6    0    0  0.29986036254E+02 -0.27480518337E+00 -0.55197394882E+02  0.62817117809E+02  0.00000000000E+00 0.  1.
         14    1    6    6    0    0  0.22022154478E+02  0.43351020576E+02  0.96724245580E+01  0.49576628260E+02  0.00000000000E+00 0. -1.
         -5    1    3    3    0  503 -0.24524327706E+02 -0.63762624526E+01  0.26386920622E+02  0.36884399849E+02  0.47000000000E+01 0.  1.
         13    1    4    4    0    0  0.10057967438E+02 -0.14017841068E+02 -0.89764799177E+00  0.17276236543E+02  0.00000000000E+00 0. -1.
        -14    1    4    4    0    0  0.27693235860E+00 -0.61892598410E+01 -0.17758292151E+03  0.17769096106E+03  0.00000000000E+00 0.  1.
</event>
<event>
12    1  0.8461994E-002  0.2251214E+03  0.7818608E-02  0.1131145E+00
         21   -1    0    0  503  502  0.00000000000E+00  0.00000000000E+00  0.16289512105E+03  0.16289512105E+03  0.00000000000E+00 0.  1.
         21   -1    0    0  501  503 -0.00000000000E+00 -0.00000000000E+00 -0.33595038198E+03  0.33595038198E+03  0.00000000000E+00 0.  1.
          6    2    1    2  501    0 -0.97524723128E+02  0.95321818540E+02 -0.16507903325E+03  0.27916073276E+03  0.17911534492E+03 0.  0.
         24    2    3    3    0    0 -0.11300466383E+03  0.12230933107E+03 -0.11656920447E+03  0.22133990706E+03  0.87597651294E+02 0.  0.
         -6    2    1    2    0  502  0.97524723128E+02 -0.95321818540E+02 -0.79762276876E+01  0.21968477027E+03  0.17204783454E+03 0.  0.
        -24    2    5    5    0    0  0.23096957991E+02 -0.80137073644E+02  0.48853082537E+02  0.12470198656E+03  0.78794300158E+02 0.  0.
          5    1    3    3  501    0  0.15479940700E+02 -0.26987512529E+02 -0.48509828785E+02  0.57820825705E+02  0.47000000000E+01 0. -1.
        -13    1    4    4    0    0 -0.96819788749E+02  0.13595023860E+03 -0.10554124446E+03  0.19747276559E+03  0.00000000000E+00 0.  1.
         14    1    4    4    0    0 -0.16184875079E+02 -0.13640907533E+02 -0.11027960011E+02  0.23867141464E+02  0.00000000000E+00 0. -1.
         -5    1    5    5    0  502  0.74427765138E+02 -0.15184744896E+02 -0.56829310224E+02  0.94982783711E+02  0.47000000000E+01 0.  1.
         11    1    6    6    0    0 -0.13097958333E+02 -0.84279986188E+01 -0.15351928500E+02  0.21869370862E+02  0.00000000000E+00 0. -1.
        -12    1    6    6    0    0  0.36194916323E+02 -0.71709075025E+02  0.64205011037E+02  0.10283261570E+03  0.00000000000E+00 0.  1.
</event>
<event>
12    1  0.8461994E-002  0.2082799E+03  0.7818608E-02  0.1143120E+00
         21   -1    0    0  503  502  0.00000000000E+00  0.00000000000E+00  0.12516933852E+04  0.12516933852E+04  0.00000000000E+00 0.  1.
         21   -1    0    0  501  503 -0.00000000000E+00 -0.00000000000E+00 -0.92708978053E+02  0.92708978053E+02  0.00000000000E+00 0. -1.
          6    2    1    2  501    0 -0.95361119477E+02  0.67812370430E+02  0.47350860714E+02  0.21359447831E+03  0.17230274653E+03 0.  0.
         24    2    3    3    0    0 -0.15837381360E+02  0.66897813120E+02 -0.23845560545E+02  0.10674934862E+03  0.78106802673E+02 0.  0.
         -6    2    1    2    0  502  0.95361119477E+02 -0.67812370430E+02  0.11116335464E+04  0.11308078849E+04  0.17118723785E+03 0.  0.
        -24    2    5    5    0    0  0.29230965574E+02 -0.10072694717E+03  0.76808304823E+03  0.77937424763E+03  0.80450491978E+02 0.  0.
          5    1    3    3  501    0 -0.79523738117E+02  0.91455731039E+00  0.71196421260E+02  0.10684512969E+03  0.47000000000E+01 0. -1.
        -13    1    4    4    0    0  0.31654992290E+02  0.24045239491E+02 -0.50111569642E+01  0.40066491900E+02  0.00000000000E+00 0.  1.
         14    1    4    4    0    0 -0.47492373650E+02  0.42852573629E+02 -0.18834403581E+02  0.66682856716E+02  0.00000000000E+00 0. -1.
         -5    1    5    5    0  502  0.66130153904E+02  0.32914576744E+02  0.34355049821E+03  0.35143363732E+03  0.47000000000E+01 0.  1.
         13    1    6    6    0    0 -0.96985413473E+01 -0.66837880011E+02  0.59324124242E+03  0.59707330841E+03  0.00000000000E+00 0. -1.
        -14    1    6    6    0    0  0.38929506921E+02 -0.33889067164E+02  0.17484180581E+03  0.18230093922E+03  0.00000000000E+00 0.  1.
</event>
<event>
12    1  0.8461994E-002  0.2144102E+03  0.7818608E-02  0.1138252E+00
         21   -1    0    0  501  502  0.00000000000E+00  0.00000000000E+00  0.28459168110E+03  0.28459168110E+03  0.00000000000E+00 0. -1.
         21   -1    0    0  502  503 -0.00000000000E+00 -0.00000000000E+00 -0.20366592421E+03  0.20366592421E+03  0.00000000000E+00 0. -1.
         -6    2    1    2    0  503 -0.11250886116E+03 -0.57542072573E+02 -0.71294110859E+02  0.22530777151E+03  0.17236997333E+03 0.  0.
        -24    2    3    3    0    0 -0.14076898582E+03 -0.20306025925E+02 -0.72828348105E+02  0.17830137088E+03  0.79114907006E+02 0.  0.
          6    2    1    2  501    0  0.11250886116E+03  0.57542072573E+02  0.15221986775E+03  0.26294983381E+03  0.17321198864E+03 0.  0.
         24    2    5    5    0    0  0.69736078538E+02  0.92982151249E+02  0.15134071669E+03  0.20719704898E+03  0.80732914462E+02 0.  0.
          5    1    5    5  501    0  0.42772782618E+02 -0.35440078676E+02  0.87915105466E+00  0.55752784828E+02  0.47000000000E+01 0. -1.
        -11    1    6    6    0    0 -0.90606495611E+01  0.45250968861E+02  0.72495373684E+02  0.85937912233E+02  0.00000000000E+00 0.  1.
         12    1    6    6    0    0  0.78796728099E+02  0.47731182388E+02  0.78845343008E+02  0.12125913675E+03  0.00000000000E+00 0. -1.
         -5    1    3    3    0  503  0.28260124668E+02 -0.37236046648E+02  0.15342372468E+01  0.47006400630E+02  0.47000000000E+01 0.  1.
         13    1    4    4    0    0 -0.65303445768E+02 -0.19649724539E+02 -0.76825912964E+02  0.10272717560E+03  0.00000000000E+00 0. -1.
        -14    1    4    4    0    0 -0.75465540056E+02 -0.65630138564E+00  0.39975648582E+01  0.75574195280E+02  0.00000000000E+00 0.  1.
</event>
<event>
12    1  0.8461994E-002  0.1923776E+03  0.7818608E-02  0.1156383E+00
         21   -1    0    0  503  502  0.00000000000E+00  0.00000000000E+00  0.20334862774E+03  0.20334862774E+03  0.00000000000E+00 0. -1.
         21   -1    0    0  501  503 -0.00000000000E+00 -0.00000000000E+00 -0.19865621656E+03  0.19865621656E+03  0.00000000000E+00 0. -1.
          6    2    1    2  501    0 -0.41286378553E+02 -0.74861622582E+02  0.60911190769E+02  0.20158107553E+03  0.17209279258E+03 0.  0.
         24    2    3    3    0    0  0.34402164510E+02 -0.17031912282E+02  0.56573320858E+02  0.10611412805E+03  0.81154621437E+02 0.  0.
         -6    2    1    2    0  502  0.41286378553E+02  0.74861622582E+02 -0.56218779588E+02  0.20042376877E+03  0.17233777392E+03 0.  0.
        -24    2    5    5    0    0  0.59199470360E+02  0.50590980711E+02 -0.10049295318E+03  0.14664426187E+03  0.73086806456E+02 0.  0.
          5    1    3    3  501    0 -0.75688543063E+02 -0.57829710300E+02  0.43378699116E+01  0.95466947472E+02  0.47000000000E+01 0. -1.
        -13    1    4    4    0    0  0.41646562961E+02 -0.34878168511E+02  0.93594937595E+01  0.55122798991E+02  0.00000000000E+00 0.  1.
         14    1    4    4    0    0 -0.72443984504E+01  0.17846256229E+02  0.47213827098E+02  0.50991329062E+02  0.00000000000E+00 0. -1.
         -5    1    5    5    0  502 -0.17913091808E+02  0.24270641871E+02  0.44274173596E+02  0.53779506902E+02  0.47000000000E+01 0.  1.
         13    1    6    6    0    0  0.34908362887E+02  0.15465164612E+02 -0.96467003454E+02  0.10374800177E+03  0.00000000000E+00 0. -1.
        -14    1    6    6    0    0  0.24291107473E+02  0.35125816099E+02 -0.40259497303E+01  0.42896260095E+02  0.00000000000E+00 0.  1.
</event>
<event>
12    1  0.8461994E-002  0.2111905E+03  0.7818608E-02  0.1142013E+00
         21   -1    0    0  503  502  0.00000000000E+00  0.00000000000E+00  0.98884662002E+02  0.98884662002E+02  0.00000000000E+00 0.  1.
         21   -1    0    0  501  503 -0.00000000000E+00 -0.00000000000E+00 -0.51551535121E+03  0.51551535121E+03  0.00000000000E+00 0. -1.
          6    2    1    2  501    0 -0.59905246045E+02 -0.95170214118E+02 -0.85017562690E+02  0.22124778537E+03  0.17051858669E+03 0.  0.
         24    2    3    3    0    0 -0.67358075223E+02 -0.23230597296E+02 -0.10118074651E+03  0.14699018211E+03  0.79320862484E+02 0.  0.
         -6    2    1    2    0  502  0.59905246045E+02  0.95170214118E+02 -0.33161312652E+03  0.39315222784E+03  0.17876073511E+03 0.  0.
        -24    2    5    5    0    0 -0.33706713183E+02  0.33774514629E+02 -0.19791523178E+03  0.21871069642E+03  0.79919142925E+02 0.  0.
          5    1    3    3  501    0  0.74528291773E+01 -0.71939616822E+02  0.16163183816E+02  0.74257603262E+02  0.47000000000E+01 0. -1.
        -11    1    4    4    0    0  0.17170177111E+02 -0.54771383837E+01 -0.73655848105E+01  0.19469613928E+02  0.00000000000E+00 0.  1.
         12    1    4    4    0    0 -0.84528252334E+02 -0.17753458913E+02 -0.93815161695E+02  0.12752056818E+03  0.00000000000E+00 0. -1.
         -5    1    5    5    0  502  0.93611959228E+02  0.61395699489E+02 -0.13369789474E+03  0.17444153142E+03  0.47000000000E+01 0.  1.
         13    1    6    6    0    0 -0.17128803585E+02  0.23492620371E+02 -0.19705066967E+03  0.19918399922E+03  0.00000000000E+00 0. -1.
        -14    1    6    6    0    0 -0.16577909598E+02  0.10281894258E+02 -0.86456210773E+00  0.19526697207E+02  0.00000000000E+00 0.  1.
</event>
<event>
12    1  0.8461994E-002  0.2136202E+03  0.7818608E-02  0.1138913E+00
         21   -1    0    0  503  502  0.00000000000E+00  0.00000000000E+00  0.43983273300E+03  0.43983273300E+03  0.00000000000E+00 0.  1.
         21   -1    0    0  501  503 -0.00000000000E+00 -0.00000000000E+00 -0.10982837960E+03  0.10982837960E+03  0.00000000000E+00 0. -1.
          6    2    1    2  501    0 -0.22485836324E+02 -0.12475147141E+03  0.23237138930E+03  0.31564227807E+03  0.17194488269E+03 0.  0.
         24    2    3    3    0    0 -0.48006241407E+02 -0.84126189249E+02  0.23640015533E+03  0.26726846716E+03  0.78521240217E+02 0.  0.
         -6    2    1    2    0  502  0.22485836324E+02  0.12475147141E+03  0.97632964099E+02  0.23401883454E+03  0.17077493020E+03 0.  0.
        -24    2    5    5    0    0  0.79864922025E+02  0.67103214662E+02  0.74655103066E+02  0.14936806325E+03  0.76525725855E+02 0.  0.
          5    1    3    3  501    0  0.25520405083E+02 -0.40625282159E+02 -0.40287660287E+01  0.48373810908E+02  0.47000000000E+01 0. -1.
        -11    1    4    4    0    0  0.18015857446E+02 -0.79220635914E+00  0.41682569532E+02  0.45416245037E+02  0.00000000000E+00 0.  1.
         12    1    4    4    0    0 -0.66022098852E+02 -0.83333982890E+02  0.19471758580E+03  0.22185222212E+03  0.00000000000E+00 0. -1.
         -5    1    5    5    0  502 -0.57379085701E+02  0.57648256745E+02  0.22977861033E+02  0.84650771286E+02  0.47000000000E+01 0.  1.
         11    1    6    6    0    0  0.37403343992E+02  0.58357402087E+02  0.79811732782E+02  0.10570955118E+03  0.00000000000E+00 0. -1.
        -12    1    6    6    0    0  0.42461578033E+02  0.87458125756E+01 -0.51566297155E+01  0.43658512076E+02  0.00000000000E+00 0.  1.
</event>
<event>
12    1  0.8461994E-002  0.1783231E+03  0.7818608E-02  0.1170110E+00
         21   -1    0    0  503  502  0.00000000000E+00  0.00000000000E+00  0.12887092422E+04  0.12887092422E+04  0.00000000000E+00 0. -1.
         21   -1    0    0  501  503 -0.00000000000E+00 -0.00000000000E+00 -0.24554361428E+02  0.24554361428E+02  0.00000000000E+00 0. -1.
          6    2    1    2  501    0  0.27497840651E+02 -0.28297703840E+02  0.56025033416E+03  0.58712261710E+03  0.17110125450E+03 0.  0.
         24    2    3    3    0    0 -0.10809066520E+02  0.30261728428E+01  0.51074295999E+03  0.51696797018E+03  0.79192912329E+02 0.  0.
         -6    2    1    2    0  502 -0.27497840651E+02  0.28297703840E+02  0.70390454664E+03  0.72614098656E+03  0.17390293356E+03 0.  0.
        -24    2    5    5    0    0 -0.83980626943E+02  0.84114868777E+01  0.42545744855E+03  0.44128901938E+03  0.81230901055E+02 0.  0.
          5    1    3    3  501    0  0.38306907171E+02 -0.31323876683E+02  0.49507374169E+02  0.70154646920E+02  0.47000000000E+01 0. -1.
        -13    1    4    4    0    0  0.19205856598E+02 -0.29221672948E+02  0.26641035806E+03  0.26869545954E+03  0.00000000000E+00 0.  1.
         14    1    4    4    0    0 -0.30014923118E+02  0.32247845790E+02  0.24433260193E+03  0.24827251063E+03  0.00000000000E+00 0. -1.
         -5    1    5    5    0  502  0.56482786293E+02  0.19886216962E+02  0.27844709809E+03  0.28485196718E+03  0.47000000000E+01 0.  1.
         11    1    6    6    0    0 -0.52025834343E+02  0.38233526747E+02  0.16486480023E+03  0.17705618419E+03  0.00000000000E+00 0. -1.
        -12    1    6    6    0    0 -0.31954792600E+02 -0.29822039870E+02  0.26059264832E+03  0.26423283519E+03  0.00000000000E+00 0.  1.
</event>
<event>
12    1  0.8461994E-002  0.2352112E+03  0.7818608E-02  0.1123648E+00
         21   -1    0    0  501  502  0.00000000000E+00  0.00000000000E+00  0.21675695243E+03  0.21675695243E+03  0.00000000000E+00 0.  1.
         21   -1    0    0  502  503 -0.00000000000E+00 -0.00000000000E+00 -0.60214795187E+03  0.60214795187E+03  0.00000000000E+00 0.  1.
         -6    2    1    2    0  503  0.13982424758E+03  0.76033613925E+02 -0.50584479232E+03  0.55785595976E+03  0.17318310329E+03 0.  0.
        -24    2    3    3    0    0  0.13802893224E+03  0.58124512518E+02 -0.25237636692E+03  0.30370582353E+03  0.78185366764E+02 0.  0.
          6    2    1    2  501    0 -0.13982424758E+03 -0.76033613925E+02  0.12045379287E+03  0.26104894454E+03  0.16824239825E+03 0.  0.
         24    2    5    5    0    0 -0.15816494681E+03 -0.82681652515E+02  0.71846653621E+02  0.20846261883E+03  0.80264037729E+02 0.  0.
          5    1    5    5  501    0  0.18340699226E+02  0.66480385896E+01  0.48607139252E+02  0.52586325708E+02  0.47000000000E+01 0. -1.
        -11    1    6    6    0    0  0.69302219939E+01 -0.12355543881E+02  0.14006917336E+02  0.19921876788E+02  0.00000000000E+00 0.  1.
         12    1    6    6    0    0 -0.16509516880E+03 -0.70326108634E+02  0.57839736285E+02  0.18854074204E+03  0.00000000000E+00 0. -1.
         -5    1    3    3    0  503  0.17953153401E+01  0.17909101407E+02 -0.25346842540E+03  0.25415013623E+03  0.47000000000E+01 0.  1.
         13    1    4    4    0    0  0.98377769900E+02  0.24047202070E+02 -0.98842890553E+02  0.14151455950E+03  0.00000000000E+00 0. -1.
        -14    1    4    4    0    0  0.39651162341E+02  0.34077310448E+02 -0.15353347637E+03  0.16219126403E+03  0.00000000000E+00 0.  1.
</event>
<event>
12    1  0.8461994E-002  0.3236396E+03  0.7818608E-02  0.1074069E+00
         21   -1    0    0  503  502  0.00000000000E+00  0.00000000000E+00  0.87637786033E+03  0.87637786033E+03  0.00000000000E+00 0.  1.
         21   -1    0    0  501  503 -0.00000000000E+00 -0.00000000000E+00 -0.15645979978E+03  0.15645979978E+03  0.00000000000E+00 0.  1.
          6    2    1    2  501    0  0.26227622691E+03 -0.77330725400E+02  0.10780035257E+03  0.34042835202E+03  0.17176055005E+03 0.  0.
         24    2    3    3    0    0  0.26438347713E+03 -0.68970139509E+02  0.13193350026E+03  0.31437381849E+03  0.82273605361E+02 0.  0.
         -6    2    1    2    0  502 -0.26227622691E+03  0.77330725400E+02  0.61211770798E+03  0.69240930809E+03  0.17312914606E+03 0.  0.
        -24    2    5    5    0    0 -0.89936240797E+02 -0.23153780148E+02  0.26564712575E+03  0.29258164394E+03  0.80068708049E+02 0.  0.
          5    1    3    3  501    0 -0.21072502191E+01 -0.83605858912E+01 -0.24133147691E+02  0.26054533528E+02  0.47000000000E+01 0. -1.
        -13    1    4    4    0    0  0.13375763644E+03 -0.76885902854E+02  0.77291216252E+02  0.17255862619E+03  0.00000000000E+00 0.  1.
         14    1    4    4    0    0  0.13062584069E+03  0.79157633449E+01  0.54642284011E+02  0.14181519230E+03  0.00000000000E+00 0. -1.
         -5    1    5    5    0  502 -0.17233998611E+03  0.10048450555E+03  0.34647058223E+03  0.39982766415E+03  0.47000000000E+01 0.  1.
         11    1    6    6    0    0 -0.70746960091E+02 -0.27700827864E+02  0.99110108573E+02  0.12488107081E+03  0.00000000000E+00 0. -1.
        -12    1    6    6    0    0 -0.19189280706E+02  0.45470477163E+01  0.16653701717E+03  0.16770057312E+03  0.00000000000E+00 0.  1.
</event>
<event>
12    1  0.8461994E-002  0.2302344E+03  0.7818608E-02  0.1126729E+00
         21   -1    0    0  503  502  0.00000000000E+00  0.00000000000E+00  0.31178672881E+02  0.31178672881E+02  0.00000000000E+00 0.  1.
         21   -1    0    0  501  503 -0.00000000000E+00 -0.00000000000E+00 -0.16895626066E+04  0.16895626066E+04  0.00000000000E+00 0.  1.
          6    2    1    2  501    0  0.33170152441E+02 -0.14930035697E+03 -0.83209728559E+03  0.86297818673E+03  0.17016051977E+03 0.  0.
         24    2    3    3    0    0  0.12114342443E+02 -0.79423608452E+02 -0.23157459468E+03  0.25801893239E+03  0.80573629052E+02 0.  0.
         -6    2    1    2    0  502 -0.33170152441E+02  0.14930035697E+03 -0.82628664814E+03  0.85776309276E+03  0.17209602784E+03 0.  0.
        -24    2    5    5    0    0 -0.86866611364E+02  0.11766826382E+03 -0.56883323041E+03  0.59283243897E+03  0.80544572693E+02 0.  0.
          5    1    3    3  501    0  0.21055809998E+02 -0.69876748519E+02 -0.60052269091E+03  0.60495925434E+03  0.47000000000E+01 0. -1.
        -11    1    4    4    0    0 -0.10558338974E+02 -0.20924673899E+02 -0.64404491913E+01  0.24306375408E+02  0.00000000000E+00 0.  1.
         12    1    4    4    0    0  0.22672681418E+02 -0.58498934553E+02 -0.22513414549E+03  0.23371255699E+03  0.00000000000E+00 0. -1.
         -5    1    5    5    0  502  0.53696458923E+02  0.31632093150E+02 -0.25745341773E+03  0.26493065379E+03  0.47000000000E+01 0.  1.
         11    1    6    6    0    0 -0.75365041841E+01  0.65071782913E+02 -0.15651405397E+03  0.16966963463E+03  0.00000000000E+00 0. -1.
        -12    1    6    6    0    0 -0.79330107180E+02  0.52596480908E+02 -0.41231917644E+03  0.42316280433E+03  0.00000000000E+00 0.  1.
</event>
<event>
12    1  0.8461994E-002  0.2225776E+03  0.7818608E-02  0.1134372E+00
         21   -1    0    0  503  502  0.00000000000E+00  0.00000000000E+00  0.50438189782E+03  0.50438189782E+03  0.00000000000E+00 0.  1.
         21   -1    0    0  501  503 -0.00000000000E+00 -0.00000000000E+00 -0.14694417344E+03  0.14694417344E+03  0.00000000000E+00 0. -1.
          6    2    1    2  501    0 -0.11585620706E+03  0.21684955718E+02 -0.22360045403E+02  0.21111345310E+03  0.17371246481E+03 0.  0.
         24    2    3    3    0    0 -0.13661151288E+03  0.15137435883E+02 -0.58088128192E+02  0.16901548835E+03  0.79373529899E+02 0.  0.
         -6    2    1    2    0  502  0.11585620706E+03 -0.21684955718E+02  0.37979776978E+03  0.44021261816E+03  0.18880652858E+03 0.  0.
        -24    2    5    5    0    0  0.88605499768E+02  0.38348527393E+02  0.12361867303E+03  0.17564421536E+03  0.79042836027E+02 0.  0.
          5    1    3    3  501    0  0.20755305826E+02  0.65475198351E+01  0.35728082788E+02  0.42097964745E+02  0.47000000000E+01 0. -1.
        -11    1    4    4    0    0 -0.97579224642E+02  0.45656538171E+02 -0.50163128200E+02  0.11883839443E+03  0.00000000000E+00 0.  1.
         12    1    4    4    0    0 -0.39032288241E+02 -0.30519102287E+02 -0.79249999923E+01  0.50177093924E+02  0.00000000000E+00 0. -1.
         -5    1    5    5    0  502  0.27250707289E+02 -0.60033483111E+02  0.25617909676E+03  0.26456840279E+03  0.47000000000E+01 0.  1.
         13    1    6    6    0    0  0.53342852203E+02  0.55669550973E+02  0.10945060252E+03  0.13388051829E+03  0.00000000000E+00 0. -1.
        -14    1    6    6    0    0  0.35262647565E+02 -0.17321023580E+02  0.14168070511E+02  0.41763697073E+02  0.00000000000E+00 0.  1.
</event>
<event>
12    1  0.8461994E-002  0.1938025E+03  0.7818608E-02  0.1157495E+00
         21   -1    0    0  503  502  0.00000000000E+00  0.00000000000E+00  0.66011425324E+02  0.66011425324E+02  0.00000000000E+00 0.  1.
         21   -1    0    0  501  503 -0.00000000000E+00 -0.00000000000E+00 -0.93626257534E+03  0.93626257534E+03  0.00000000000E+00 0.  1.
          6    2    1    2  501    0  0.50399943525E+02  0.75428974758E+02 -0.76895731650E+03  0.79300364347E+03  0.17125927540E+03 0.  0.
         24    2    3    3    0    0  0.22243232703E+02  0.86132153195E+02 -0.74435328043E+03  0.75382703075E+03  0.79245674864E+02 0.  0.
         -6    2    1    2    0  502 -0.50399943525E+02 -0.75428974758E+02 -0.10129383351E+03  0.20927035719E+03  0.15907217592E+03 0.  0.
        -24    2    5    5    0    0 -0.37111002019E+02 -0.10524587001E+03 -0.10987807380E+03  0.17519070945E+03  0.78515437655E+02 0.  0.
          5    1    3    3  501    0  0.28156710823E+02 -0.10703178436E+02 -0.24604036069E+02  0.39176612716E+02  0.47000000000E+01 0. -1.
        -11    1    4    4    0    0  0.31975204035E+02  0.69115521055E+02 -0.31679665653E+03  0.32582125547E+03  0.00000000000E+00 0.  1.
         12    1    4    4    0    0 -0.97319713329E+01  0.17016632140E+02 -0.42755662390E+03  0.42800577529E+03  0.00000000000E+00 0. -1.
         -5    1    5    5    0  502 -0.13288941506E+02  0.29816895255E+02  0.85842402889E+01  0.34079647744E+02  0.47000000000E+01 0.  1.
         11    1    6    6    0    0  0.62704616627E+01 -0.10178769204E+02  0.10409590702E+02  0.15851990744E+02  0.00000000000E+00 0. -1.
        -12    1    6    6    0    0 -0.43381463682E+02 -0.95067100809E+02 -0.12028766450E+03  0.15933871871E+03  0.00000000000E+00 0.  1.
</event>
<event>
12    1  0.8461994E-002  0.7382850E+03  0.7818608E-02  0.9653952E-01
         21   -1    0    0  501  502  0.00000000000E+00  0.00000000000E+00  0.21242278250E+04  0.21242278250E+04  0.00000000000E+00 0. -1.
         21   -1    0    0  502  503 -0.00000000000E+00 -0.00000000000E+00 -0.41512142467E+03  0.41512142467E+03  0.00000000000E+00 0.  1.
         -6    2    1    2    0  503  0.67595305418E+03 -0.24179498155E+03  0.69811380093E+02  0.74147470336E+03  0.17185389836E+03 0.  0.
        -24    2    3    3    0    0  0.17102837016E+03 -0.75231247063E+02 -0.73546224479E+01  0.20419535691E+03  0.82043947842E+02 0.  0.
          6    2    1    2  501    0 -0.67595305418E+03  0.24179498155E+03  0.16392950203E+04  0.17978745463E+04  0.17230025048E+03 0.  0.
         24    2    5    5    0    0 -0.56195246073E+03  0.22744030102E+03  0.12467654820E+04  0.13888467715E+04  0.83375829723E+02 0.  0.
          5    1    5    5  501    0 -0.11400059345E+03  0.14354680525E+02  0.39252953830E+03  0.40902777485E+03  0.47000000000E+01 0. -1.
        -11    1    6    6    0    0 -0.10350920875E+03  0.54799481179E+02  0.17683956563E+03  0.21210698104E+03  0.00000000000E+00 0.  1.
         12    1    6    6    0    0 -0.45844325198E+03  0.17264081984E+03  0.10699259163E+04  0.11767397904E+04  0.00000000000E+00 0. -1.
         -5    1    3    3    0  503  0.50492468402E+03 -0.16656373448E+03  0.77166002541E+02  0.53727934645E+03  0.47000000000E+01 0.  1.
         13    1    4    4    0    0  0.83302881586E+02 -0.13190207233E+02  0.31366144452E+02  0.89984369004E+02  0.00000000000E+00 0. -1.
        -14    1    4    4    0    0  0.87725488573E+02 -0.62041039831E+02 -0.38720766900E+02  0.11421098790E+03  0.00000000000E+00 0.  1.
</event>
<event>
12    1  0.8461994E-002  0.1843521E+03  0.7818608E-02  0.1163753E+00
         21   -1    0    0  503  502  0.00000000000E+00  0.00000000000E+00  0.74267541009E+03  0.74267541009E+03  0.00000000000E+00 0.  1.
         21   -1    0    0  501  503 -0.00000000000E+00 -0.00000000000E+00 -0.95879348951E+02  0.95879348951E+02  0.00000000000E+00 0.  1.
          6    2    1    2  501    0  0.49560228682E+02  0.46575962721E+02  0.19784326900E+02  0.18500338044E+03  0.17090726904E+03 0.  0.
         24    2    3    3    0    0  0.61673058910E+02 -0.20141554199E+01  0.63889791825E+02  0.11810717521E+03  0.77844565129E+02 0.  0.
         -6    2    1    2    0  502 -0.49560228682E+02 -0.46575962721E+02  0.62701173424E+03  0.65355137860E+03  0.17134804647E+03 0.  0.
        -24    2    5    5    0    0 -0.46267983890E+02  0.35901334467E+02  0.38901351179E+03  0.40160180564E+03  0.80764260590E+02 0.  0.
          5    1    3    3  501    0 -0.12112830227E+02  0.48590118140E+02 -0.44105464926E+02  0.66896205224E+02  0.47000000000E+01 0. -1.
        -13    1    4    4    0    0  0.42542877523E+02 -0.45286915532E+01 -0.81288750289E+01  0.43548640442E+02  0.00000000000E+00 0.  1.
         14    1    4    4    0    0  0.19130181387E+02  0.25145361333E+01  0.72018666854E+02  0.74558534772E+02  0.00000000000E+00 0. -1.
         -5    1    5    5    0  502 -0.32922447918E+01 -0.82477297188E+02  0.23799822245E+03  0.25194957296E+03  0.47000000000E+01 0.  1.
         13    1    6    6    0    0 -0.25280252823E+02  0.50347176961E+02  0.13458620990E+03  0.14590194415E+03  0.00000000000E+00 0. -1.
        -14    1    6    6    0    0 -0.20987731068E+02 -0.14445842494E+02  0.25442730188E+03  0.25569986149E+03  0.00000000000E+00 0.  1.
</event>
<event>
12    1  0.8461994E-002  0.1812565E+03  0.7818608E-02  0.1166668E+00
         21   -1    0    0  501  502  0.00000000000E+00  0.00000000000E+00  0.37012083093E+03  0.37012083093E+03  0.00000000000E+00 0. -1.
         21   -1    0    0  502  503 -0.00000000000E+00 -0.00000000000E+00 -0.13524564215E+03  0.13524564215E+03  0.00000000000E+00 0. -1.
         -6    2    1    2    0  503  0.36543155277E+02  0.44108055568E+02 -0.31007104443E+02  0.18357879701E+03  0.17163569390E+03 0.  0.
        -24    2    3    3    0    0  0.12303913501E+02  0.87661445296E+02  0.77256986021E+01  0.12027983469E+03  0.81065633507E+02 0.  0.
          6    2    1    2  501    0 -0.36543155277E+02 -0.44108055568E+02  0.26588229322E+03  0.32178767607E+03  0.17196799663E+03 0.  0.
         24    2    5    5    0    0 -0.71231283420E+02 -0.61622602683E+02  0.12525565294E+03  0.17581518705E+03  0.79691658952E+02 0.  0.
          5    1    5    5  501    0  0.34688128143E+02  0.17514547115E+02  0.14062664028E+03  0.14597248902E+03  0.47000000000E+01 0. -1.
        -11    1    6    6    0    0 -0.47910144415E+02 -0.15655441795E+02  0.12639960055E+02  0.51963866156E+02  0.00000000000E+00 0.  1.
         12    1    6    6    0    0 -0.23321139005E+02 -0.45967160888E+02  0.11261569288E+03  0.12385132090E+03  0.00000000000E+00 0. -1.
         -5    1    3    3    0  503  0.24239241775E+02 -0.43553389728E+02 -0.38732803045E+02  0.63298962316E+02  0.47000000000E+01 0.  1.
         11    1    4    4    0    0 -0.31987958782E+02  0.52393370042E+02  0.15010531110E+02  0.63195021763E+02  0.00000000000E+00 0. -1.
        -12    1    4    4    0    0  0.44291872284E+02  0.35268075254E+02 -0.72848325079E+01  0.57084812930E+02  0.00000000000E+00 0.  1.
</event>
<event>
12    1  0.8461994E-002  0.2015369E+03  0.7818608E-02  0.1150431E+00
         21   -1    0    0  503  502  0.00000000000E+00  0.00000000000E+00  0.55902585218E+03  0.55902585218E+03  0.00000000000E+00 0. -1.
         21   -1    0    0  501  503 -0.00000000000E+00 -0.00000000000E+00 -0.16586709042E+03  0.16586709042E+03  0.00000000000E+00 0. -1.
          6    2    1    2  501    0 -0.68501970570E+01  0.93336531354E+02 -0.77926200098E+02  0.21607783395E+03  0.17848950775E+03 0.  0.
         24    2    3    3    0    0  0.39630874592E+01  0.34001078829E+02  0.29159307679E+02  0.93085886961E+02  0.81504218929E+02 0.  0.
         -6    2    1    2    0  502  0.68501970570E+01 -0.93336531354E+02  0.47108496185E+03  0.50881510865E+03  0.16796767613E+03 0.  0.
        -24    2    5    5    0    0  0.65246184099E+01 -0.27364419779E+01  0.33807580816E+03  0.34781198085E+03  0.81411689568E+02 0.  0.
          5    1    3    3  501    0 -0.10813284516E+02  0.59335452525E+02 -0.10708550778E+03  0.12299194699E+03  0.47000000000E+01 0. -1.
        -11    1    4    4    0    0  0.34757355481E+02  0.36088418380E+02 -0.74538227749E+00  0.50109912152E+02  0.00000000000E+00 0.  1.
         12    1    4    4    0    0 -0.30794268022E+02 -0.20873395509E+01  0.29904689956E+02  0.42975974809E+02  0.00000000000E+00 0. -1.
         -5    1    5    5    0  502  0.32557864715E+00 -0.90600089376E+02  0.13300915369E+03  0.16100312780E+03  0.47000000000E+01 0.  1.
         13    1    6    6    0    0 -0.13941400518E+02 -0.18081693923E+02  0.30569444581E+03  0.30654592560E+03  0.00000000000E+00 0. -1.
        -14    1    6    6    0    0  0.20466018928E+02  0.15345251945E+02  0.32381362350E+02  0.41266055247E+02  0.00000000000E+00 0.  1.
</event>
<event>
12    1  0.8461994E-002  0.1978471E+03  0.7818608E-02  0.1151712E+00
         21   -1    0    0  501  502  0.00000000000E+00  0.00000000000E+00  0.72761919094E+02  0.72761919094E+02  0.00000000000E+00 0. -1.
         21   -1    0    0  502  503 -0.00000000000E+00 -0.00000000000E+00 -0.12796163372E+04  0.12796163372E+04  0.00000000000E+00 0. -1.
         -6    2    1    2    0  503  0.93333245339E+02 -0.28203536112E+02 -0.11192788010E+04  0.11366303270E+04  0.17215380238E+03 0.  0.
        -24    2    3    3    0    0  0.11778413128E+03 -0.56174647355E+02 -0.99568810340E+03  0.10074909471E+04  0.81329679296E+02 0.  0.
          6    2    1    2  501    0 -0.93333245339E+02  0.28203536112E+02 -0.87575617073E+02  0.21574792930E+03  0.17138012182E+03 0.  0.
         24    2    5    5    0    0 -0.35216782109E+02 -0.23443977200E+02  0.88845102954E+01  0.91765530943E+02  0.80945267539E+02 0.  0.
          5    1    5    5  501    0 -0.58116463230E+02  0.51647513312E+02 -0.96460127368E+02  0.12398239835E+03  0.47000000000E+01 0. -1.
        -11    1    6    6    0    0  0.18431890769E+02  0.13919553168E+02 -0.76470187084E+01  0.24330340171E+02  0.00000000000E+00 0.  1.
         12    1    6    6    0    0 -0.53648672878E+02 -0.37363530368E+02  0.16531529004E+02  0.67435190771E+02  0.00000000000E+00 0. -1.
         -5    1    3    3    0  503 -0.24450885944E+02  0.27971111243E+02 -0.12359069762E+03  0.12913937984E+03  0.47000000000E+01 0.  1.
         13    1    4    4    0    0  0.52175226117E+02  0.57373548125E+01 -0.20260468182E+03  0.20929364194E+03  0.00000000000E+00 0. -1.
        -14    1    4    4    0    0  0.65608905165E+02 -0.61912002167E+02 -0.79308342158E+03  0.79819730520E+03  0.00000000000E+00 0.  1.
</event>
<event>
12    1  0.8461994E-002  0.1863567E+03  0.7818608E-02  0.1161816E+00
         21   -1    0    0  501  502  0.00000000000E+00  0.00000000000E+00  0.94008475343E+03  0.94008475343E+03  0.00000000000E+00 0. -1.
         21   -1    0    0  502  503 -0.00000000000E+00 -0.00000000000E+00 -0.40927003729E+02  0.40927003729E+02  0.00000000000E+00 0. -1.
         -6    2    1    2    0  503 -0.28908183292E+02 -0.68026502189E+02  0.29595649154E+03  0.34967938599E+03  0.17094484504E+03 0.  0.
        -24    2    3    3    0    0  0.11129560405E+02 -0.70433526315E+01  0.61813670065E+02  0.10438993189E+03  0.83083404727E+02 0.  0.
          6    2    1    2  501    0  0.28908183292E+02  0.68026502189E+02  0.60320125816E+03  0.63133237116E+03  0.17107167202E+03 0.  0.
         24    2    5    5    0    0  0.19075863266E+02  0.82442947836E+02  0.60203075679E+03  0.61322247067E+03  0.80249848668E+02 0.  0.
          5    1    5    5  501    0  0.98323200263E+01 -0.14416445646E+02  0.11705013693E+01  0.18109900486E+02  0.47000000000E+01 0. -1.
        -11    1    6    6    0    0  0.19327839631E+02 -0.80646094502E+01  0.20189285811E+03  0.20297617955E+03  0.00000000000E+00 0.  1.
         12    1    6    6    0    0 -0.25197636523E+00  0.90507557286E+02  0.40013789868E+03  0.41024629112E+03  0.00000000000E+00 0. -1.
         -5    1    3    3    0  503 -0.40037743698E+02 -0.60983149558E+02  0.23414282147E+03  0.24528945411E+03  0.47000000000E+01 0.  1.
         13    1    4    4    0    0  0.10620103120E+02 -0.42576600492E+02  0.16678570642E+02  0.46943883717E+02  0.00000000000E+00 0. -1.
        -14    1    4    4    0    0  0.50945728498E+00  0.35533247861E+02  0.45135099423E+02  0.57446048168E+02  0.00000000000E+00 0.  1.
</event>
<event>
12    1  0.8461994E-002  0.2048671E+03  0.7818608E-02  0.1146202E+00
         21   -1    0    0  503  502  0.00000000000E+00  0.00000000000E+00  0.79694861073E+03  0.79694861073E+03  0.00000000000E+00 0.  1.
         21   -1    0    0  501  503 -0.00000000000E+00 -0.00000000000E+00 -0.57839566036E+02  0.57839566036E+02  0.00000000000E+00 0.  1.
          6    2    1    2  501    0  0.10315369786E+03  0.41134204609E+02  0.23214284295E+03  0.30799273572E+03  0.16922327722E+03 0.  0.
         24    2    3    3    0    0  0.98104469660E+02  0.55948406748E+02  0.90881586779E+02  0.16578940318E+03  0.80448444398E+02 0.  0.
         -6    2    1    2    0  502 -0.10315369786E+03 -0.41134204609E+02  0.50696620175E+03  0.54679544105E+03  0.17215637214E+03 0.  0.
        -24    2    5    5    0    0  0.11335520514E+02 -0.24037109508E+02  0.20787993112E+03  0.22605445667E+03  0.84736503100E+02 0.  0.
          5    1    3    3  501    0  0.50492282022E+01 -0.14814202139E+02  0.14126125617E+03  0.14220333254E+03  0.47000000000E+01 0. -1.
        -11    1    4    4    0    0  0.10120663595E+03  0.29172008881E+02  0.90443775736E+02  0.13883034910E+03  0.00000000000E+00 0.  1.
         12    1    4    4    0    0 -0.31021662849E+01  0.26776397867E+02  0.43781104267E+00  0.26959054080E+02  0.00000000000E+00 0. -1.
         -5    1    5    5    0  502 -0.11448921838E+03 -0.17097095101E+02  0.29908627062E+03  0.32074098438E+03  0.47000000000E+01 0.  1.
         13    1    6    6    0    0  0.11558434531E+02  0.25149470037E+02  0.13707368686E+03  0.13984022626E+03  0.00000000000E+00 0. -1.
        -14    1    6    6    0    0 -0.22291401646E+00 -0.49186579545E+02  0.70806244266E+02  0.86214230409E+02  0.00000000000E+00 0.  1.
</event>
<event>
12    1  0.8461994E-002  0.2025625E+03  0.7818608E-02  0.1147953E+00
         21   -1    0    0  501  502  0.00000000000E+00  0.00000000000E+00  0.99061837676E+03  0.99061837676E+03  0.00000000000E+00 0.  1.
         21   -1    0    0  502  503 -0.00000000000E+00 -0.00000000000E+00 -0.13376605214E+03  0.13376605214E+03  0.00000000000E+00 0. -1.
         -6    2    1    2    0  503 -0.88908087961E+02  0.57076197604E+02 -0.40129152496E+02  0.20481532749E+03  0.17081167717E+03 0.  0.
        -24    2    3    3    0    0 -0.10086596596E+03  0.77337802226E+02 -0.71044915854E+02  0.16568224823E+03  0.79045231153E+02 0.  0.
          6    2    1    2  501    0  0.88908087961E+02 -0.57076197604E+02  0.89698147712E+03  0.91956910140E+03  0.17282714350E+03 0.  0.
         24    2    5    5    0    0  0.26328013922E+02 -0.98812633769E+02  0.54639944450E+03  0.56097734555E+03  0.75406421244E+02 0.  0.
          5    1    5    5  501    0  0.62580074039E+02  0.41736436165E+02  0.35058203262E+03  0.35859175585E+03  0.47000000000E+01 0. -1.
        -11    1    6    6    0    0  0.35113052288E+02 -0.68843882806E+02  0.49375788958E+03  0.49976920689E+03  0.00000000000E+00 0.  1.
         12    1    6    6    0    0 -0.87850383658E+01 -0.29968750962E+02  0.52641554923E+02  0.61208138659E+02  0.00000000000E+00 0. -1.
         -5    1    3    3    0  503  0.11957878002E+02 -0.20261604622E+02  0.30915763359E+02  0.39133079258E+02  0.47000000000E+01 0.  1.
         11    1    4    4    0    0 -0.19920787794E+02  0.25926282082E+02  0.15796646314E+02  0.36311760129E+02  0.00000000000E+00 0. -1.
        -12    1    4    4    0    0 -0.80945178169E+02  0.51411520144E+02 -0.86841562169E+02  0.12937048810E+03  0.00000000000E+00 0.  1.
</event>
<event>
12    1  0.8461994E-002  0.1839385E+03  0.7818608E-02  0.1164652E+00
         21   -1    0    0  501  502  0.00000000000E+00  0.00000000000E+00  0.11297204460E+04  0.11297204460E+04  0.00000000000E+00 0. -1.
         21   -1    0    0  502  503 -0.00000000000E+00 -0.00000000000E+00 -0.32070071325E+02  0.32070071325E+02  0.00000000000E+00 0. -1.
         -6    2    1    2    0  503  0.31652012154E+02  0.50037537141E+02  0.38189759926E+03  0.42278076170E+03  0.17144150941E+03 0.  0.
        -24    2    3    3    0    0  0.55190617659E+02  0.81547756617E+02  0.34904230515E+03  0.37131698579E+03  0.79685207294E+02 0.  0.
          6    2    1    2  501    0 -0.31652012154E+02 -0.50037537141E+02  0.71575277540E+03  0.73900975561E+03  0.17414872493E+03 0.  0.
         24    2    5    5    0    0 -0.60208100262E+02  0.23996671982E+02  0.41432167230E+03  0.42727378687E+03  0.81850993925E+02 0.  0.
          5    1    5    5  501    0  0.28556088108E+02 -0.74034209122E+02  0.30143110311E+03  0.31173596874E+03  0.47000000000E+01 0. -1.
        -13    1    6    6    0    0  0.30432649354E+01  0.26063577519E+02  0.24689937182E+03  0.24828989376E+03  0.00000000000E+00 0.  1.
         14    1    6    6    0    0 -0.63251365198E+02 -0.20669055373E+01  0.16742230048E+03  0.17898389311E+03  0.00000000000E+00 0. -1.
         -5    1    3    3    0  503 -0.23538605504E+02 -0.31510219477E+02  0.32855294109E+02  0.51463775916E+02  0.47000000000E+01 0.  1.
         13    1    4    4    0    0  0.47273353623E+02  0.20215515848E+02  0.78803655018E+02  0.94092789776E+02  0.00000000000E+00 0. -1.
        -14    1    4    4    0    0  0.79172640360E+01  0.61332240769E+02  0.27023865013E+03  0.27722419601E+03  0.00000000000E+00 0.  1.
</event>
<event>
12    1  0.8461994E-002  0.2201217E+03  0.7818608E-02  0.1133964E+00
         21   -1    0    0  503  502  0.00000000000E+00  0.00000000000E+00  0.81858524233E+03  0.81858524233E+03  0.00000000000E+00 0.  1.
         21   -1    0    0  501  503 -0.00000000000E+00 -0.00000000000E+00 -0.22661352707E+03  0.22661352707E+03  0.00000000000E+00 0. -1.
          6    2    1    2  501    0  0.10268506770E+02  0.13629900114E+03 -0.15369701023E+03  0.26771861521E+03  0.17136985158E+03 0.  0.
         24    2    3    3    0    0 -0.60006884761E+02  0.87750453655E+02 -0.10034567314E+03  0.16690171540E+03  0.80535458957E+02 0.  0.
         -6    2    1    2    0  502 -0.10268506770E+02 -0.13629900114E+03  0.74566872550E+03  0.77748015418E+03  0.17254182687E+03 0.  0.
        -24    2    5    5    0    0 -0.36420096284E+02 -0.48890845757E+02  0.19699606384E+03  0.22125369768E+03  0.80181115961E+02 0.  0.
          5    1    3    3  501    0  0.70275391530E+02  0.48548547489E+02 -0.53351337095E+02  0.10081689981E+03  0.47000000000E+01 0. -1.
        -13    1    4    4    0    0 -0.59921715309E+02  0.31011977767E+02 -0.23641545096E+02  0.71493198173E+02  0.00000000000E+00 0.  1.
         14    1    4    4    0    0 -0.85169452165E-01  0.56738475889E+02 -0.76704128043E+02  0.95408517224E+02  0.00000000000E+00 0. -1.
         -5    1    5    5    0  502  0.26151589514E+02 -0.87408155387E+02  0.54867266165E+03  0.55622645650E+03  0.47000000000E+01 0.  1.
         13    1    6    6    0    0  0.22968791725E+02 -0.73000315023E+01  0.25635296448E+02  0.35185569161E+02  0.00000000000E+00 0. -1.
        -14    1    6    6    0    0 -0.59388888009E+02 -0.41590814255E+02  0.17136076739E+03  0.18606812852E+03  0.00000000000E+00 0.  1.
</event>
<event>
12    1  0.8461994E-002  0.4520464E+03  0.7818608E-02  0.1027133E+00
         21   -1    0    0  501  502  0.00000000000E+00  0.00000000000E+00  0.49394362345E+03  0.49394362345E+03  0.00000000000E+00 0.  1.
         21   -1    0    0  502  503 -0.00000000000E+00 -0.00000000000E+00 -0.74335189080E+03  0.74335189080E+03  0.00000000000E+00 0.  1.
         -6    2    1    2    0  503  0.18118720495E+03 -0.37598697917E+03 -0.53684996286E+03  0.70182178437E+03  0.17364021033E+03 0.  0.
        -24    2    3    3    0    0  0.18805583114E+03 -0.29108398844E+03 -0.36394278349E+03  0.50901442315E+03  0.80910131426E+02 0.  0.
          6    2    1    2  501    0 -0.18118720495E+03  0.37598697917E+03  0.28744169552E+03  0.53547372988E+03  0.17295772701E+03 0.  0.
         24    2    5    5    0    0 -0.34693715102E+02  0.19122493059E+03  0.96977715620E+02  0.23233024109E+03  0.82474454525E+02 0.  0.
          5    1    5    5  501    0 -0.14649348985E+03  0.18476204857E+03  0.19046397990E+03  0.30314348880E+03  0.47000000000E+01 0. -1.
        -13    1    6    6    0    0 -0.35027824042E+02  0.14233798968E+03  0.10817264895E+03  0.18217676510E+03  0.00000000000E+00 0.  1.
         14    1    6    6    0    0  0.33410893968E+00  0.48886940917E+02 -0.11194933333E+02  0.50153475984E+02  0.00000000000E+00 0. -1.
         -5    1    3    3    0  503 -0.68686261924E+01 -0.84902990723E+02 -0.17290717938E+03  0.19280736122E+03  0.47000000000E+01 0.  1.
         11    1    4    4    0    0  0.44756044238E+02 -0.13268513880E+03 -0.11671365359E+03  0.18229242027E+03  0.00000000000E+00 0. -1.
        -12    1    4    4    0    0  0.14329978691E+03 -0.15839884964E+03 -0.24722912990E+03  0.32672200288E+03  0.00000000000E+00 0.  1.
</event>
<event>
12    1  0.8461994E-002  0.2000335E+03  0.7818608E-02  0.1149741E+00
         21   -1    0    0  501  502  0.00000000000E+00  0.00000000000E+00  0.91394589864E+02  0.91394589864E+02  0.00000000000E+00 0.  1.
         21   -1    0    0  502  503 -0.00000000000E+00 -0.00000000000E+00 -0.73357248436E+03  0.73357248436E+03  0.00000000000E+00 0.  1.
         -6    2    1    2    0  503  0.40997797046E+02 -0.93265112057E+02 -0.58307258328E+03  0.61638417105E+03  0.17197851162E+03 0.  0.
        -24    2    3    3    0    0  0.25968311668E+02  0.10970077821E+02 -0.19331604730E+03  0.21262296987E+03  0.83921018549E+02 0.  0.
          6    2    1    2  501    0 -0.40997797046E+02  0.93265112057E+02 -0.59105311222E+02  0.20858290318E+03  0.17214583700E+03 0.  0.
         24    2    5    5    0    0  0.28210833106E+02  0.72942806805E+02  0.60210140890E+01  0.11128768836E+03  0.78944238554E+02 0.  0.
          5    1    5    5  501    0 -0.69208630152E+02  0.20322305251E+02 -0.65126325311E+02  0.97295214819E+02  0.47000000000E+01 0. -1.
        -13    1    6    6    0    0 -0.13601622853E+02  0.66847313597E+02 -0.21479134857E+01  0.68250868212E+02  0.00000000000E+00 0.  1.
         14    1    6    6    0    0  0.41812455959E+02  0.60954932083E+01  0.81689275747E+01  0.43036820149E+02  0.00000000000E+00 0. -1.
         -5    1    3    3    0  503  0.15029485378E+02 -0.10423518988E+03 -0.38975653597E+03  0.40376120117E+03  0.47000000000E+01 0.  1.
         13    1    4    4    0    0  0.50189729864E+01 -0.69236474409E+01  0.66095072495E+01  0.10807986390E+02  0.00000000000E+00 0. -1.
        -14    1    4    4    0    0  0.20949338682E+02  0.17893725261E+02 -0.19992555455E+03  0.20181498348E+03  0.00000000000E+00 0.  1.
</event>
<event>
12    1  0.8461994E-002  0.1762798E+03  0.7818608E-02  0.1171910E+00
         21   -1    0    0  503  502  0.00000000000E+00  0.00000000000E+00  0.10160671366E+03  0.10160671366E+03  0.00000000000E+00 0. -1.
         21   -1    0    0  501  503 -0.00000000000E+00 -0.00000000000E+00 -0.42169873723E+03  0.42169873723E+03  0.00000000000E+00 0. -1.
          6    2    1    2  501    0 -0.34448558799E+02  0.19643432656E+02 -0.29845756083E+03  0.34570298995E+03  0.16988547316E+03 0.  0.
         24    2    3    3    0    0  0.45761918514E+02  0.11356178128E+02 -0.14554325981E+03  0.17276579697E+03  0.80262470421E+02 0.  0.
         -6    2    1    2    0  502  0.34448558799E+02 -0.19643432656E+02 -0.21634462738E+02  0.17760246094E+03  0.17176151054E+03 0.  0.
        -24    2    5    5    0    0  0.76810338207E+02  0.12383358969E+02 -0.42739628648E+02  0.12026352334E+03  0.81138545437E+02 0.  0.
          5    1    3    3  501    0 -0.80210477313E+02  0.82872545282E+01 -0.15291430102E+03  0.17293719298E+03  0.47000000000E+01 0. -1.
        -11    1    4    4    0    0 -0.21146988797E+02 -0.81043980466E+00 -0.16262648505E+02  0.26689430197E+02  0.00000000000E+00 0.  1.
         12    1    4    4    0    0  0.66908907311E+02  0.12166617932E+02 -0.12928061131E+03  0.14607636677E+03  0.00000000000E+00 0. -1.
         -5    1    5    5    0  502 -0.42361779407E+02 -0.32026791625E+02  0.21105165910E+02  0.57338937594E+02  0.47000000000E+01 0.  1.
         11    1    6    6    0    0  0.26051641339E+02 -0.32822431686E+02 -0.41684726576E+01  0.42111473526E+02  0.00000000000E+00 0. -1.
        -12    1    6    6    0    0  0.50758696868E+02  0.45205790655E+02 -0.38571155990E+02  0.78152049819E+02  0.00000000000E+00 0.  1.
</event>
<event>
12    1  0.8461994E-002  0.2144507E+03  0.7818608E-02  0.1138250E+00
         21   -1    0    0  501  502  0.00000000000E+00  0.00000000000E+00  0.27899569919E+03  0.27899569919E+03  0.00000000000E+00 0.  1.
         21   -1    0    0  502  503 -0.00000000000E+00 -0.00000000000E+00 -0.16666242243E+03  0.16666242243E+03  0.00000000000E+00 0. -1.
         -6    2    1    2    0  503 -0.11315671319E+03  0.59418467832E+02  0.28961956250E+02  0.21557142433E+03  0.17116438887E+03 0.  0.
        -24    2    3    3    0    0 -0.63725559889E+02  0.30033828549E+02 -0.48837800376E+02  0.11871179355E+03  0.82124182447E+02 0.  0.
          6    2    1    2  501    0  0.11315671319E+03 -0.59418467832E+02  0.83371320519E+02  0.23008669729E+03  0.17220370242E+03 0.  0.
         24    2    5    5    0    0  0.32881117257E+02 -0.36165444705E+01 -0.16994878685E+02  0.89895792110E+02  0.81842411204E+02 0.  0.
          5    1    5    5  501    0  0.80275595935E+02 -0.55801923362E+02  0.10036619920E+03  0.14019090518E+03  0.47000000000E+01 0. -1.
        -11    1    6    6    0    0  0.51458921665E+01  0.14877011440E+02  0.29055630097E+02  0.33045957633E+02  0.00000000000E+00 0.  1.
         12    1    6    6    0    0  0.27735225090E+02 -0.18493555910E+02 -0.46050508781E+02  0.56849834477E+02  0.00000000000E+00 0. -1.
         -5    1    3    3    0  503 -0.49431153303E+02  0.29384639283E+02  0.77799756626E+02  0.96859630774E+02  0.47000000000E+01 0.  1.
         11    1    4    4    0    0 -0.10117540864E+02 -0.26123894499E+02 -0.21027143363E+01  0.28093485090E+02  0.00000000000E+00 0. -1.
        -12    1    4    4    0    0 -0.53608019025E+02  0.56157723047E+02 -0.46735086039E+02  0.90618308463E+02  0.00000000000E+00 0.  1.
</event>
<event>
12    1  0.8461994E-002  0.2345241E+03  0.7818608E-02  0.1123656E+00
         21   -1    0    0  501  502  0.00000000000E+00  0.00000000000E+00  0.82496099805E+02  0.82496099805E+02  0.00000000000E+00 0. -1.
         21   -1    0    0  502  503 -0.00000000000E+00 -0.00000000000E+00 -0.98083053874E+03  0.98083053874E+03  0.00000000000E+00 0. -1.
         -6    2    1    2    0  503  0.35980260861E+02  0.15387322704E+03 -0.75191889362E+03  0.78764430856E+03  0.17329161856E+03 0.  0.
        -24    2    3    3    0    0  0.87263591256E+02  0.97696895059E+02 -0.42042628838E+03  0.44750434094E+03  0.79638266752E+02 0.  0.
          6    2    1    2  501    0 -0.35980260861E+02 -0.15387322704E+03 -0.14641554532E+03  0.27568232999E+03  0.17202234153E+03 0.  0.
         24    2    5    5    0    0 -0.37981345127E+02 -0.12801872809E+03 -0.35075676852E+02  0.16126591611E+03  0.83336758224E+02 0.  0.
          5    1    5    5  501    0  0.20010842660E+01 -0.25854498944E+02 -0.11133986847E+03  0.11441641388E+03  0.47000000000E+01 0. -1.
        -13    1    6    6    0    0  0.12452474140E+02 -0.34628942177E+02 -0.40837261407E+02  0.54971898892E+02  0.00000000000E+00 0.  1.
         14    1    6    6    0    0 -0.50433819268E+02 -0.93389785916E+02  0.57615845554E+01  0.10629401722E+03  0.00000000000E+00 0. -1.
         -5    1    3    3    0  503 -0.51283330395E+02  0.56176331978E+02 -0.33149260523E+03  0.34013996762E+03  0.47000000000E+01 0.  1.
         13    1    4    4    0    0  0.17911856602E+02  0.50401251289E+02 -0.26994205959E+03  0.27519054540E+03  0.00000000000E+00 0. -1.
        -14    1    4    4    0    0  0.69351734655E+02  0.47295643771E+02 -0.15048422879E+03  0.17231379554E+03  0.00000000000E+00 0.  1.
</event>
<event>
12    1  0.8461994E-002  0.1895113E+03  0.7818608E-02  0.1159216E+00
         21   -1    0    0  503  502  0.00000000000E+00  0.00000000000E+00  0.12949511628E+04  0.12949511628E+04  0.00000000000E+00 0.  1.
         21   -1    0    0  501  503 -0.00000000000E+00 -0.00000000000E+00 -0.31146872905E+02  0.31146872905E+02  0.00000000000E+00 0. -1.
          6    2    1    2  501    0  0.44425335690E+02  0.64597244382E+02  0.40808596137E+03  0.44994297342E+03  0.17253438217E+03 0.  0.
         24    2    3    3    0    0  0.58200962637E+02 -0.63475061716E+01  0.32726764844E+03  0.34142285900E+03  0.77703359296E+02 0.  0.
         -6    2    1    2    0  502 -0.44425335690E+02 -0.64597244382E+02  0.85571832854E+03  0.87615506230E+03  0.17101877371E+03 0.  0.
        -24    2    5    5    0    0 -0.72537772632E+01  0.12502958928E+02  0.21972826644E+03  0.23441398118E+03  0.80377000648E+02 0.  0.
          5    1    3    3  501    0 -0.13775626947E+02  0.70944750554E+02  0.80818312927E+02  0.10852011442E+03  0.47000000000E+01 0. -1.
        -11    1    4    4    0    0  0.56686716601E+02  0.25720747414E+02  0.25238780575E+03  0.25995104381E+03  0.00000000000E+00 0.  1.
         12    1    4    4    0    0  0.15142460364E+01 -0.32068253586E+02  0.74879842689E+02  0.81471815189E+02  0.00000000000E+00 0. -1.
         -5    1    5    5    0  502 -0.37171558427E+02 -0.77100203310E+02  0.63599006211E+03  0.64174108113E+03  0.47000000000E+01 0.  1.
         13    1    6    6    0    0 -0.13777858981E+02  0.84624705192E+01  0.17085045761E+01  0.16259206416E+02  0.00000000000E+00 0. -1.
        -14    1    6    6    0    0  0.65240817183E+01  0.40404884086E+01  0.21801976186E+03  0.21815477476E+03  0.00000000000E+00 0.  1.
</event>
<event>
12    1  0.8461994E-002  0.2510019E+03  0.7818608E-02  0.1114111E+00
         21   -1    0    0  503  502  0.00000000000E+00  0.00000000000E+00  0.28664488949E+03  0.28664488949E+03  0.00000000000E+00 0. -1.
         21   -1    0    0  501  503 -0.00000000000E+00 -0.00000000000E+00 -0.23427337482E+03  0.23427337482E+03  0.00000000000E+00 0.  1.
          6    2    1    2  501    0  0.29818720136E+01 -0.17091945511E+03 -0.53667075639E+02  0.25667511185E+03  0.18379229130E+03 0.  0.
         24    2    3    3    0    0 -0.34351449925E+02 -0.14661885281E+03 -0.95201322509E+02  0.19558927174E+03  0.80714071284E+02 0.  0.
         -6    2    1    2    0  502 -0.29818720136E+01  0.17091945511E+03  0.10603859031E+03  0.26424315245E+03  0.17134149903E+03 0.  0.
        -24    2    5    5    0    0 -0.60515996611E+02  0.12439917918E+03  0.10367396987E+03  0.19006773202E+03  0.78994361209E+02 0.  0.
          5    1    3    3  501    0  0.37333321939E+02 -0.24300602302E+02  0.41534246869E+02  0.61085840112E+02  0.47000000000E+01 0. -1.
        -13    1    4    4    0    0  0.17782842692E+02 -0.43817479318E+02 -0.19540827429E+01  0.47328843503E+02  0.00000000000E+00 0.  1.
         14    1    4    4    0    0 -0.52134292617E+02 -0.10280137349E+03 -0.93247239766E+02  0.14826042824E+03  0.00000000000E+00 0. -1.
         -5    1    5    5    0  502  0.57534124597E+02  0.46520275932E+02  0.23646204394E+01  0.74175420428E+02  0.47000000000E+01 0.  1.
         13    1    6    6    0    0 -0.34589776345E+02  0.12573783869E+03  0.98905419337E+02  0.16367265709E+03  0.00000000000E+00 0. -1.
        -14    1    6    6    0    0 -0.25926220265E+02 -0.13386595106E+01  0.47685505331E+01  0.26395074933E+02  0.00000000000E+00 0.  1.
</event>
<event>
12    1  0.8461994E-002  0.1762485E+03  0.7818608E-02  0.1172819E+00
         21   -1    0    0  503  502  0.00000000000E+00  0.00000000000E+00  0.27194970616E+04  0.27194970616E+04  0.00000000000E+00 0. -1.
         21   -1    0    0  501  503 -0.00000000000E+00 -0.00000000000E+00 -0.31611198418E+02  0.31611198418E+02  0.00000000000E+00 0. -1.
          6    2    1    2  501    0  0.58459588028E+00 -0.25189342466E+02  0.24265804964E+03  0.29991073819E+03  0.17443817557E+03 0.  0.
         24    2    3    3    0    0  0.58611458357E+02  0.21262677639E+02  0.11371941449E+03  0.15100751937E+03  0.77354774650E+02 0.  0.
         -6    2    1    2    0  502 -0.58459588028E+00  0.25189342466E+02  0.24452278135E+04  0.24511975218E+04  0.16910170372E+03 0.  0.
        -24    2    5    5    0    0 -0.35141392676E+02  0.37494199545E+02  0.22677041632E+04  0.22698626985E+04  0.84579937925E+02 0.  0.
          5    1    3    3  501    0 -0.58026862477E+02 -0.46452020105E+02  0.12893863515E+03  0.14890321882E+03  0.47000000000E+01 0. -1.
        -11    1    4    4    0    0 -0.91423434176E+01 -0.94597752482E+01  0.54085908947E+02  0.55662872164E+02  0.00000000000E+00 0.  1.
         12    1    4    4    0    0  0.67753801775E+02  0.30722452887E+02  0.59633505546E+02  0.95344647202E+02  0.00000000000E+00 0. -1.
         -5    1    5    5    0  502  0.34556796795E+02 -0.12304857078E+02  0.17752365033E+03  0.18133482329E+03  0.47000000000E+01 0.  1.
         11    1    6    6    0    0 -0.68195079605E-01 -0.25979019178E+02  0.70060158946E+03  0.70108309154E+03  0.00000000000E+00 0. -1.
        -12    1    6    6    0    0 -0.35073197596E+02  0.63473218723E+02  0.15671025737E+04  0.15687796070E+04  0.00000000000E+00 0.  1.
</event>
<event>
12    1  0.8461994E-002  0.2036038E+03  0.7818608E-02  0.1146908E+00
         21   -1    0    0  501  502  0.00000000000E+00  0.00000000000E+00  0.59389689827E+03  0.59389689827E+03  0.00000000000E+00 0. -1.
         21   -1    0    0  502  503 -0.00000000000E+00 -0.00000000000E+00 -0.72739564687E+02  0.72739564687E+02  0.00000000000E+00 0. -1.
         -6    2    1    2    0  503  0.43197513123E+02  0.10042822523E+03  0.18985354447E+03  0.27777055080E+03  0.17076374610E+03 0.  0.
        -24    2    3    3    0    0  0.25042048659E+02  0.13433750070E+03  0.17480519086E+03  0.23620129774E+03  0.80997098783E+02 0.  0.
          6    2    1    2  501    0 -0.43197513123E+02 -0.10042822523E+03  0.33130378911E+03  0.38886591216E+03  0.17176333543E+03 0.  0.
         24    2    5    5    0    0  0.94219903763E+01 -0.24631542715E+02  0.77243511021E+02  0.11852785688E+03  0.85946530254E+02 0.  0.
          5    1    5    5  501    0 -0.52619503499E+02 -0.75796682511E+02  0.25406027809E+03  0.27033805528E+03  0.47000000000E+01 0. -1.
        -13    1    6    6    0    0 -0.32250721876E+01  0.28430109315E+02  0.49873881300E+02  0.57498489043E+02  0.00000000000E+00 0.  1.
         14    1    6    6    0    0  0.12647062564E+02 -0.53061652030E+02  0.27369629721E+02  0.61029367838E+02  0.00000000000E+00 0. -1.
         -5    1    3    3    0  503  0.18155464464E+02 -0.33909275472E+02  0.15048353613E+02  0.41569253053E+02  0.47000000000E+01 0.  1.
         11    1    4    4    0    0  0.31027752756E+02  0.76719244314E+02  0.45329240213E+02  0.94357320371E+02  0.00000000000E+00 0. -1.
        -12    1    4    4    0    0 -0.59857040965E+01  0.57618256383E+02  0.12947595064E+03  0.14184397737E+03  0.00000000000E+00 0.  1.
</event>
<event>
12    1  0.8461994E-002  0.2714166E+03  0.7818608E-02  0.1100476E+00
         21   -1    0    0  501  502  0.00000000000E+00  0.00000000000E+00  0.53168573384E+02  0.53168573384E+02  0.00000000000E+00 0.  1.
         21   -1    0    0  502  503 -0.00000000000E+00 -0.00000000000E+00 -0.13962621138E+04  0.13962621138E+04  0.00000000000E+00 0. -1.
         -6    2    1    2    0  503  0.19962785510E+03  0.60137456672E+02 -0.60750030919E+03  0.66536155842E+03  0.17372847647E+03 0.  0.
        -24    2    3    3    0    0  0.56889764170E+02 -0.13105522565E+02 -0.33619447252E+03  0.35013522129E+03  0.78484073844E+02 0.  0.
          6    2    1    2  501    0 -0.19962785510E+03 -0.60137456672E+02 -0.73559323118E+03  0.78406912872E+03  0.17377917774E+03 0.  0.
         24    2    5    5    0    0 -0.54395328769E+02 -0.53779547414E+02 -0.46337651436E+03  0.47543189727E+03  0.73936482016E+02 0.  0.
          5    1    5    5  501    0 -0.14523252633E+03 -0.63579092575E+01 -0.27221671682E+03  0.30863723144E+03  0.47000000000E+01 0. -1.
        -11    1    6    6    0    0  0.14229229177E+02 -0.17322259021E+01 -0.26325919751E+02  0.29975416933E+02  0.00000000000E+00 0.  1.
         12    1    6    6    0    0 -0.68624557946E+02 -0.52047321512E+02 -0.43705059461E+03  0.44545648034E+03  0.00000000000E+00 0. -1.
         -5    1    3    3    0  503  0.14273809093E+03  0.73242979237E+02 -0.27130583667E+03  0.31522633713E+03  0.47000000000E+01 0.  1.
         11    1    4    4    0    0  0.63258937665E+02 -0.33500167186E+02 -0.29690375543E+03  0.30541086160E+03  0.00000000000E+00 0. -1.
        -12    1    4    4    0    0 -0.63691734949E+01  0.20394644621E+02 -0.39290717089E+02  0.44724359689E+02  0.00000000000E+00 0.  1.
</event>
<event>
12    1  0.8461994E-002  0.1861742E+03  0.7818608E-02  0.1161989E+00
         21   -1    0    0  501  502  0.00000000000E+00  0.00000000000E+00  0.11773779899E+03  0.11773779899E+03  0.00000000000E+00 0.  1.
         21   -1    0    0  502  503 -0.00000000000E+00 -0.00000000000E+00 -0.39004825545E+03  0.39004825545E+03  0.00000000000E+00 0. -1.
         -6    2    1    2    0  503  0.63615667942E+02  0.36478216960E+02 -0.26206566702E+03  0.32146420531E+03  0.17112337054E+03 0.  0.
        -24    2    3    3    0    0  0.91135994180E+01  0.24783595846E+02 -0.41627922122E+02  0.94039208859E+02  0.80082486133E+02 0.  0.
          6    2    1    2  501    0 -0.63615667942E+02 -0.36478216960E+02 -0.10244789447E+02  0.18632184913E+03  0.17097737345E+03 0.  0.
         24    2    5    5    0    0 -0.84633543161E+02 -0.60930675300E+02  0.31246075278E+02  0.13356527936E+03  0.77382057422E+02 0.  0.
          5    1    5    5  501    0  0.21017875219E+02  0.24452458340E+02 -0.41490864725E+02  0.52756569764E+02  0.47000000000E+01 0. -1.
        -11    1    6    6    0    0 -0.30659662985E+02  0.15373507435E+02  0.19260229817E+02  0.39335939264E+02  0.00000000000E+00 0.  1.
         12    1    6    6    0    0 -0.53973880176E+02 -0.76304182735E+02  0.11985845461E+02  0.94229340100E+02  0.00000000000E+00 0. -1.
         -5    1    3    3    0  503  0.54502068524E+02  0.11694621114E+02 -0.22043774490E+03  0.22742499645E+03  0.47000000000E+01 0.  1.
         11    1    4    4    0    0 -0.33588992564E+02  0.82357618136E+00 -0.26495072123E+02  0.42788871754E+02  0.00000000000E+00 0. -1.
        -12    1    4    4    0    0  0.42702591982E+02  0.23960019665E+02 -0.15132850000E+02  0.51250337106E+02  0.00000000000E+00 0.  1.
</event>
<event>
12    1  0.8461994E-002  0.1817602E+03  0.7818608E-02  0.1166231E+00
         21   -1    0    0  501  502  0.00000000000E+00  0.00000000000E+00  0.36458466747E+02  0.36458466747E+02  0.00000000000E+00 0. -1.
         21   -1    0    0  502  503 -0.00000000000E+00 -0.00000000000E+00 -0.92955731260E+03  0.92955731260E+03  0.00000000000E+00 0.  1.
         -6    2    1    2    0  503 -0.18377767944E+01  0.58198054530E+02 -0.52661708710E+03  0.55693676229E+03  0.17164675877E+03 0.  0.
        -24    2    3    3    0    0  0.22278519694E+02  0.95763715046E+02 -0.29139437187E+03  0.31746945687E+03  0.78798188623E+02 0.  0.
          6    2    1    2  501    0  0.18377767944E+01 -0.58198054530E+02 -0.36648175875E+03  0.40907901705E+03  0.17218121767E+03 0.  0.
         24    2    5    5    0    0  0.50776121810E+02 -0.34171357441E+02 -0.16738969523E+03  0.20260387680E+03  0.96348973051E+02 0.  0.
          5    1    5    5  501    0 -0.48938345016E+02 -0.24026697089E+02 -0.19909206352E+03  0.20647514025E+03  0.47000000000E+01 0. -1.
        -13    1    6    6    0    0  0.29695146476E+02 -0.41895577527E+02 -0.17215626441E+03  0.17965194270E+03  0.00000000000E+00 0.  1.
         14    1    6    6    0    0  0.21080975334E+02  0.77242200866E+01  0.47665691792E+01  0.22951934095E+02  0.00000000000E+00 0. -1.
         -5    1    3    3    0  503 -0.24116296488E+02 -0.37565660516E+02 -0.23522271523E+03  0.23946730542E+03  0.47000000000E+01 0.  1.
         11    1    4    4    0    0  0.16497919270E+02  0.19593937273E+02 -0.12882264508E+02  0.28671526938E+02  0.00000000000E+00 0. -1.
        -12    1    4    4    0    0  0.57806004237E+01  0.76169777772E+02 -0.27851210736E+03  0.28879792994E+03  0.00000000000E+00 0.  1.
</event>
<event>
12    1  0.8461994E-002  0.2216955E+03  0.7818608E-02  0.1132760E+00
         21   -1    0    0  503  502  0.00000000000E+00  0.00000000000E+00  0.11830928206E+04  0.11830928206E+04  0.00000000000E+00 0. -1.
         21   -1    0    0  501  503 -0.00000000000E+00 -0.00000000000E+00 -0.99435281832E+02  0.99435281832E+02  0.00000000000E+00 0.  1.
          6    2    1    2  501    0  0.28377016457E+01  0.13891712967E+03  0.52321678590E+02  0.22778598363E+03  0.17275090397E+03 0.  0.
         24    2    3    3    0    0  0.16810348591E+02  0.52461619782E+02 -0.36094332615E+02  0.10324975962E+03  0.79516681556E+02 0.  0.
         -6    2    1    2    0  502 -0.28377016457E+01 -0.13891712967E+03  0.10313358601E+04  0.10547421188E+04  0.17181751717E+03 0.  0.
        -24    2    5    5    0    0  0.12108528874E+01 -0.12753675493E+00  0.40011006989E+03  0.40840859018E+03  0.81902540069E+02 0.  0.
          5    1    3    3  501    0 -0.13972646945E+02  0.86455509892E+02  0.88416011205E+02  0.12453622401E+03  0.47000000000E+01 0. -1.
        -13    1    4    4    0    0 -0.14490003786E+02  0.51601824147E+02 -0.45765280166E+02  0.70478147916E+02  0.00000000000E+00 0.  1.
         14    1    4    4    0    0  0.31300352376E+02  0.85979563466E+00  0.96709475506E+01  0.32771611708E+02  0.00000000000E+00 0. -1.
         -5    1    5    5    0  502 -0.40485545330E+01 -0.13878959292E+03  0.63122579025E+03  0.64633352858E+03  0.47000000000E+01 0.  1.
         13    1    6    6    0    0  0.74044714269E+01 -0.39415994799E+02  0.24605234272E+03  0.24929942279E+03  0.00000000000E+00 0. -1.
        -14    1    6    6    0    0 -0.61936185395E+01  0.39288458044E+02  0.15405772717E+03  0.15910916739E+03  0.00000000000E+00 0.  1.
</event>
<event>
12    1  0.8461994E-002  0.2919687E+03  0.7818608E-02  0.1089400E+00
         21   -1    0    0  503  502  0.00000000000E+00  0.00000000000E+00  0.13342097596E+03  0.13342097596E+03  0.00000000000E+00 0. -1.
         21   -1    0    0  501  503 -0.00000000000E+00 -0.00000000000E+00 -0.11309419319E+04  0.11309419319E+04  0.00000000000E+00 0. -1.
          6    2    1    2  501    0  0.14709813149E+03  0.18408089403E+03 -0.91654132944E+03  0.96192190594E+03  0.17240101141E+03 0.  0.
         24    2    3    3    0    0  0.81859449928E+02  0.14004265714E+02 -0.35515382258E+03  0.37170146583E+03  0.71628576751E+02 0.  0.
         -6    2    1    2    0  502 -0.14709813149E+03 -0.18408089403E+03 -0.80979626543E+02  0.30244100196E+03  0.17143285543E+03 0.  0.
        -24    2    5    5    0    0 -0.88669830977E+02 -0.81262675340E+02  0.20715986598E+02  0.14639761015E+03  0.80852624134E+02 0.  0.
          5    1    3    3  501    0  0.65238681559E+02  0.17007662832E+03 -0.56138750686E+03  0.59022044012E+03  0.47000000000E+01 0. -1.
        -13    1    4    4    0    0  0.26403264019E+02 -0.28149652805E+02 -0.15649627183E+03  0.16118504397E+03  0.00000000000E+00 0.  1.
         14    1    4    4    0    0  0.55456185909E+02  0.42153918519E+02 -0.19865755074E+03  0.21051642185E+03  0.00000000000E+00 0. -1.
         -5    1    5    5    0  502 -0.58428300510E+02 -0.10281821869E+03 -0.10169561314E+03  0.15604339181E+03  0.47000000000E+01 0.  1.
         11    1    6    6    0    0 -0.80247393756E+02 -0.70558117174E+02 -0.15250593854E+02  0.10793828198E+03  0.00000000000E+00 0. -1.
        -12    1    6    6    0    0 -0.84224372205E+01 -0.10704558166E+02  0.35966580452E+02  0.38459328175E+02  0.00000000000E+00 0.  1.
</event>
<event>
12    1  0.8461994E-002  0.1790952E+03  0.7818608E-02  0.1169283E+00
         21   -1    0    0  501  502  0.00000000000E+00  0.00000000000E+00  0.13425428536E+04  0.13425428536E+04  0.00000000000E+00 0.  1.
         21   -1    0    0  502  503 -0.00000000000E+00 -0.00000000000E+00 -0.70105621879E+02  0.70105621879E+02  0.00000000000E+00 0.  1.
         -6    2    1    2    0  503  0.38028933687E+02 -0.26688241908E+02  0.62201745310E+02  0.18958945821E+03  0.17296428386E+03 0.  0.
        -24    2    3    3    0    0 -0.10074285905E+02  0.39681080548E+02  0.71615256694E+01  0.90744516625E+02  0.80667220465E+02 0.  0.
          6    2    1    2  501    0 -0.38028933687E+02  0.26688241908E+02  0.12102354864E+04  0.12230590173E+04  0.17042583462E+03 0.  0.
         24    2    5    5    0    0 -0.11351857144E+02  0.55944912500E+02  0.39303018487E+03  0.40488164405E+03  0.78725609388E+02 0.  0.
          5    1    5    5  501    0 -0.26677076542E+02 -0.29256670591E+02  0.81720530153E+03  0.81817737321E+03  0.47000000000E+01 0. -1.
        -13    1    6    6    0    0  0.17510041791E+02  0.63615080857E+02  0.30022571335E+03  0.30739056432E+03  0.00000000000E+00 0.  1.
         14    1    6    6    0    0 -0.28861898935E+02 -0.76701683572E+01  0.92804471517E+02  0.97491079727E+02  0.00000000000E+00 0. -1.
         -5    1    3    3    0  503  0.48103219592E+02 -0.66369322457E+02  0.55040219641E+02  0.98844941583E+02  0.47000000000E+01 0.  1.
         13    1    4    4    0    0 -0.11018518004E+02 -0.16851693804E+02  0.24399778816E+02  0.31634420010E+02  0.00000000000E+00 0. -1.
        -14    1    4    4    0    0  0.94423209873E+00  0.56532774352E+02 -0.17238253147E+02  0.59110096615E+02  0.00000000000E+00 0.  1.
</event>
<event>
12    1  0.8461994E-002  0.1848202E+03  0.7818608E-02  0.1163370E+00
         21   -1    0    0  501  502  0.00000000000E+00  0.00000000000E+00  0.16298625946E+03  0.16298625946E+03  0.00000000000E+00 0.  1.
         21   -1    0    0  502  503 -0.00000000000E+00 -0.00000000000E+00 -0.20969902660E+03  0.20969902660E+03  0.00000000000E+00 0.  1.
         -6    2    1    2    0  503  0.55547496976E+02  0.37922261623E+02 -0.35223661244E+02  0.18750834929E+03  0.17144985388E+03 0.  0.
        -24    2    3    3    0    0  0.14027645313E+02  0.39597551604E+02 -0.83570482159E+02  0.12358488121E+03  0.80774107548E+02 0.  0.
          6    2    1    2  501    0 -0.55547496976E+02 -0.37922261623E+02 -0.11489105898E+02  0.18517693676E+03  0.17214783184E+03 0.  0.
         24    2    5    5    0    0 -0.32110483938E+02 -0.71032045530E+02 -0.55520584713E+02  0.12512352306E+03  0.80602270595E+02 0.  0.
          5    1    5    5  501    0 -0.23437013038E+02  0.33109783907E+02  0.44031478815E+02  0.60053413701E+02  0.47000000000E+01 0. -1.
        -11    1    6    6    0    0 -0.32435608463E+02 -0.66546615837E+02 -0.47807128251E+01  0.74184742305E+02  0.00000000000E+00 0.  1.
         12    1    6    6    0    0  0.32512452596E+00 -0.44854296929E+01 -0.50739871888E+02  0.50938780754E+02  0.00000000000E+00 0. -1.
         -5    1    3    3    0  503  0.41519851663E+02 -0.16752899809E+01  0.48346820915E+02  0.63923468079E+02  0.47000000000E+01 0.  1.
         13    1    4    4    0    0  0.51226014924E+01  0.48139094216E+02 -0.10573211926E+02  0.49552055946E+02  0.00000000000E+00 0. -1.
        -14    1    4    4    0    0  0.89050438206E+01 -0.85415426126E+01 -0.72997270233E+02  0.74032825268E+02  0.00000000000E+00 0.  1.
</event>
<event>
12    1  0.8461994E-002  0.1807240E+03  0.7818608E-02  0.1167543E+00
         21   -1    0    0  503  502  0.00000000000E+00  0.00000000000E+00  0.59840697242E+02  0.59840697242E+02  0.00000000000E+00 0.  1.
         21   -1    0    0  501  503 -0.00000000000E+00 -0.00000000000E+00 -0.56365611655E+03  0.56365611655E+03  0.00000000000E+00 0.  1.
          6    2    1    2  501    0 -0.32710232169E+02 -0.37324491135E+02 -0.18971352211E+03  0.26201603518E+03  0.17377602048E+03 0.  0.
         24    2    3    3    0    0 -0.34452854225E+02 -0.91357668295E+02 -0.14176001482E+03  0.18959884228E+03  0.79489599773E+02 0.  0.
         -6    2    1    2    0  502  0.32710232169E+02  0.37324491135E+02 -0.31410189719E+03  0.36148077861E+03  0.17188738917E+03 0.  0.
        -24    2    5    5    0    0  0.28100110151E+02  0.19188443927E+02 -0.57368229448E+02  0.10402314018E+03  0.79824102697E+02 0.  0.
          5    1    3    3  501    0  0.17426220563E+01  0.54033177160E+02 -0.47953507289E+02  0.72417192896E+02  0.47000000000E+01 0. -1.
        -13    1    4    4    0    0 -0.12267357948E+02 -0.99556081423E+02 -0.12653079256E+03  0.16146808628E+03  0.00000000000E+00 0.  1.
         14    1    4    4    0    0 -0.22185496277E+02  0.81984131279E+01 -0.15229222261E+02  0.28130756007E+02  0.00000000000E+00 0. -1.
         -5    1    5    5    0  502  0.46101220176E+01  0.18136047208E+02 -0.25673366774E+03  0.25745763843E+03  0.47000000000E+01 0.  1.
         11    1    6    6    0    0 -0.12792808958E+02 -0.72401941018E+01 -0.53156419720E+02  0.55151439955E+02  0.00000000000E+00 0. -1.
        -12    1    6    6    0    0  0.40892919109E+02  0.26428638029E+02 -0.42118097278E+01  0.48871700221E+02  0.00000000000E+00 0.  1.
</event>
<event>
12    1  0.8461994E-002  0.1906018E+03  0.7818608E-02  0.1158393E+00
         21   -1    0    0  501  502  0.00000000000E+00  0.00000000000E+00  0.32756427494E+03  0.32756427494E+03  0.00000000000E+00 0.  1.
         21   -1    0    0  502  503 -0.00000000000E+00 -0.00000000000E+00 -0.10968975520E+03  0.10968975520E+03  0.00000000000E+00 0. -1.
         -6    2    1    2    0  503  0.49338792292E+02  0.58836279290E+02  0.10949050747E+03  0.21981174118E+03  0.17445058369E+03 0.  0.
        -24    2    3    3    0    0 -0.27622138863E+01  0.83120531296E+02  0.25589216623E+02  0.11799938267E+03  0.79701905585E+02 0.  0.
          6    2    1    2  501    0 -0.49338792292E+02 -0.58836279290E+02  0.10838401228E+03  0.21744228896E+03  0.17215699441E+03 0.  0.
         24    2    5    5    0    0 -0.31904971005E+02 -0.80152790770E+02  0.13590259635E+02  0.11861781159E+03  0.80268879568E+02 0.  0.
          5    1    5    5  501    0 -0.17433821286E+02  0.21316511480E+02  0.94793752647E+02  0.98824477369E+02  0.47000000000E+01 0. -1.
        -11    1    6    6    0    0  0.17005664201E+02 -0.96318586661E+01  0.25333263984E+02  0.31995930684E+02  0.00000000000E+00 0.  1.
         12    1    6    6    0    0 -0.48910635206E+02 -0.70520932104E+02 -0.11743004349E+02  0.86621880909E+02  0.00000000000E+00 0. -1.
         -5    1    3    3    0  503  0.52101006178E+02 -0.24284252006E+02  0.83901290842E+02  0.10181235851E+03  0.47000000000E+01 0.  1.
         11    1    4    4    0    0  0.17831900810E+02  0.27964221093E+02 -0.24068161934E+02  0.40978662334E+02  0.00000000000E+00 0. -1.
        -12    1    4    4    0    0 -0.20594114696E+02  0.55156310203E+02  0.49657378557E+02  0.77020720332E+02  0.00000000000E+00 0.  1.
</event>
<event>
12    1  0.8461994E-002  0.1764924E+03  0.7818608E-02  0.1171293E+00
         21   -1    0    0  503  502  0.00000000000E+00  0.00000000000E+00  0.66584815796E+02  0.66584815796E+02  0.00000000000E+00 0.  1.
         21   -1    0    0  501  503 -0.00000000000E+00 -0.00000000000E+00 -0.59073386182E+03  0.59073386182E+03  0.00000000000E+00 0.  1.
          6    2    1    2  501    0 -0.37204905845E+02 -0.94915000231E+01 -0.41245147568E+03  0.44862655376E+03  0.17226511938E+03 0.  0.
         24    2    3    3    0    0  0.44975525767E+02 -0.58089633153E-02 -0.18674631930E+03  0.20819255182E+03  0.80294164840E+02 0.  0.
         -6    2    1    2    0  502  0.37204905845E+02  0.94915000231E+01 -0.11169757034E+03  0.20869212386E+03  0.17205162524E+03 0.  0.
        -24    2    5    5    0    0 -0.12121586575E+02 -0.30289452084E+02 -0.11659456165E+03  0.14496067535E+03  0.79717763529E+02 0.  0.
          5    1    3    3  501    0 -0.82180431612E+02 -0.94856910598E+01 -0.22570515638E+03  0.24043400194E+03  0.47000000000E+01 0. -1.
        -11    1    4    4    0    0  0.24864339559E+02  0.40025591636E+02 -0.10088454640E+03  0.11134619468E+03  0.00000000000E+00 0.  1.
         12    1    4    4    0    0  0.20111186208E+02 -0.40031400599E+02 -0.85861772902E+02  0.96846357136E+02  0.00000000000E+00 0. -1.
         -5    1    5    5    0  502  0.49326492420E+02  0.39780952107E+02  0.48969913080E+01  0.63731448508E+02  0.47000000000E+01 0.  1.
         11    1    6    6    0    0 -0.45387831172E+02 -0.80022398051E+01 -0.61570753243E+02  0.76909353887E+02  0.00000000000E+00 0. -1.
        -12    1    6    6    0    0  0.33266244598E+02 -0.22287212279E+02 -0.55023808410E+02  0.68051321462E+02  0.00000000000E+00 0.  1.
</event>
<event>
12    1  0.8461994E-002  0.2327507E+03  0.7818608E-02  0.1124761E+00
         21   -1    0    0  503  502  0.00000000000E+00  0.00000000000E+00  0.22475304842E+04  0.22475304842E+04  0.00000000000E+00 0.  1.
         21   -1    0    0  501  503 -0.00000000000E+00 -0.00000000000E+00 -0.31457151587E+02  0.31457151587E+02  0.00000000000E+00 0.  1.
          6    2    1    2  501    0  0.11487795858E+03 -0.10649079873E+03  0.55658866826E+03  0.60329416708E+03  0.17215014033E+03 0.  0.
         24    2    3    3    0    0  0.78804258195E+02 -0.47926404961E+02  0.16787719613E+03  0.20851600324E+03  0.82396111716E+02 0.  0.
         -6    2    1    2    0  502 -0.11487795858E+03  0.10649079873E+03  0.16594846643E+04  0.16756934687E+04  0.17181971441E+03 0.  0.
        -24    2    5    5    0    0 -0.14662854950E+03  0.75274216471E+02  0.14437405358E+04  0.14553523830E+04  0.80608218437E+02 0.  0.
          5    1    3    3  501    0  0.36073700383E+02 -0.58564393772E+02  0.38871147213E+03  0.39477816384E+03  0.47000000000E+01 0. -1.
        -13    1    4    4    0    0 -0.60740214361E+00 -0.25005750021E+02  0.95275831357E+02  0.98504520263E+02  0.00000000000E+00 0.  1.
         14    1    4    4    0    0  0.79411660338E+02 -0.22920654939E+02  0.72601364772E+02  0.11001148298E+03  0.00000000000E+00 0. -1.
         -5    1    5    5    0  502  0.31750590927E+02  0.31216582262E+02  0.21574412854E+03  0.22034108566E+03  0.47000000000E+01 0.  1.
         13    1    6    6    0    0 -0.40980061996E+02 -0.64534824925E+01  0.56469661716E+03  0.56621840516E+03  0.00000000000E+00 0. -1.
        -14    1    6    6    0    0 -0.10564848751E+03  0.81727698963E+02  0.87904391865E+03  0.88913397787E+03  0.00000000000E+00 0.  1.
</event>
<event>
12    1  0.8461994E-002  0.2091005E+03  0.7818608E-02  0.1142638E+00
         21   -1    0    0  501  502  0.00000000000E+00  0.00000000000E+00  0.25820297390E+03  0.25820297390E+03  0.00000000000E+00 0.  1.
         21   -1    0    0  502  503 -0.00000000000E+00 -0.00000000000E+00 -0.21471356736E+03  0.21471356736E+03  0.00000000000E+00 0.  1.
         -6    2    1    2    0  503  0.92755279035E+02 -0.66073303606E+02  0.13209087483E+03  0.24581916221E+03  0.17323347846E+03 0.  0.
        -24    2    3    3    0    0  0.71114838868E+02 -0.10410207378E+03  0.60270944032E+02  0.16158918850E+03  0.81141340100E+02 0.  0.
          6    2    1    2  501    0 -0.92755279035E+02  0.66073303606E+02 -0.88601468297E+02  0.22709737905E+03  0.17536754588E+03 0.  0.
         24    2    5    5    0    0 -0.13246742795E+03  0.37462628148E+02 -0.76731415697E+02  0.17651463821E+03  0.79489869631E+02 0.  0.
          5    1    5    5  501    0  0.39712148913E+02  0.28610675457E+02 -0.11870052600E+02  0.50582740833E+02  0.47000000000E+01 0. -1.
        -11    1    6    6    0    0 -0.10244482337E+03  0.61618325461E+02 -0.65800218109E+02  0.13646035531E+03  0.00000000000E+00 0.  1.
         12    1    6    6    0    0 -0.30022604581E+02 -0.24155697313E+02 -0.10931197588E+02  0.40054282907E+02  0.00000000000E+00 0. -1.
         -5    1    3    3    0  503  0.21640440166E+02  0.38028770172E+02  0.71819930800E+02  0.84229973712E+02  0.47000000000E+01 0.  1.
         11    1    4    4    0    0  0.15746887004E+02  0.10458536079E+02  0.21381799970E+02  0.28539915858E+02  0.00000000000E+00 0. -1.
        -12    1    4    4    0    0  0.55367951865E+02 -0.11456060986E+03  0.38889144061E+02  0.13304927264E+03  0.00000000000E+00 0.  1.
</event>
<event>
12    1  0.8461994E-002  0.1944166E+03  0.7818608E-02  0.1155850E+00
         21   -1    0    0  501  502  0.00000000000E+00  0.00000000000E+00  0.94324701827E+03  0.94324701827E+03  0.00000000000E+00 0.  1.
         21   -1    0    0  502  503 -0.00000000000E+00 -0.00000000000E+00 -0.68430210685E+02  0.68430210685E+02  0.00000000000E+00 0.  1.
         -6    2    1    2    0  503 -0.40812059445E+02  0.82640080639E+02  0.10876886447E+03  0.22277454496E+03  0.17118067905E+03 0.  0.
        -24    2    3    3    0    0  0.16509519404E+02  0.76527996733E+01  0.63280145087E+02  0.11789285304E+03  0.97791709580E+02 0.  0.
          6    2    1    2  501    0  0.40812059445E+02 -0.82640080639E+02  0.76604794312E+03  0.78890268399E+03  0.16444751909E+03 0.  0.
         24    2    5    5    0    0  0.13134239473E+02 -0.11923197646E+03  0.63956509188E+03  0.65427345160E+03  0.68128336663E+02 0.  0.
          5    1    5    5  501    0  0.27677819972E+02  0.36591895823E+02  0.12648285124E+03  0.13462923240E+03  0.47000000000E+01 0. -1.
        -11    1    6    6    0    0  0.30161233846E+02 -0.60831981742E+02  0.21763548631E+03  0.22798121618E+03  0.00000000000E+00 0.  1.
         12    1    6    6    0    0 -0.17026994372E+02 -0.58399994720E+02  0.42192960556E+03  0.42629223541E+03  0.00000000000E+00 0. -1.
         -5    1    3    3    0  503 -0.57321578849E+02  0.74987280966E+02  0.45488719378E+02  0.10488169192E+03  0.47000000000E+01 0.  1.
         11    1    4    4    0    0 -0.11985629104E+00 -0.12520250088E+02  0.83755056035E+02  0.84685774716E+02  0.00000000000E+00 0. -1.
        -12    1    4    4    0    0  0.16629375695E+02  0.20173049762E+02 -0.20474910948E+02  0.33207078327E+02  0.00000000000E+00 0.  1.
</event>
<event>
12    1  0.8461994E-002  0.2074583E+03  0.7818608E-02  0.1143619E+00
         21   -1    0    0  501  502  0.00000000000E+00  0.00000000000E+00  0.16967564064E+04  0.16967564064E+04  0.00000000000E+00 0.  1.
         21   -1    0    0  502  503 -0.00000000000E+00 -0.00000000000E+00 -0.25377745935E+02  0.25377745935E+02  0.00000000000E+00 0. -1.
         -6    2    1    2    0  503  0.39084312814E+02  0.10899495498E+03  0.80741513289E+03  0.83361182128E+03  0.17199415117E+03 0.  0.
        -24    2    3    3    0    0 -0.31728684715E+02  0.15940761403E+02  0.34233800456E+03  0.35403660418E+03  0.82980662952E+02 0.  0.
          6    2    1    2  501    0 -0.39084312814E+02 -0.10899495498E+03  0.86396352757E+03  0.88852233105E+03  0.17213794494E+03 0.  0.
         24    2    5    5    0    0 -0.47861257987E+02 -0.13689645109E+03  0.81305492771E+03  0.82962153487E+03  0.78627204570E+02 0.  0.
          5    1    5    5  501    0  0.87769451731E+01  0.27901496114E+02  0.50908599861E+02  0.58900796189E+02  0.47000000000E+01 0. -1.
        -11    1    6    6    0    0  0.19990576336E+02 -0.16655344879E+02  0.10046132706E+03  0.10377621062E+03  0.00000000000E+00 0.  1.
         12    1    6    6    0    0 -0.67851834322E+02 -0.12024110621E+03  0.71259360065E+03  0.72584532425E+03  0.00000000000E+00 0. -1.
         -5    1    3    3    0  503  0.70812997529E+02  0.93054193572E+02  0.46507712833E+03  0.47957521710E+03  0.47000000000E+01 0.  1.
         13    1    4    4    0    0  0.51180307850E+01  0.42848972393E+02  0.13465448548E+03  0.14140035055E+03  0.00000000000E+00 0. -1.
        -14    1    4    4    0    0 -0.36846715500E+02 -0.26908210990E+02  0.20768351908E+03  0.21263625363E+03  0.00000000000E+00 0.  1.
</event>
<event>
12    1  0.8461994E-002  0.1899102E+03  0.7818608E-02  0.1158953E+00
         21   -1    0    0  503  502  0.00000000000E+00  0.00000000000E+00  0.48502618011E+03  0.48502618011E+03  0.00000000000E+00 0. -1.
         21   -1    0    0  501  503 -0.00000000000E+00 -0.00000000000E+00 -0.70645239897E+03  0.70645239897E+03  0.00000000000E+00 0.  1.
          6    2    1    2  501    0  0.78400621924E+02 -0.24304152843E+02 -0.67459812164E+03  0.70081987751E+03  0.17125573164E+03 0.  0.
         24    2    3    3    0    0  0.10522123734E+03 -0.52664573533E+02 -0.59863931494E+03  0.61528924446E+03  0.79791972448E+02 0.  0.
         -6    2    1    2    0  502 -0.78400621924E+02  0.24304152843E+02  0.45317190278E+03  0.49065870157E+03  0.16924490714E+03 0.  0.
        -24    2    5    5    0    0 -0.17192161900E+02  0.46256842822E+02  0.14424240386E+03  0.17492476060E+03  0.85776073944E+02 0.  0.
          5    1    3    3  501    0 -0.26820615416E+02  0.28360420690E+02 -0.75958806707E+02  0.85530633046E+02  0.47000000000E+01 0. -1.
        -13    1    4    4    0    0  0.10928826905E+03 -0.22761172251E+02 -0.45254395850E+03  0.46610946256E+03  0.00000000000E+00 0.  1.
         14    1    4    4    0    0 -0.40670317064E+01 -0.29903401283E+02 -0.14609535644E+03  0.14917978190E+03  0.00000000000E+00 0. -1.
         -5    1    5    5    0  502 -0.61208460024E+02 -0.21952689979E+02  0.30892949892E+03  0.31573394097E+03  0.47000000000E+01 0.  1.
         13    1    6    6    0    0  0.81369853178E+01  0.28803546397E+02  0.14083054293E+03  0.14397602800E+03  0.00000000000E+00 0. -1.
        -14    1    6    6    0    0 -0.25329147217E+02  0.17453296425E+02  0.34118609286E+01  0.30948732605E+02  0.00000000000E+00 0.  1.
</event>
<event>
12    1  0.8461994E-002  0.1788924E+03  0.7818608E-02  0.1169241E+00
         21   -1    0    0  501  502  0.00000000000E+00  0.00000000000E+00  0.25378499691E+03  0.25378499691E+03  0.00000000000E+00 0. -1.
         21   -1    0    0  502  503 -0.00000000000E+00 -0.00000000000E+00 -0.16660256803E+03  0.16660256803E+03  0.00000000000E+00 0. -1.
         -6    2    1    2    0  503  0.48797218914E+02 -0.81745832118E+00  0.14868527951E+03  0.23261512910E+03  0.17210650520E+03 0.  0.
        -24    2    3    3    0    0 -0.43213584528E+01  0.24169982676E+02  0.98012353377E+00  0.73602995690E+02  0.69379954821E+02 0.  0.
          6    2    1    2  501    0 -0.48797218914E+02  0.81745832118E+00 -0.61502850636E+02  0.18777243584E+03  0.17056978107E+03 0.  0.
         24    2    5    5    0    0  0.78525374843E+01  0.50390389304E+02 -0.13404465172E+02  0.98317334978E+02  0.82980509708E+02 0.  0.
          5    1    5    5  501    0 -0.56649756398E+02 -0.49572930982E+02 -0.48098385464E+02  0.89455100863E+02  0.47000000000E+01 0. -1.
        -13    1    6    6    0    0  0.37784397356E+02  0.70266412440E+01  0.11389608836E+02  0.40084380501E+02  0.00000000000E+00 0.  1.
         14    1    6    6    0    0 -0.29931859872E+02  0.43363748060E+02 -0.24794074008E+02  0.58232954476E+02  0.00000000000E+00 0. -1.
         -5    1    3    3    0  503  0.53118577367E+02 -0.24987440997E+02  0.14770515598E+03  0.15901213341E+03  0.47000000000E+01 0.  1.
         13    1    4    4    0    0 -0.16398281775E+02  0.10503178257E+02  0.32092699203E+02  0.37538803135E+02  0.00000000000E+00 0. -1.
        -14    1    4    4    0    0  0.12076923322E+02  0.13666804419E+02 -0.31112575669E+02  0.36064192556E+02  0.00000000000E+00 0.  1.
</event>
<event>
12    1  0.8461994E-002  0.1991808E+03  0.7818608E-02  0.1151486E+00
         21   -1    0    0  501  502  0.00000000000E+00  0.00000000000E+00  0.15650850448E+04  0.15650850448E+04  0.00000000000E+00 0. -1.
         21   -1    0    0  502  503 -0.00000000000E+00 -0.00000000000E+00 -0.43336081985E+02  0.43336081985E+02  0.00000000000E+00 0. -1.
         -6    2    1    2    0  503  0.92978911207E+02  0.82078614547E+01  0.23933554201E+03  0.31137515971E+03  0.17595607831E+03 0.  0.
        -24    2    3    3    0    0  0.63676115483E+02 -0.50575268630E+02  0.77836610757E+02  0.13696729000E+03  0.78032013141E+02 0.  0.
          6    2    1    2  501    0 -0.92978911207E+02 -0.82078614547E+01  0.12824134208E+04  0.12970459670E+04  0.17038665423E+03 0.  0.
         24    2    5    5    0    0 -0.63607463120E+02 -0.38859163769E+02  0.11898498617E+04  0.11951034010E+04  0.83507495577E+02 0.  0.
          5    1    5    5  501    0 -0.29371448087E+02  0.30651302314E+02  0.92563559088E+02  0.10194256602E+03  0.47000000000E+01 0. -1.
        -13    1    6    6    0    0  0.13864667161E+02 -0.16457349453E+02  0.51541152417E+03  0.51586055537E+03  0.00000000000E+00 0.  1.
         14    1    6    6    0    0 -0.77472130281E+02 -0.22401814315E+02  0.67443833751E+03  0.67924284565E+03  0.00000000000E+00 0. -1.
         -5    1    3    3    0  503  0.29302795725E+02  0.58783130085E+02  0.16149893125E+03  0.17440786971E+03  0.47000000000E+01 0.  1.
         13    1    4    4    0    0  0.48276098353E+02 -0.54927463801E+02  0.90648164228E+02  0.11646758188E+03  0.00000000000E+00 0. -1.
        -14    1    4    4    0    0  0.15400017129E+02  0.43521951705E+01 -0.12811553471E+02  0.20499708113E+02  0.00000000000E+00 0.  1.
</event>
<event>
12    1  0.8461994E-002  0.2149527E+03  0.7818608E-02  0.1141241E+00
         21   -1    0    0  503  502  0.00000000000E+00  0.00000000000E+00  0.40664840334E+03  0.40664840334E+03  0.00000000000E+00 0. -1.
         21   -1    0    0  501  503 -0.00000000000E+00 -0.00000000000E+00 -0.10451188752E+03  0.10451188752E+03  0.00000000000E+00 0. -1.
          6    2    1    2  501    0  0.95380073571E+02  0.23076669646E+02  0.15700953990E+03  0.26618915078E+03  0.19124533264E+03 0.  0.
         24    2    3    3    0    0  0.73555134452E+01  0.18865608674E+02 -0.39123573794E+01  0.82657128385E+02  0.80042985725E+02 0.  0.
         -6    2    1    2    0  502 -0.95380073571E+02 -0.23076669646E+02  0.14512697593E+03  0.24497114009E+03  0.17122829561E+03 0.  0.
        -24    2    5    5    0    0 -0.60898322730E+02  0.32980203383E+02  0.26713122721E+02  0.10941563564E+03  0.80385887259E+02 0.  0.
          5    1    3    3  501    0  0.88024560126E+02  0.42110609716E+01  0.16092189728E+03  0.18353202239E+03  0.47000000000E+01 0. -1.
        -13    1    4    4    0    0 -0.16584644069E+02 -0.19146510331E+02 -0.22652741212E+02  0.33982141798E+02  0.00000000000E+00 0.  1.
         14    1    4    4    0    0  0.23940157514E+02  0.38012119005E+02  0.18740383833E+02  0.48674986587E+02  0.00000000000E+00 0. -1.
         -5    1    5    5    0  502 -0.34481750841E+02 -0.56056873029E+02  0.11841385321E+03  0.13555550445E+03  0.47000000000E+01 0.  1.
         13    1    6    6    0    0 -0.34639838482E+02 -0.12869133579E+02 -0.17155873411E+02  0.40741342659E+02  0.00000000000E+00 0. -1.
        -14    1    6    6    0    0 -0.26258484248E+02  0.45849336962E+02  0.43868996132E+02  0.68674292981E+02  0.00000000000E+00 0.  1.
</event>
<event>
12    1  0.8461994E-002  0.2472724E+03  0.7818608E-02  0.1115312E+00
         21   -1    0    0  501  502  0.00000000000E+00  0.00000000000E+00  0.76484920599E+03  0.76484920599E+03  0.00000000000E+00 0. -1.
         21   -1    0    0  502  503 -0.00000000000E+00 -0.00000000000E+00 -0.86178776832E+02  0.86178776832E+02  0.00000000000E+00 0.  1.
         -6    2    1    2    0  503 -0.14345993910E+03 -0.10020559646E+03  0.22105014811E+03  0.33167272573E+03  0.17470464597E+03 0.  0.
        -24    2    3    3    0    0 -0.36729543763E+02 -0.46305343172E+02  0.27666254664E+02  0.10426112788E+03  0.81312464899E+02 0.  0.
          6    2    1    2  501    0  0.14345993910E+03  0.10020559646E+03  0.45762028105E+03  0.51935525710E+03  0.17231263956E+03 0.  0.
         24    2    5    5    0    0 -0.49891261459E+00  0.53261801360E+02  0.11429744522E+03  0.14409464034E+03  0.69730129731E+02 0.  0.
          5    1    5    5  501    0  0.14395885172E+03  0.46943795101E+02  0.34332283583E+03  0.37526061676E+03  0.47000000000E+01 0. -1.
        -11    1    6    6    0    0  0.74759729423E+01  0.49818685977E+02  0.28541711169E+02  0.57900094304E+02  0.00000000000E+00 0.  1.
         12    1    6    6    0    0 -0.79748855569E+01  0.34431153825E+01  0.85755734055E+02  0.86194546037E+02  0.00000000000E+00 0. -1.
         -5    1    3    3    0  503 -0.10673039534E+03 -0.53900253289E+02  0.19338389344E+03  0.22741159785E+03  0.47000000000E+01 0.  1.
         11    1    4    4    0    0 -0.12580051413E+02 -0.49466517522E+02  0.49829106522E+02  0.71331156629E+02  0.00000000000E+00 0. -1.
        -12    1    4    4    0    0 -0.24149492350E+02  0.31611743497E+01 -0.22162851857E+02  0.32929971249E+02  0.00000000000E+00 0.  1.
</event>
<event>
12    1  0.8461994E-002  0.2266441E+03  0.7818608E-02  0.1130168E+00
         21   -1    0    0  503  502  0.00000000000E+00  0.00000000000E+00  0.23661321968E+03  0.23661321968E+03  0.00000000000E+00 0. -1.
         21   -1    0    0  501  503 -0.00000000000E+00 -0.00000000000E+00 -0.63397185350E+03  0.63397185350E+03  0.00000000000E+00 0. -1.
          6    2    1    2  501    0  0.14805297711E+03 -0.84260846797E+01 -0.55509813762E+03  0.59958442291E+03  0.17139677614E+03 0.  0.
         24    2    3    3    0    0  0.15266189284E+03  0.36214025345E+02 -0.48708786427E+03  0.51796660128E+03  0.80110569585E+02 0.  0.
         -6    2    1    2    0  502 -0.14805297711E+03  0.84260846797E+01  0.15773950380E+03  0.27100065027E+03  0.16299974986E+03 0.  0.
        -24    2    5    5    0    0 -0.69714190624E+02 -0.51215015889E+02  0.56303180141E+02  0.12956004754E+03  0.78311631301E+02 0.  0.
          5    1    3    3  501    0 -0.46089157305E+01 -0.44640110025E+02 -0.68010273345E+02  0.81617821630E+02  0.47000000000E+01 0. -1.
        -13    1    4    4    0    0 -0.31961837017E+01  0.10406228706E+02 -0.89221725667E+02  0.89883377313E+02  0.00000000000E+00 0.  1.
         14    1    4    4    0    0  0.15585807654E+03  0.25807796639E+02 -0.39786613861E+03  0.42808322396E+03  0.00000000000E+00 0. -1.
         -5    1    5    5    0  502 -0.78338786482E+02  0.59641100569E+02  0.10143632366E+03  0.14144060273E+03  0.47000000000E+01 0.  1.
         13    1    6    6    0    0 -0.14232129571E+02  0.20548311233E+02  0.19358414992E+02  0.31615420884E+02  0.00000000000E+00 0. -1.
        -14    1    6    6    0    0 -0.55482061053E+02 -0.71763327123E+02  0.36944765150E+02  0.97944626654E+02  0.00000000000E+00 0.  1.
</event>
<event>
12    1  0.8461994E-002  0.2613394E+03  0.7818608E-02  0.1106841E+00
         21   -1    0    0  503  502  0.00000000000E+00  0.00000000000E+00  0.50923596312E+02  0.50923596312E+02  0.00000000000E+00 0. -1.
         21   -1    0    0  501  503 -0.00000000000E+00 -0.00000000000E+00 -0.16405389464E+04  0.16405389464E+04  0.00000000000E+00 0.  1.
          6    2    1    2  501    0 -0.40450063606E+02  0.19210512278E+03 -0.11620844724E+04  0.11903827502E+04  0.16742217654E+03 0.  0.
         24    2    3    3    0    0 -0.53116333266E+01  0.58340297269E+02 -0.72938408365E+03  0.73609269503E+03  0.79996940310E+02 0.  0.
         -6    2    1    2    0  502  0.40450063606E+02 -0.19210512278E+03 -0.42753087769E+03  0.50107979249E+03  0.17250426435E+03 0.  0.
        -24    2    5    5    0    0  0.44061186516E+02 -0.13183479310E+02 -0.17520615386E+03  0.19170000814E+03  0.62741569037E+02 0.  0.
          5    1    3    3  501    0 -0.35138430279E+02  0.13376482551E+03 -0.43270038872E+03  0.45429005516E+03  0.47000000000E+01 0. -1.
        -13    1    4    4    0    0  0.13513498805E+02  0.47607090441E+02 -0.19210764584E+03  0.19837942762E+03  0.00000000000E+00 0.  1.
         14    1    4    4    0    0 -0.18825132131E+02  0.10733206829E+02 -0.53727643781E+03  0.53771326742E+03  0.00000000000E+00 0. -1.
         -5    1    5    5    0  502 -0.36111229104E+01 -0.17892164347E+03 -0.25232472383E+03  0.30937978435E+03  0.47000000000E+01 0.  1.
         11    1    6    6    0    0  0.14058426540E+02 -0.18490328749E+02 -0.12921636478E+02  0.26580073425E+02  0.00000000000E+00 0. -1.
        -12    1    6    6    0    0  0.30002759977E+02  0.53068494387E+01 -0.16228451739E+03  0.16511993472E+03  0.00000000000E+00 0.  1.
</event>
<event>
12    1  0.8461994E-002  0.2007356E+03  0.7818608E-02  0.1149756E+00
         21   -1    0    0  501  502  0.00000000000E+00  0.00000000000E+00  0.36695780457E+03  0.36695780457E+03  0.00000000000E+00 0.  1.
         21   -1    0    0  502  503 -0.00000000000E+00 -0.00000000000E+00 -0.12665380571E+03  0.12665380571E+03  0.00000000000E+00 0.  1.
         -6    2    1    2    0  503 -0.60759908826E+02 -0.75655492424E+02  0.26640713153E+02  0.20249566406E+03  0.17572491660E+03 0.  0.
        -24    2    3    3    0    0 -0.54180612777E+02  0.19428302114E+02  0.40439816798E+02  0.10607616198E+03  0.79396320029E+02 0.  0.
          6    2    1    2  501    0  0.60759908826E+02  0.75655492424E+02  0.21366328570E+03  0.29111594622E+03  0.17228167178E+03 0.  0.
         24    2    5    5    0    0  0.16390378830E+02 -0.87698083010E-01  0.28249505276E+02  0.85918368086E+02  0.79468731065E+02 0.  0.
          5    1    5    5  501    0  0.44369529996E+02  0.75743190507E+02  0.18541378043E+03  0.20519757813E+03  0.47000000000E+01 0. -1.
        -11    1    6    6    0    0 -0.69225211629E+01 -0.16325785978E+02  0.48096872096E+02  0.51261698103E+02  0.00000000000E+00 0.  1.
         12    1    6    6    0    0  0.23312899993E+02  0.16238087895E+02 -0.19847366820E+02  0.34656669982E+02  0.00000000000E+00 0. -1.
         -5    1    3    3    0  503 -0.65792960490E+01 -0.95083794539E+02 -0.13799103645E+02  0.96419502082E+02  0.47000000000E+01 0.  1.
         11    1    4    4    0    0 -0.31676349687E+02  0.43095401366E+02  0.48759494336E+02  0.72374671234E+02  0.00000000000E+00 0. -1.
        -12    1    4    4    0    0 -0.22504263090E+02 -0.23667099252E+02 -0.83196775387E+01  0.33701490747E+02  0.00000000000E+00 0.  1.
</event>
<event>
12    1  0.8461994E-002  0.2798546E+03  0.7818608E-02  0.1095797E+00
         21   -1    0    0  501  502  0.00000000000E+00  0.00000000000E+00  0.20020748738E+04  0.20020748738E+04  0.00000000000E+00 0. -1.
         21   -1    0    0  502  503 -0.00000000000E+00 -0.00000000000E+00 -0.40213871905E+02  0.40213871905E+02  0.00000000000E+00 0. -1.
         -6    2    1    2    0  503 -0.13834509567E+03  0.17193150290E+03  0.80980923782E+03  0.85673323659E+03  0.17175863834E+03 0.  0.
        -24    2    3    3    0    0 -0.17078679838E+02  0.10922673879E+03  0.31437579095E+03  0.34281318316E+03  0.80415041114E+02 0.  0.
          6    2    1    2  501    0  0.13834509567E+03 -0.17193150290E+03  0.11520517641E+04  0.11855555091E+04  0.17210110659E+03 0.  0.
         24    2    5    5    0    0  0.11692229196E+03 -0.13224412560E+03  0.10985443492E+04  0.11154188006E+04  0.78740602261E+02 0.  0.
          5    1    5    5  501    0  0.21422803710E+02 -0.39687377292E+02  0.53507414882E+02  0.70136708524E+02  0.47000000000E+01 0. -1.
        -11    1    6    6    0    0  0.68395934109E+02 -0.31295055358E+02  0.31193834832E+03  0.32087835304E+03  0.00000000000E+00 0.  1.
         12    1    6    6    0    0  0.48526357856E+02 -0.10094907025E+03  0.78660600088E+03  0.79454044756E+03  0.00000000000E+00 0. -1.
         -5    1    3    3    0  503 -0.12126641584E+03  0.62704764107E+02  0.49543344686E+03  0.51392005343E+03  0.47000000000E+01 0.  1.
         11    1    4    4    0    0 -0.31738537892E+01  0.95448322323E+02  0.15372847856E+03  0.18097762487E+03  0.00000000000E+00 0. -1.
        -12    1    4    4    0    0 -0.13904826048E+02  0.13778416465E+02  0.16064731239E+03  0.16183555829E+03  0.00000000000E+00 0.  1.
</event>
<event>
12    1  0.8461994E-002  0.1834928E+03  0.7818608E-02  0.1164625E+00
         21   -1    0    0  503  502  0.00000000000E+00  0.00000000000E+00  0.14199071019E+03  0.14199071019E+03  0.00000000000E+00 0. -1.
         21   -1    0    0  501  503 -0.00000000000E+00 -0.00000000000E+00 -0.31830978812E+03  0.31830978812E+03  0.00000000000E+00 0. -1.
          6    2    1    2  501    0 -0.61075658712E+02  0.68392058138E+01 -0.20489384454E+03  0.27459610074E+03  0.17217584089E+03 0.  0.
         24    2    3    3    0    0 -0.35660819181E+02 -0.51492048298E+02 -0.18293077247E+03  0.20712080296E+03  0.74244423637E+02 0.  0.
         -6    2    1    2    0  502  0.61075658712E+02 -0.68392058138E+01  0.28574766607E+02  0.18570439758E+03  0.17289475171E+03 0.  0.
        -24    2    5    5    0    0  0.83822694793E+00 -0.62316642833E+02  0.19766736088E+02  0.10320612120E+03  0.79854323606E+02 0.  0.
          5    1    3    3  501    0 -0.25414839531E+02  0.58331254111E+02 -0.21963072071E+02  0.67475297772E+02  0.47000000000E+01 0. -1.
        -13    1    4    4    0    0  0.62355638895E+01 -0.49764549837E+02 -0.65965746550E+02  0.82866593965E+02  0.00000000000E+00 0.  1.
         14    1    4    4    0    0 -0.41896383070E+02 -0.17274984611E+01 -0.11696502592E+03  0.12425420900E+03  0.00000000000E+00 0. -1.
         -5    1    5    5    0  502  0.60237431764E+02  0.55477437019E+02  0.88080305190E+01  0.82498276378E+02  0.47000000000E+01 0.  1.
         13    1    6    6    0    0  0.80916354694E+01 -0.19543458101E+02  0.47305988533E+02  0.51819666828E+02  0.00000000000E+00 0. -1.
        -14    1    6    6    0    0 -0.72534085215E+01 -0.42773184732E+02 -0.27539252445E+02  0.51386454369E+02  0.00000000000E+00 0.  1.
</event>
<event>
12    1  0.8461994E-002  0.2199205E+03  0.7818608E-02  0.1134112E+00
         21   -1    0    0  503  502  0.00000000000E+00  0.00000000000E+00  0.38838465846E+03  0.38838465846E+03  0.00000000000E+00 0. -1.
         21   -1    0    0  501  503 -0.00000000000E+00 -0.00000000000E+00 -0.15067675390E+03  0.15067675390E+03  0.00000000000E+00 0.  1.
          6    2    1    2  501    0 -0.12683914998E+03 -0.52255738207E+02  0.23243427245E+03  0.31998547209E+03  0.17189002064E+03 0.  0.
         24    2    3    3    0    0 -0.54615438249E+02 -0.47283259067E+02  0.40138235646E+02  0.11445969303E+03  0.79192112521E+02 0.  0.
         -6    2    1    2    0  502  0.12683914998E+03  0.52255738207E+02  0.52736321034E+01  0.21907594027E+03  0.17072675322E+03 0.  0.
        -24    2    5    5    0    0  0.22017850250E+02  0.54227012657E+02  0.42226208221E+02  0.10781510402E+03  0.80097998501E+02 0.  0.
          5    1    3    3  501    0 -0.72223711730E+02 -0.49724791397E+01  0.19229603681E+03  0.20552577906E+03  0.47000000000E+01 0. -1.
        -13    1    4    4    0    0 -0.69260033752E+02 -0.25638392824E+02  0.46873283351E+02  0.87472190747E+02  0.00000000000E+00 0.  1.
         14    1    4    4    0    0  0.14644595503E+02 -0.21644866243E+02 -0.67350477051E+01  0.26987502287E+02  0.00000000000E+00 0. -1.
         -5    1    5    5    0  502  0.10482129973E+03 -0.19712744501E+01 -0.36952576117E+02  0.11126083624E+03  0.47000000000E+01 0.  1.
         11    1    6    6    0    0  0.43870820101E+02  0.27775103693E+02  0.50595086942E+02  0.72498055589E+02  0.00000000000E+00 0. -1.
        -12    1    6    6    0    0 -0.21852969851E+02  0.26451908964E+02 -0.83688787212E+01  0.35317048436E+02  0.00000000000E+00 0.  1.
</event>
<event>
12    1  0.8461994E-002  0.2438735E+03  0.7818608E-02  0.1117993E+00
         21   -1    0    0  501  502  0.00000000000E+00  0.00000000000E+00  0.46966036088E+03  0.46966036088E+03  0.00000000000E+00 0.  1.
         21   -1    0    0  502  503 -0.00000000000E+00 -0.00000000000E+00 -0.14164137194E+03  0.14164137194E+03  0.00000000000E+00 0. -1.
         -6    2    1    2    0  503  0.29250188136E+02  0.16416705549E+03  0.55604325425E+02  0.24567347290E+03  0.17163105391E+03 0.  0.
        -24    2    3    3    0    0  0.14238877935E+02  0.18066537384E+02 -0.11488752487E+02  0.84136257593E+02  0.80111004176E+02 0.  0.
          6    2    1    2  501    0 -0.29250188136E+02 -0.16416705549E+03  0.27241466351E+03  0.36562825993E+03  0.17795471320E+03 0.  0.
         24    2    5    5    0    0  0.44882801377E+01 -0.16312292179E+03  0.14174725967E+03  0.23058961774E+03  0.80312227683E+02 0.  0.
          5    1    5    5  501    0 -0.33738468273E+02 -0.10441336953E+01  0.13066740384E+03  0.13503864218E+03  0.47000000000E+01 0. -1.
        -13    1    6    6    0    0 -0.61353867921E+01 -0.55962669721E+02  0.10065617798E+03  0.11533052302E+03  0.00000000000E+00 0.  1.
         14    1    6    6    0    0  0.10623666930E+02 -0.10716025207E+03  0.41091081684E+02  0.11525909473E+03  0.00000000000E+00 0. -1.
         -5    1    3    3    0  503  0.15011310200E+02  0.14610051810E+03  0.67093077912E+02  0.16153721530E+03  0.47000000000E+01 0.  1.
         13    1    4    4    0    0  0.17077548568E+02  0.44533083019E+02  0.11390408698E+02  0.49036512504E+02  0.00000000000E+00 0. -1.
        -14    1    4    4    0    0 -0.28386706325E+01 -0.26466545634E+02 -0.22879161185E+02  0.35099745089E+02  0.00000000000E+00 0.  1.
</event>
<event>
12    1  0.8461994E-002  0.1944998E+03  0.7818608E-02  0.1155301E+00
         21   -1    0    0  503  502  0.00000000000E+00  0.00000000000E+00  0.66136529606E+02  0.66136529606E+02  0.00000000000E+00 0. -1.
         21   -1    0    0  501  503 -0.00000000000E+00 -0.00000000000E+00 -0.67991693523E+03  0.67991693523E+03  0.00000000000E+00 0.  1.
          6    2    1    2  501    0  0.45184966334E+02  0.79780643909E+02 -0.46542176596E+03  0.50442797806E+03  0.17153289044E+03 0.  0.
         24    2    3    3    0    0  0.13599562472E+02  0.94091304564E+02 -0.44882295707E+03  0.46569758687E+03  0.79962953498E+02 0.  0.
         -6    2    1    2    0  502 -0.45184966334E+02 -0.79780643909E+02 -0.14835863966E+03  0.24162548677E+03  0.16723025315E+03 0.  0.
        -24    2    5    5    0    0 -0.43726205346E+01 -0.67259162203E+02 -0.24841131283E+02  0.11085431277E+03  0.84431523406E+02 0.  0.
          5    1    3    3  501    0  0.31585403862E+02 -0.14310660655E+02 -0.16598808891E+02  0.38730391195E+02  0.47000000000E+01 0. -1.
        -13    1    4    4    0    0  0.35665319786E+02  0.95493808800E+02 -0.37799332965E+03  0.39149717727E+03  0.00000000000E+00 0.  1.
         14    1    4    4    0    0 -0.22065757314E+02 -0.14025042363E+01 -0.70829627421E+02  0.74200409598E+02  0.00000000000E+00 0. -1.
         -5    1    5    5    0  502 -0.40812345799E+02 -0.12521481706E+02 -0.12351750838E+03  0.13077117400E+03  0.47000000000E+01 0.  1.
         13    1    6    6    0    0 -0.44405398007E+02 -0.34085388341E+02 -0.14793333205E+02  0.57900740736E+02  0.00000000000E+00 0. -1.
        -14    1    6    6    0    0  0.40032777472E+02 -0.33173773862E+02 -0.10047798079E+02  0.52953572029E+02  0.00000000000E+00 0.  1.
</event>
<event>
12    1  0.8461994E-002  0.1892908E+03  0.7818608E-02  0.1159220E+00
         21   -1    0    0  501  502  0.00000000000E+00  0.00000000000E+00  0.42834937358E+03  0.42834937358E+03  0.00000000000E+00 0. -1.
         21   -1    0    0  502  503 -0.00000000000E+00 -0.00000000000E+00 -0.12149607022E+03  0.12149607022E+03  0.00000000000E+00 0. -1.
         -6    2    1    2    0  503  0.47319800176E+02  0.62769145607E+02 -0.33316920929E+00  0.18929109957E+03  0.17219721323E+03 0.  0.
        -24    2    3    3    0    0  0.41395378729E+02  0.37287798576E+02  0.66536031448E+02  0.11733293246E+03  0.78968451024E+02 0.  0.
          6    2    1    2  501    0 -0.47319800176E+02 -0.62769145607E+02  0.30718647258E+03  0.36055434423E+03  0.17162976747E+03 0.  0.
         24    2    5    5    0    0 -0.53925497392E+02 -0.15807221556E+02  0.29622878880E+03  0.31165425855E+03  0.78860979157E+02 0.  0.
          5    1    5    5  501    0  0.66056972155E+01 -0.46961924051E+02  0.10957683774E+02  0.48900085684E+02  0.47000000000E+01 0. -1.
        -13    1    6    6    0    0  0.16617898153E+02  0.11015060894E+02  0.86255993839E+02  0.88530122437E+02  0.00000000000E+00 0.  1.
         14    1    6    6    0    0 -0.70543395544E+02 -0.26822282450E+02  0.20997279496E+03  0.22312413611E+03  0.00000000000E+00 0. -1.
         -5    1    3    3    0  503  0.59244214475E+01  0.25481347030E+02 -0.66869200657E+02  0.71958167101E+02  0.47000000000E+01 0.  1.
         11    1    4    4    0    0  0.37838003942E+02  0.57816731291E+02  0.67338017797E+02  0.96482628489E+02  0.00000000000E+00 0. -1.
        -12    1    4    4    0    0  0.35573747866E+01 -0.20528932714E+02 -0.80198634877E+00  0.20850303975E+02  0.00000000000E+00 0.  1.
</event>
<event>
12    1  0.8461994E-002  0.1944937E+03  0.7818608E-02  0.1154807E+00
         21   -1    0    0  503  502  0.00000000000E+00  0.00000000000E+00  0.17075932908E+03  0.17075932908E+03  0.00000000000E+00 0.  1.
         21   -1    0    0  501  503 -0.00000000000E+00 -0.00000000000E+00 -0.61426931324E+03  0.61426931324E+03  0.00000000000E+00 0. -1.
          6    2    1    2  501    0 -0.88826365806E+02 -0.68995667137E+01 -0.53662245683E+03  0.57078144088E+03  0.17288743389E+03 0.  0.
         24    2    3    3    0    0  0.13291963498E+02 -0.21820870574E+02 -0.15417632088E+03  0.17462751198E+03  0.77920493653E+02 0.  0.
         -6    2    1    2    0  502  0.88826365806E+02  0.68995667137E+01  0.93112472668E+02  0.21424720144E+03  0.17115549502E+03 0.  0.
        -24    2    5    5    0    0  0.61514401147E+02 -0.62066363603E+02  0.65655673688E+02  0.13501205288E+03  0.79254854083E+02 0.  0.
          5    1    3    3  501    0 -0.10211832930E+03  0.14921303860E+02 -0.38244613594E+03  0.39615392890E+03  0.47000000000E+01 0. -1.
        -13    1    4    4    0    0  0.35573045266E+02  0.12850325133E+02 -0.50764106756E+02  0.63305346854E+02  0.00000000000E+00 0.  1.
         14    1    4    4    0    0 -0.22281081768E+02 -0.34671195706E+02 -0.10341221413E+03  0.11132216512E+03  0.00000000000E+00 0. -1.
         -5    1    5    5    0  502  0.27311964658E+02  0.68965930317E+02  0.27456798980E+02  0.79235148565E+02  0.47000000000E+01 0.  1.
         11    1    6    6    0    0  0.20799204087E+02 -0.88320121721E+01 -0.17233400193E+02  0.28418328801E+02  0.00000000000E+00 0. -1.
        -12    1    6    6    0    0  0.40715197061E+02 -0.53234351431E+02  0.82889073881E+02  0.10659372408E+03  0.00000000000E+00 0.  1.
</event>
<event>
12    1  0.8461994E-002  0.2230355E+03  0.7818608E-02  0.1131653E+00
         21   -1    0    0  501  502  0.00000000000E+00  0.00000000000E+00  0.48060740517E+03  0.48060740517E+03  0.00000000000E+00 0. -1.
         21   -1    0    0  502  503 -0.00000000000E+00 -0.00000000000E+00 -0.12517577357E+03  0.12517577357E+03  0.00000000000E+00 0.  1.
         -6    2    1    2    0  503 -0.19062391347E+02  0.14000256666E+03  0.30382053230E+03  0.37685402093E+03  0.17247592239E+03 0.  0.
        -24    2    3    3    0    0  0.96519313971E+01  0.49584762615E+02  0.57346276253E+02  0.11271099052E+03  0.82845419428E+02 0.  0.
          6    2    1    2  501    0  0.19062391347E+02 -0.14000256666E+03  0.51611099302E+02  0.22892915781E+03  0.17257102969E+03 0.  0.
         24    2    5    5    0    0  0.67009767055E+02 -0.49044140690E+02  0.53623991798E+02  0.12598000615E+03  0.78101170512E+02 0.  0.
          5    1    5    5  501    0 -0.47947375707E+02 -0.90958425972E+02 -0.20128924961E+01  0.10294915167E+03  0.47000000000E+01 0. -1.
        -13    1    6    6    0    0  0.48254212172E+02 -0.11228095156E+02 -0.91028225129E+01  0.50372616478E+02  0.00000000000E+00 0.  1.
         14    1    6    6    0    0  0.18755554883E+02 -0.37816045533E+02  0.62726814311E+02  0.75607389667E+02  0.00000000000E+00 0. -1.
         -5    1    3    3    0  503 -0.28714322744E+02  0.90417804046E+02  0.24647425605E+03  0.26414303041E+03  0.47000000000E+01 0.  1.
         11    1    4    4    0    0  0.55763408362E+01 -0.22567070037E+02  0.22986382315E+02  0.32691619708E+02  0.00000000000E+00 0. -1.
        -12    1    4    4    0    0  0.40755905609E+01  0.72151832652E+02  0.34359893937E+02  0.80019370810E+02  0.00000000000E+00 0.  1.
</event>
<event>
12    1  0.8461994E-002  0.1770113E+03  0.7818608E-02  0.1171394E+00
         21   -1    0    0  503  502  0.00000000000E+00  0.00000000000E+00  0.11462178171E+03  0.11462178171E+03  0.00000000000E+00 0. -1.
         21   -1    0    0  501  503 -0.00000000000E+00 -0.00000000000E+00 -0.33781579609E+03  0.33781579609E+03  0.00000000000E+00 0. -1.
          6    2    1    2  501    0 -0.18730496983E+02 -0.30816179259E+02 -0.21283685339E+03  0.27512357407E+03  0.17056666271E+03 0.  0.
         24    2    3    3    0    0 -0.12090611378E+02 -0.74640495089E+02 -0.67058546678E+02  0.12268321378E+03  0.69548083153E+02 0.  0.
         -6    2    1    2    0  502  0.18730496983E+02  0.30816179259E+02 -0.10357160999E+02  0.17731400373E+03  0.17329892300E+03 0.  0.
        -24    2    5    5    0    0 -0.20693947963E+01 -0.49896352383E+02  0.58976872286E+01  0.92264263264E+02  0.77356209738E+02 0.  0.
          5    1    3    3  501    0 -0.66398856052E+01  0.43824315830E+02 -0.14577830671E+03  0.15244036029E+03  0.47000000000E+01 0. -1.
        -13    1    4    4    0    0 -0.35946022145E+02 -0.53086842844E+02 -0.22938604632E+02  0.68091915627E+02  0.00000000000E+00 0.  1.
         14    1    4    4    0    0  0.23855410767E+02 -0.21553652245E+02 -0.44119942046E+02  0.54591298154E+02  0.00000000000E+00 0. -1.
         -5    1    5    5    0  502  0.20799891779E+02  0.80712531643E+02 -0.16254848227E+02  0.85049740465E+02  0.47000000000E+01 0.  1.
         11    1    6    6    0    0 -0.32680354592E+02 -0.15217393704E+01  0.11653636315E+02  0.34729360869E+02  0.00000000000E+00 0. -1.
        -12    1    6    6    0    0  0.30610959796E+02 -0.48374613013E+02 -0.57559490864E+01  0.57534902396E+02  0.00000000000E+00 0.  1.
</event>
<event>
12    1  0.8461994E-002  0.2688696E+03  0.7818608E-02  0.1102189E+00
         21   -1    0    0  501  502  0.00000000000E+00  0.00000000000E+00  0.76407754672E+02  0.76407754672E+02  0.00000000000E+00 0. -1.
         21   -1    0    0  502  503 -0.00000000000E+00 -0.00000000000E+00 -0.10336396362E+04  0.10336396362E+04  0.00000000000E+00 0.  1.
         -6    2    1    2    0  503  0.14162163538E+03  0.15122604970E+03 -0.64733804460E+03  0.70095465398E+03  0.17136183132E+03 0.  0.
        -24    2    3    3    0    0  0.14297903279E+03  0.10568197728E+03 -0.61443320310E+03  0.64455497619E+03  0.79443515283E+02 0.  0.
          6    2    1    2  501    0 -0.14162163538E+03 -0.15122604970E+03 -0.30989383695E+03  0.40909273692E+03  0.16851311968E+03 0.  0.
         24    2    5    5    0    0 -0.37418747395E+02 -0.97082737418E+01 -0.13192430152E+03  0.15893125243E+03  0.79754049639E+02 0.  0.
          5    1    5    5  501    0 -0.10420288799E+03 -0.14151777596E+03 -0.17796953544E+03  0.25016148449E+03  0.47000000000E+01 0. -1.
        -11    1    6    6    0    0 -0.47894730680E+02 -0.36162446747E+02 -0.93904345035E+02  0.11144350048E+03  0.00000000000E+00 0.  1.
         12    1    6    6    0    0  0.10475983285E+02  0.26454173006E+02 -0.38019956481E+02  0.47487751958E+02  0.00000000000E+00 0. -1.
         -5    1    3    3    0  503 -0.13573974114E+01  0.45544072422E+02 -0.32904841501E+02  0.56399677789E+02  0.47000000000E+01 0.  1.
         13    1    4    4    0    0  0.84580697542E+02  0.27263318696E+02 -0.38561852949E+03  0.39572570454E+03  0.00000000000E+00 0. -1.
        -14    1    4    4    0    0  0.58398335249E+02  0.78418658581E+02 -0.22881467361E+03  0.24882927165E+03  0.00000000000E+00 0.  1.
</event>
<event>
12    1  0.8461994E-002  0.2275002E+03  0.7818608E-02  0.1128684E+00
         21   -1    0    0  501  502  0.00000000000E+00  0.00000000000E+00  0.30527929711E+03  0.30527929711E+03  0.00000000000E+00 0. -1.
         21   -1    0    0  502  503 -0.00000000000E+00 -0.00000000000E+00 -0.16849569728E+03  0.16849569728E+03  0.00000000000E+00 0.  1.
         -6    2    1    2    0  503  0.66325381769E+02 -0.13415693494E+03  0.62766926334E+02  0.23453703481E+03  0.16932452332E+03 0.  0.
        -24    2    3    3    0    0  0.99035825513E+02 -0.14234705620E+03  0.44965137297E+02  0.19611770492E+03  0.79809219169E+02 0.  0.
          6    2    1    2  501    0 -0.66325381769E+02  0.13415693494E+03  0.74016673501E+02  0.23923795959E+03  0.17134524765E+03 0.  0.
         24    2    5    5    0    0 -0.68958972782E+02  0.12784943344E+03  0.11220051012E+03  0.20016346975E+03  0.79847621077E+02 0.  0.
          5    1    5    5  501    0  0.26335910129E+01  0.63075014973E+01 -0.38183836623E+02  0.39074489837E+02  0.47000000000E+01 0. -1.
        -13    1    6    6    0    0 -0.71008903411E+02  0.76411179389E+02  0.10530769670E+03  0.14822497658E+03  0.00000000000E+00 0.  1.
         14    1    6    6    0    0  0.20499306286E+01  0.51438254050E+02  0.68928134255E+01  0.51938493165E+02  0.00000000000E+00 0. -1.
         -5    1    3    3    0  503 -0.32710443744E+02  0.81901212684E+01  0.17801789037E+02  0.38419329890E+02  0.47000000000E+01 0.  1.
         11    1    4    4    0    0 -0.41521793996E+01 -0.20766328242E+02 -0.14781572231E+02  0.25825875784E+02  0.00000000000E+00 0. -1.
        -12    1    4    4    0    0  0.10318800491E+03 -0.12158072796E+03  0.59746709528E+02  0.17029182913E+03  0.00000000000E+00 0.  1.
</event>
<event>
12    1  0.8461994E-002  0.2156810E+03  0.7818608E-02  0.1137272E+00
         21   -1    0    0  503  502  0.00000000000E+00  0.00000000000E+00  0.84937143649E+02  0.84937143649E+02  0.00000000000E+00 0.  1.
         21   -1    0    0  501  503 -0.00000000000E+00 -0.00000000000E+00 -0.75618368613E+03  0.75618368613E+03  0.00000000000E+00 0.  1.
          6    2    1    2  501    0  0.12826044026E+03 -0.58729398558E+01 -0.55773096476E+03  0.59798172124E+03  0.17330054219E+03 0.  0.
         24    2    3    3    0    0  0.13359098656E+03 -0.55973985584E+02 -0.43271150217E+03  0.46310961318E+03  0.79067255889E+02 0.  0.
         -6    2    1    2    0  502 -0.12826044026E+03  0.58729398558E+01 -0.11351557772E+03  0.24313910854E+03  0.17246915017E+03 0.  0.
        -24    2    5    5    0    0 -0.16195350951E+03  0.31727704503E+01 -0.91961825804E+02  0.20277615458E+03  0.80138540946E+02 0.  0.
          5    1    3    3  501    0 -0.53305462967E+01  0.50101045729E+02 -0.12501946259E+03  0.13487210806E+03  0.47000000000E+01 0. -1.
        -13    1    4    4    0    0  0.69027390537E+02 -0.68560854073E+02 -0.22234453378E+03  0.24269829636E+03  0.00000000000E+00 0.  1.
         14    1    4    4    0    0  0.64563596018E+02  0.12586868489E+02 -0.21036696840E+03  0.22041131682E+03  0.00000000000E+00 0. -1.
         -5    1    5    5    0  502  0.33693069256E+02  0.27001694055E+01 -0.21553751916E+02  0.40362953960E+02  0.47000000000E+01 0.  1.
         13    1    6    6    0    0 -0.12642501792E+03  0.13558923939E+02 -0.10355887957E+03  0.16398649674E+03  0.00000000000E+00 0. -1.
        -14    1    6    6    0    0 -0.35528491591E+02 -0.10386153489E+02  0.11597053770E+02  0.38789657838E+02  0.00000000000E+00 0.  1.
</event>
<event>
12    1  0.8461994E-002  0.3362388E+03  0.7818608E-02  0.1068482E+00
         21   -1    0    0  503  502  0.00000000000E+00  0.00000000000E+00  0.13376539742E+04  0.13376539742E+04  0.00000000000E+00 0. -1.
         21   -1    0    0  501  503 -0.00000000000E+00 -0.00000000000E+00 -0.13066589333E+03  0.13066589333E+03  0.00000000000E+00 0.  1.
          6    2    1    2  501    0  0.23638827017E+03 -0.16529793562E+03  0.16600184706E+03  0.37437798676E+03  0.17146265467E+03 0.  0.
         24    2    3    3    0    0  0.15586161447E+03 -0.30119630386E+02  0.99348371283E+02  0.20343211135E+03  0.79463765667E+02 0.  0.
         -6    2    1    2    0  502 -0.23638827017E+03  0.16529793562E+03  0.10409862339E+04  0.10939418808E+04  0.17278216850E+03 0.  0.
        -24    2    5    5    0    0 -0.25630986413E+03  0.15673675983E+03  0.10018864024E+04  0.10489857861E+04  0.79584280434E+02 0.  0.
          5    1    3    3  501    0  0.80526655704E+02 -0.13517830523E+03  0.66653475779E+02  0.17094587540E+03  0.47000000000E+01 0. -1.
        -11    1    4    4    0    0  0.15607417283E+03 -0.22501799935E+02  0.68968204275E+02  0.17211069585E+03  0.00000000000E+00 0.  1.
         12    1    4    4    0    0 -0.21255836073E+00 -0.76178304513E+01  0.30380167008E+02  0.31321415505E+02  0.00000000000E+00 0. -1.
         -5    1    5    5    0  502  0.19921593963E+02  0.85611757872E+01  0.39099831411E+02  0.44956094729E+02  0.47000000000E+01 0.  1.
         13    1    6    6    0    0 -0.15000666866E+03  0.13592857505E+03  0.66109808344E+03  0.69139659682E+03  0.00000000000E+00 0. -1.
        -14    1    6    6    0    0 -0.10630319547E+03  0.20808184785E+02  0.34078831900E+03  0.35758918928E+03  0.00000000000E+00 0.  1.
</event>
<event>
12    1  0.8461994E-002  0.2008580E+03  0.7818608E-02  0.1153553E+00
         21   -1    0    0  503  502  0.00000000000E+00  0.00000000000E+00  0.50651501851E+03  0.50651501851E+03  0.00000000000E+00 0.  1.
         21   -1    0    0  501  503 -0.00000000000E+00 -0.00000000000E+00 -0.81341383478E+02  0.81341383478E+02  0.00000000000E+00 0.  1.
          6    2    1    2  501    0 -0.18400635632E+02 -0.48731879337E+02  0.10177165998E+03  0.20715601961E+03  0.17275058966E+03 0.  0.
         24    2    3    3    0    0  0.44016210380E+01 -0.91389186913E+02  0.10407621367E+03  0.15850430056E+03  0.76944117973E+02 0.  0.
         -6    2    1    2    0  502  0.18400635632E+02  0.48731879337E+02  0.32340197505E+03  0.38070038238E+03  0.19398598975E+03 0.  0.
        -24    2    5    5    0    0 -0.69517023185E+02  0.27752840460E+02  0.15728245518E+03  0.19152475052E+03  0.79631166579E+02 0.  0.
          5    1    3    3  501    0 -0.22802256670E+02  0.42657307576E+02 -0.23045536918E+01  0.48651719051E+02  0.47000000000E+01 0. -1.
        -13    1    4    4    0    0  0.14729212274E+02 -0.90624864588E+02  0.52222754332E+02  0.10562685192E+03  0.00000000000E+00 0.  1.
         14    1    4    4    0    0 -0.10327591236E+02 -0.76432232507E+00  0.51853459339E+02  0.52877448641E+02  0.00000000000E+00 0. -1.
         -5    1    5    5    0  502  0.87917658817E+02  0.20979038877E+02  0.16611951987E+03  0.18917563185E+03  0.47000000000E+01 0.  1.
         13    1    6    6    0    0  0.86504312356E+00  0.26171231149E+02  0.95445582930E+01  0.27870777393E+02  0.00000000000E+00 0. -1.
        -14    1    6    6    0    0 -0.70382066309E+02  0.15816093102E+01  0.14773789688E+03  0.16365397313E+03  0.00000000000E+00 0.  1.
</event>
<event>
12    1  0.8461994E-002  0.2872204E+03  0.7818608E-02  0.1091876E+00
         21   -1    0    0  503  502  0.00000000000E+00  0.00000000000E+00  0.67301669648E+02  0.67301669648E+02  0.00000000000E+00 0.  1.
         21   -1    0    0  501  503 -0.00000000000E+00 -0.00000000000E+00 -0.12238184913E+04  0.12238184913E+04  0.00000000000E+00 0. -1.
          6    2    1    2  501    0  0.15760284624E+03 -0.16792161085E+03 -0.57036693786E+03  0.63860316880E+03  0.17163693912E+03 0.  0.
         24    2    3    3    0    0  0.15534299800E+03 -0.79877156626E+02 -0.32253014320E+03  0.37554024929E+03  0.80579019533E+02 0.  0.
         -6    2    1    2    0  502 -0.15760284624E+03  0.16792161085E+03 -0.58614988377E+03  0.65251699212E+03  0.17079348417E+03 0.  0.
        -24    2    5    5    0    0 -0.16425667132E+03  0.12828812535E+03 -0.56348320580E+03  0.60613860436E+03  0.80327998240E+02 0.  0.
          5    1    3    3  501    0  0.22598482383E+01 -0.88044454220E+02 -0.24783679466E+03  0.26306291951E+03  0.47000000000E+01 0. -1.
        -11    1    4    4    0    0  0.51361794568E+02 -0.70558945633E+02 -0.13107429270E+03  0.15747085114E+03  0.00000000000E+00 0.  1.
         12    1    4    4    0    0  0.10398120343E+03 -0.93182109930E+01 -0.19145585049E+03  0.21806939815E+03  0.00000000000E+00 0. -1.
         -5    1    5    5    0  502  0.66538250826E+01  0.39633485500E+02 -0.22666677970E+02  0.46378387761E+02  0.47000000000E+01 0.  1.
         13    1    6    6    0    0 -0.92484167926E+02  0.92477593083E+02 -0.24515416433E+03  0.27785966031E+03  0.00000000000E+00 0. -1.
        -14    1    6    6    0    0 -0.71772503394E+02  0.35810532263E+02 -0.31832904147E+03  0.32827894405E+03  0.00000000000E+00 0.  1.
</event>
<event>
12    1  0.8461994E-002  0.2171800E+03  0.7818608E-02  0.1137225E+00
         21   -1    0    0  501  502  0.00000000000E+00  0.00000000000E+00  0.17180100004E+03  0.17180100004E+03  0.00000000000E+00 0. -1.
         21   -1    0    0  502  503 -0.00000000000E+00 -0.00000000000E+00 -0.26757673194E+03  0.26757673194E+03  0.00000000000E+00 0. -1.
         -6    2    1    2    0  503 -0.11658257390E+03  0.58222076094E+02 -0.60580605806E+02  0.21936446271E+03  0.16573910527E+03 0.  0.
        -24    2    3    3    0    0 -0.34008864828E+02 -0.32534598586E+01 -0.75837596085E+02  0.11518901117E+03  0.79686758159E+02 0.  0.
          6    2    1    2  501    0  0.11658257390E+03 -0.58222076094E+02 -0.35195126099E+02  0.22001326927E+03  0.17374071219E+03 0.  0.
         24    2    5    5    0    0  0.13327942749E+02 -0.18475459118E+02 -0.66859779286E+02  0.10483491767E+03  0.77467110635E+02 0.  0.
          5    1    5    5  501    0  0.10325463115E+03 -0.39746616976E+02  0.31664653187E+02  0.11517835160E+03  0.47000000000E+01 0. -1.
        -13    1    6    6    0    0 -0.19501606218E+02 -0.33480653098E+02 -0.54112596603E+02  0.66554037354E+02  0.00000000000E+00 0.  1.
         14    1    6    6    0    0  0.32829548967E+02  0.15005193980E+02 -0.12747182682E+02  0.38280880320E+02  0.00000000000E+00 0. -1.
         -5    1    3    3    0  503 -0.82573709075E+02  0.61475535953E+02  0.15256990279E+02  0.10417545154E+03  0.47000000000E+01 0.  1.
         13    1    4    4    0    0 -0.23934769882E+02  0.33171159699E+02 -0.14999044743E+02  0.43567997294E+02  0.00000000000E+00 0. -1.
        -14    1    4    4    0    0 -0.10074094946E+02 -0.36424619557E+02 -0.60838551341E+02  0.71621013873E+02  0.00000000000E+00 0.  1.
</event>
<event>
12    1  0.8461994E-002  0.1969095E+03  0.7818608E-02  0.1152462E+00
         21   -1    0    0  503  502  0.00000000000E+00  0.00000000000E+00  0.38111915052E+02  0.38111915052E+02  0.00000000000E+00 0.  1.
         21   -1    0    0  501  503 -0.00000000000E+00 -0.00000000000E+00 -0.13527959419E+04  0.13527959419E+04  0.00000000000E+00 0.  1.
          6    2    1    2  501    0 -0.91574735544E+01 -0.95921778886E+02 -0.10042309979E+04  0.10232743048E+04  0.17124706959E+03 0.  0.
         24    2    3    3    0    0 -0.71929125852E+02 -0.56296581811E+02 -0.65842507343E+03  0.66955935751E+03  0.80268621757E+02 0.  0.
         -6    2    1    2    0  502  0.91574735544E+01  0.95921778886E+02 -0.31045302895E+03  0.36763355210E+03  0.17172215483E+03 0.  0.
        -24    2    5    5    0    0 -0.40836880803E+02  0.79097467378E+01 -0.92226728107E+02  0.12702939243E+03  0.76814596509E+02 0.  0.
          5    1    3    3  501    0  0.62771652297E+02 -0.39625197075E+02 -0.34580592444E+03  0.35371494731E+03  0.47000000000E+01 0. -1.
        -13    1    4    4    0    0 -0.56250641508E+02 -0.42851004691E+01 -0.19608316316E+03  0.20403701534E+03  0.00000000000E+00 0.  1.
         14    1    4    4    0    0 -0.15678484344E+02 -0.52011481342E+02 -0.46234191028E+03  0.46552234217E+03  0.00000000000E+00 0. -1.
         -5    1    5    5    0  502  0.49994354358E+02  0.88012032148E+02 -0.21822630085E+03  0.24060415967E+03  0.47000000000E+01 0.  1.
         13    1    6    6    0    0 -0.86778427327E+01  0.16694067518E+02 -0.91780570688E+02  0.93689220301E+02  0.00000000000E+00 0. -1.
        -14    1    6    6    0    0 -0.32159038071E+02 -0.87843207805E+01 -0.44615741877E+00  0.33340172130E+02  0.00000000000E+00 0.  1.
</event>
<event>
12    1  0.8461994E-002  0.2168783E+03  0.7818608E-02  0.1136239E+00
         21   -1    0    0  501  502  0.00000000000E+00  0.00000000000E+00  0.98973942538E+02  0.98973942538E+02  0.00000000000E+00 0.  1.
         21   -1    0    0  502  503 -0.00000000000E+00 -0.00000000000E+00 -0.63410291661E+03  0.63410291661E+03  0.00000000000E+00 0.  1.
         -6    2    1    2    0  503  0.55759787337E+02 -0.11758790450E+03 -0.45109545766E+03  0.50052304151E+03  0.17349390189E+03 0.  0.
        -24    2    3    3    0    0  0.42673399626E+02 -0.11428645696E+03 -0.19262034611E+03  0.24165313907E+03  0.80070148028E+02 0.  0.
          6    2    1    2  501    0 -0.55759787337E+02  0.11758790450E+03 -0.84033516408E+02  0.23255381763E+03  0.17344617911E+03 0.  0.
         24    2    5    5    0    0 -0.41831333828E+02  0.13441335615E+03 -0.15126835418E+02  0.16011544158E+03  0.74775147487E+02 0.  0.
          5    1    5    5  501    0 -0.13928453509E+02 -0.16825451649E+02 -0.68906680990E+02  0.72438376054E+02  0.47000000000E+01 0. -1.
        -13    1    6    6    0    0 -0.31697587920E+02  0.11243066185E+03 -0.41827009683E+02  0.12407614413E+03  0.00000000000E+00 0.  1.
         14    1    6    6    0    0 -0.10133745908E+02  0.21982694302E+02  0.26700174265E+02  0.36039297450E+02  0.00000000000E+00 0. -1.
         -5    1    3    3    0  503  0.13086387711E+02 -0.33014475357E+01 -0.25847511155E+03  0.25886990245E+03  0.47000000000E+01 0.  1.
         11    1    4    4    0    0  0.67440316257E+01 -0.17812028942E+00  0.64940816498E+01  0.93641222696E+01  0.00000000000E+00 0. -1.
        -12    1    4    4    0    0  0.35929368001E+02 -0.11410833667E+03 -0.19911442776E+03  0.23228901680E+03  0.00000000000E+00 0.  1.
</event>
<event>
12    1  0.8461994E-002  0.1800695E+03  0.7818608E-02  0.1167768E+00
         21   -1    0    0  501  502  0.00000000000E+00  0.00000000000E+00  0.18736136044E+03  0.18736136044E+03  0.00000000000E+00 0. -1.
         21   -1    0    0  502  503 -0.00000000000E+00 -0.00000000000E+00 -0.22313971376E+03  0.22313971376E+03  0.00000000000E+00 0. -1.
         -6    2    1    2    0  503  0.53817413907E+02 -0.91443087280E+00 -0.11525196967E+03  0.21379440442E+03  0.17183678485E+03 0.  0.
        -24    2    3    3    0    0  0.25734467385E+02 -0.13607373576E+02 -0.14550516912E+03  0.17035353936E+03  0.83672879147E+02 0.  0.
          6    2    1    2  501    0 -0.53817413907E+02  0.91443087280E+00  0.79473616346E+02  0.19670666978E+03  0.17169830522E+03 0.  0.
         24    2    5    5    0    0 -0.56603210431E+02  0.58047107707E+01  0.12041654378E+03  0.15511233354E+03  0.79511470258E+02 0.  0.
          5    1    5    5  501    0  0.27857965241E+01 -0.48902798979E+01 -0.40942927435E+02  0.41594336234E+02  0.47000000000E+01 0. -1.
        -11    1    6    6    0    0 -0.80238395566E+01  0.79089385514E+01 -0.10534915429E+02  0.15424582761E+02  0.00000000000E+00 0.  1.
         12    1    6    6    0    0 -0.48579370874E+02 -0.21042277807E+01  0.13095145921E+03  0.13968775078E+03  0.00000000000E+00 0. -1.
         -5    1    3    3    0  503  0.28082946522E+02  0.12692942703E+02  0.30253199457E+02  0.43440865060E+02  0.47000000000E+01 0.  1.
         11    1    4    4    0    0  0.34967062931E+01  0.25443202119E+02 -0.11034626772E+03  0.11329555282E+03  0.00000000000E+00 0. -1.
        -12    1    4    4    0    0  0.22237761092E+02 -0.39050575695E+02 -0.35158901402E+02  0.57057986542E+02  0.00000000000E+00 0.  1.
</event>
<event>
12    1  0.8461994E-002  0.2542543E+03  0.7818608E-02  0.1110758E+00
         21   -1    0    0  501  502  0.00000000000E+00  0.00000000000E+00  0.10217731084E+03  0.10217731084E+03  0.00000000000E+00 0.  1.
         21   -1    0    0  502  503 -0.00000000000E+00 -0.00000000000E+00 -0.63134692434E+03  0.63134692434E+03  0.00000000000E+00 0.  1.
         -6    2    1    2    0  503  0.14575281072E+03 -0.11601588667E+03 -0.25415377302E+03  0.35898589914E+03  0.17196850772E+03 0.  0.
        -24    2    3    3    0    0  0.16695655226E+03 -0.78779065540E+02 -0.23962375443E+03  0.31349534031E+03  0.82335613161E+02 0.  0.
          6    2    1    2  501    0 -0.14575281072E+03  0.11601588667E+03 -0.27501584048E+03  0.37453833605E+03  0.17303665757E+03 0.  0.
         24    2    5    5    0    0 -0.12178343290E+03  0.14377921256E+03 -0.17890171489E+03  0.27155606342E+03  0.78950652284E+02 0.  0.
          5    1    5    5  501    0 -0.23969377821E+02 -0.27763325892E+02 -0.96114125593E+02  0.10298227263E+03  0.47000000000E+01 0. -1.
        -13    1    6    6    0    0 -0.10466650291E+02  0.29028298071E+02  0.10109618150E+01  0.30874178547E+02  0.00000000000E+00 0.  1.
         14    1    6    6    0    0 -0.11131678261E+03  0.11475091449E+03 -0.17991267670E+03  0.24068188487E+03  0.00000000000E+00 0. -1.
         -5    1    3    3    0  503 -0.21203741537E+02 -0.37236821128E+02 -0.14530018587E+02  0.45490558834E+02  0.47000000000E+01 0.  1.
         13    1    4    4    0    0  0.52946049221E+02 -0.31997999384E+02 -0.14651776138E+03  0.15904279453E+03  0.00000000000E+00 0. -1.
        -14    1    4    4    0    0  0.11401050304E+03 -0.46781066156E+02 -0.93105993057E+02  0.15445254578E+03  0.00000000000E+00 0.  1.
</event>
<event>
12    1  0.8461994E-002  0.1729179E+03  0.7818608E-02  0.1175425E+00
         21   -1    0    0  503  502  0.00000000000E+00  0.00000000000E+00  0.87632981506E+02  0.87632981506E+02  0.00000000000E+00 0. -1.
         21   -1    0    0  501  503 -0.00000000000E+00 -0.00000000000E+00 -0.25585025561E+04  0.25585025561E+04  0.00000000000E+00 0. -1.
          6    2    1    2  501    0 -0.33795255859E+02 -0.24808498979E+01 -0.24672870491E+04  0.24731805321E+04  0.16723721950E+03 0.  0.
         24    2    3    3    0    0 -0.61397249191E+02  0.94062550814E+01 -0.23440090459E+04  0.23462052220E+04  0.80264789806E+02 0.  0.
         -6    2    1    2    0  502  0.33795255859E+02  0.24808498979E+01 -0.35825254725E+01  0.17295500552E+03  0.16956510700E+03 0.  0.
        -24    2    5    5    0    0  0.51901246950E+02  0.51727422998E+02  0.25265300545E+02  0.11289387881E+03  0.82080611211E+02 0.  0.
          5    1    3    3  501    0  0.27601993332E+02 -0.11887104979E+02 -0.12327800314E+03  0.12697531004E+03  0.47000000000E+01 0. -1.
        -11    1    4    4    0    0 -0.30303659150E+02  0.32649898088E+01 -0.23625834333E+03  0.23821623939E+03  0.00000000000E+00 0.  1.
         12    1    4    4    0    0 -0.31093590041E+02  0.61412652726E+01 -0.21077507026E+04  0.21079889826E+04  0.00000000000E+00 0. -1.
         -5    1    5    5    0  502 -0.18105991091E+02 -0.49246573100E+02 -0.28847826017E+02  0.60061126708E+02  0.47000000000E+01 0.  1.
         11    1    6    6    0    0  0.48625241300E+02  0.26114515867E+02  0.51924590717E+02  0.75779582683E+02  0.00000000000E+00 0. -1.
        -12    1    6    6    0    0  0.32760056502E+01  0.25612907131E+02 -0.26659290173E+02  0.37114296130E+02  0.00000000000E+00 0.  1.
</event>
<event>
12    1  0.8461994E-002  0.1865546E+03  0.7818608E-02  0.1163979E+00
         21   -1    0    0  503  502  0.00000000000E+00  0.00000000000E+00  0.58015098217E+03  0.58015098217E+03  0.00000000000E+00 0. -1.
         21   -1    0    0  501  503 -0.00000000000E+00 -0.00000000000E+00 -0.64040652810E+02  0.64040652810E+02  0.00000000000E+00 0. -1.
          6    2    1    2  501    0 -0.42594356183E+02  0.68292866960E+01  0.35985771592E+03  0.40084517687E+03  0.17122605460E+03 0.  0.
         24    2    3    3    0    0 -0.10315945122E+02  0.54786926003E+02  0.30707449197E+03  0.32242330671E+03  0.80956896590E+02 0.  0.
         -6    2    1    2    0  502  0.42594356183E+02 -0.68292866960E+01  0.15625261344E+03  0.24334645811E+03  0.18149848797E+03 0.  0.
        -24    2    5    5    0    0  0.93998327543E+02 -0.22075489822E+02  0.13691054777E+03  0.18615362215E+03  0.81152080179E+02 0.  0.
          5    1    3    3  501    0 -0.32278411061E+02 -0.47957639307E+02  0.52783223949E+02  0.78421870158E+02  0.47000000000E+01 0. -1.
        -13    1    4    4    0    0 -0.37224418295E+02  0.19406371099E+02  0.73382801494E+02  0.84541706345E+02  0.00000000000E+00 0.  1.
         14    1    4    4    0    0  0.26908473173E+02  0.35380554904E+02  0.23369169048E+03  0.23788160037E+03  0.00000000000E+00 0. -1.
         -5    1    5    5    0  502 -0.51403971360E+02  0.15246203126E+02  0.19342065672E+02  0.57192835965E+02  0.47000000000E+01 0.  1.
         11    1    6    6    0    0  0.45347061935E+01  0.23702919536E+02  0.16108802130E+02  0.29015262550E+02  0.00000000000E+00 0. -1.
        -12    1    6    6    0    0  0.89463621349E+02 -0.45778409358E+02  0.12080174564E+03  0.15713835960E+03  0.00000000000E+00 0.  1.
</event>
<event>
12    1  0.8461994E-002  0.1779011E+03  0.7818608E-02  0.1170816E+00
         21   -1    0    0  501  502  0.00000000000E+00  0.00000000000E+00  0.65910887717E+03  0.65910887717E+03  0.00000000000E+00 0. -1.
         21   -1    0    0  502  503 -0.00000000000E+00 -0.00000000000E+00 -0.13505611709E+03  0.13505611709E+03  0.00000000000E+00 0. -1.
         -6    2    1    2    0  503 -0.20940510118E+02 -0.10116611751E+02 -0.57636250406E+02  0.18700463742E+03  0.17637444899E+03 0.  0.
        -24    2    3    3    0    0 -0.61852674463E+02  0.35662547709E+02 -0.92980605289E+01  0.10872177063E+03  0.81464095352E+02 0.  0.
          6    2    1    2  501    0  0.20940510118E+02  0.10116611751E+02  0.58168901048E+03  0.60716035684E+03  0.17245504693E+03 0.  0.
         24    2    5    5    0    0  0.56703764696E+02 -0.34608736750E+02  0.25175639415E+03  0.27226188194E+03  0.79574925516E+02 0.  0.
          5    1    5    5  501    0 -0.35763254578E+02  0.44725348501E+02  0.32993261633E+03  0.33489847491E+03  0.47000000000E+01 0. -1.
        -13    1    6    6    0    0  0.67180632151E+02 -0.57061079015E+01  0.20895958241E+03  0.21956753878E+03  0.00000000000E+00 0.  1.
         14    1    6    6    0    0 -0.10476867454E+02 -0.28902628848E+02  0.42796811734E+02  0.52694343156E+02  0.00000000000E+00 0. -1.
         -5    1    3    3    0  503  0.40912164345E+02 -0.45779159460E+02 -0.48338189877E+02  0.78282866790E+02  0.47000000000E+01 0.  1.
         11    1    4    4    0    0 -0.58971360785E+02  0.54361740824E+02 -0.25132226354E+02  0.84050276976E+02  0.00000000000E+00 0. -1.
        -12    1    4    4    0    0 -0.28813136784E+01 -0.18699193115E+02  0.15834165825E+02  0.24671493652E+02  0.00000000000E+00 0.  1.
</event>
<event>
12    1  0.8461994E-002  0.2004169E+03  0.7818608E-02  0.1149491E+00
         21   -1    0    0  501  502  0.00000000000E+00  0.00000000000E+00  0.55803866383E+02  0.55803866383E+02  0.00000000000E+00 0. -1.
         21   -1    0    0  502  503 -0.00000000000E+00 -0.00000000000E+00 -0.80381005045E+03  0.80381005045E+03  0.00000000000E+00 0. -1.
         -6    2    1    2    0  503  0.83519216505E+02 -0.57096388161E+02 -0.51399966258E+03  0.55151332016E+03  0.17244080759E+03 0.  0.
        -24    2    3    3    0    0  0.22364141208E+02 -0.53254876637E+01 -0.41841686122E+03  0.42670013461E+03  0.80447619542E+02 0.  0.
          6    2    1    2  501    0 -0.83519216505E+02  0.57096388161E+02 -0.23400652149E+03  0.30810059667E+03  0.17300713425E+03 0.  0.
         24    2    5    5    0    0 -0.67866165829E+01  0.23097812095E+02 -0.20080620805E+03  0.21772280140E+03  0.80625789738E+02 0.  0.
          5    1    5    5  501    0 -0.76732599922E+02  0.33998576067E+02 -0.33200313444E+02  0.90377795272E+02  0.47000000000E+01 0. -1.
        -11    1    6    6    0    0  0.88112953299E+01 -0.10655889185E+02 -0.16668132518E+03  0.16725385217E+03  0.00000000000E+00 0.  1.
         12    1    6    6    0    0 -0.15597911913E+02  0.33753701280E+02 -0.34124882860E+02  0.50468949230E+02  0.00000000000E+00 0. -1.
         -5    1    3    3    0  503  0.61155075298E+02 -0.51770900498E+02 -0.95582801351E+02  0.12481318555E+03  0.47000000000E+01 0.  1.
         11    1    4    4    0    0  0.34380078788E+02 -0.35212094121E+02 -0.29863206457E+03  0.30265986087E+03  0.00000000000E+00 0. -1.
        -12    1    4    4    0    0 -0.12015937580E+02  0.29886606457E+02 -0.11978479665E+03  0.12404027375E+03  0.00000000000E+00 0.  1.
</event>
<event>
12    1  0.8461994E-002  0.1739521E+03  0.7818608E-02  0.1174523E+00
         21   -1    0    0  503  502  0.00000000000E+00  0.00000000000E+00  0.56695992069E+02  0.56695992069E+02  0.00000000000E+00 0. -1.
         21   -1    0    0  501  503 -0.00000000000E+00 -0.00000000000E+00 -0.63249246348E+03  0.63249246348E+03  0.00000000000E+00 0. -1.
          6    2    1    2  501    0  0.79441257530E+01  0.29795588411E+02 -0.42801723881E+03  0.46093854942E+03  0.16826973406E+03 0.  0.
         24    2    3    3    0    0 -0.31957073678E+02 -0.37132630102E+02 -0.26757904155E+03  0.28251770621E+03  0.76273351008E+02 0.  0.
         -6    2    1    2    0  502 -0.79441257530E+01 -0.29795588411E+02 -0.14777923260E+03  0.22824990613E+03  0.17119705557E+03 0.  0.
        -24    2    5    5    0    0 -0.63037434735E+01 -0.36952579888E+02 -0.10343166880E+02  0.90537613495E+02  0.81760919847E+02 0.  0.
          5    1    3    3  501    0  0.39901199431E+02  0.66928218512E+02 -0.16043819726E+03  0.17842084321E+03  0.47000000000E+01 0. -1.
        -13    1    4    4    0    0 -0.64697127777E+01  0.23497891492E+02 -0.59730494575E+02  0.64511549897E+02  0.00000000000E+00 0.  1.
         14    1    4    4    0    0 -0.25487360901E+02 -0.60630521594E+02 -0.20784854697E+03  0.21800615632E+03  0.00000000000E+00 0. -1.
         -5    1    5    5    0  502 -0.16403822794E+01  0.71569914767E+01 -0.13743606572E+03  0.13771229263E+03  0.47000000000E+01 0.  1.
         13    1    6    6    0    0  0.28781835562E+02  0.29643497201E+01  0.13929226639E+02  0.32112377401E+02  0.00000000000E+00 0. -1.
        -14    1    6    6    0    0 -0.35085579036E+02 -0.39916929608E+02 -0.24272393519E+02  0.58425236095E+02  0.00000000000E+00 0.  1.
</event>
<event>
12    1  0.8461994E-002  0.2026519E+03  0.7818608E-02  0.1151625E+00
         21   -1    0    0  503  502  0.00000000000E+00  0.00000000000E+00  0.34763019425E+02  0.34763019425E+02  0.00000000000E+00 0.  1.
         21   -1    0    0  501  503 -0.00000000000E+00 -0.00000000000E+00 -0.10843614945E+04  0.10843614945E+04  0.00000000000E+00 0.  1.
          6    2    1    2  501    0  0.66366787119E+02  0.95510503737E+01 -0.60377106162E+03  0.63687306484E+03  0.19123815746E+03 0.  0.
         24    2    3    3    0    0  0.10314069509E+03 -0.38321276585E+02 -0.50027271188E+03  0.51696443964E+03  0.69806320533E+02 0.  0.
         -6    2    1    2    0  502 -0.66366787119E+02 -0.95510503737E+01 -0.44582741343E+03  0.48225144907E+03  0.17119756003E+03 0.  0.
        -24    2    5    5    0    0 -0.36046861198E+02 -0.39128776020E+02 -0.10988624761E+03  0.14361787622E+03  0.75635108527E+02 0.  0.
          5    1    3    3  501    0 -0.36773907971E+02  0.47872326959E+02 -0.10349834975E+03  0.11990862520E+03  0.47000000000E+01 0. -1.
        -11    1    4    4    0    0  0.76297887241E+02 -0.11236641167E+02 -0.20126128821E+03  0.21553128736E+03  0.00000000000E+00 0.  1.
         12    1    4    4    0    0  0.26842807849E+02 -0.27084635418E+02 -0.29901142367E+03  0.30143315228E+03  0.00000000000E+00 0. -1.
         -5    1    5    5    0  502 -0.30319925922E+02  0.29577725646E+02 -0.33594116582E+03  0.33863357284E+03  0.47000000000E+01 0.  1.
         13    1    6    6    0    0  0.14128669495E+02  0.13556063207E+02 -0.26593024488E+02  0.33023856571E+02  0.00000000000E+00 0. -1.
        -14    1    6    6    0    0 -0.50175530693E+02 -0.52684839227E+02 -0.83293223124E+02  0.11059401965E+03  0.00000000000E+00 0.  1.
</event>
<event>
12    1  0.8461994E-002  0.2449648E+03  0.7818608E-02  0.1116711E+00
         21   -1    0    0  503  502  0.00000000000E+00  0.00000000000E+00  0.12369269802E+04  0.12369269802E+04  0.00000000000E+00 0. -1.
         21   -1    0    0  501  503 -0.00000000000E+00 -0.00000000000E+00 -0.14679265717E+03  0.14679265717E+03  0.00000000000E+00 0.  1.
          6    2    1    2  501    0  0.16772350023E+03  0.45526657957E+02 -0.22082423397E+02  0.24484569431E+03  0.17104950010E+03 0.  0.
         24    2    3    3    0    0  0.17713517971E+03  0.60355041231E+02 -0.52457783807E+02  0.20944494317E+03  0.78075362617E+02 0.  0.
         -6    2    1    2    0  502 -0.16772350023E+03 -0.45526657957E+02  0.11122167464E+04  0.11388739431E+04  0.17263811291E+03 0.  0.
        -24    2    5    5    0    0 -0.15662327108E+03  0.21002366441E+02  0.80801361759E+03  0.82724762875E+03  0.80502699483E+02 0.  0.
          5    1    3    3  501    0 -0.94116794748E+01 -0.14828383274E+02  0.30375360410E+02  0.35400751137E+02  0.47000000000E+01 0. -1.
        -11    1    4    4    0    0  0.45672270456E+02 -0.18206848083E+02 -0.68010709398E+01  0.49635674385E+02  0.00000000000E+00 0.  1.
         12    1    4    4    0    0  0.13146290925E+03  0.78561889314E+02 -0.45656712867E+02  0.15980926879E+03  0.00000000000E+00 0. -1.
         -5    1    5    5    0  502 -0.11100229155E+02 -0.66529024398E+02  0.30420312885E+03  0.31162631432E+03  0.47000000000E+01 0.  1.
         11    1    6    6    0    0 -0.11604578136E+03  0.81844589994E+01  0.72167930967E+03  0.73099564619E+03  0.00000000000E+00 0. -1.
        -12    1    6    6    0    0 -0.40577489721E+02  0.12817907442E+02  0.86334307917E+02  0.96251982560E+02  0.00000000000E+00 0.  1.
</event>
<event>
12    1  0.8461994E-002  0.2355492E+03  0.7818608E-02  0.1122972E+00
         21   -1    0    0  501  502  0.00000000000E+00  0.00000000000E+00  0.12671143510E+04  0.12671143510E+04  0.00000000000E+00 0. -1.
         21   -1    0    0  502  503 -0.00000000000E+00 -0.00000000000E+00 -0.11871287797E+03  0.11871287797E+03  0.00000000000E+00 0.  1.
         -6    2    1    2    0  503  0.15851238738E+03  0.27118222978E+02  0.23473461683E+02  0.23671588387E+03  0.17210993958E+03 0.  0.
        -24    2    3    3    0    0  0.41738836765E+02 -0.19049245630E+02  0.54653620731E+02  0.10724855363E+03  0.80063910367E+02 0.  0.
          6    2    1    2  501    0 -0.15851238738E+03 -0.27118222978E+02  0.11249280113E+04  0.11491113451E+04  0.17068180265E+03 0.  0.
         24    2    5    5    0    0 -0.11945835846E+03  0.29211098651E+02  0.53238681692E+03  0.55260035045E+03  0.82509616371E+02 0.  0.
          5    1    5    5  501    0 -0.39054028926E+02 -0.56329321629E+02  0.59254119442E+03  0.59651099465E+03  0.47000000000E+01 0. -1.
        -13    1    6    6    0    0 -0.30865981290E+02 -0.27359701080E+02  0.19075812498E+03  0.19516640154E+03  0.00000000000E+00 0.  1.
         14    1    6    6    0    0 -0.88592377169E+02  0.56570799731E+02  0.34162869195E+03  0.35743394891E+03  0.00000000000E+00 0. -1.
         -5    1    3    3    0  503  0.11677355062E+03  0.46167468608E+02 -0.31180159048E+02  0.12946733024E+03  0.47000000000E+01 0.  1.
         11    1    4    4    0    0  0.51758859317E+02 -0.42719551781E+01  0.67562258178E+02  0.85216711090E+02  0.00000000000E+00 0. -1.
        -12    1    4    4    0    0 -0.10020022552E+02 -0.14777290452E+02 -0.12908637447E+02  0.22031842541E+02  0.00000000000E+00 0.  1.
</event>
<event>
12    1  0.8461994E-002  0.1983340E+03  0.7818608E-02  0.1151728E+00
         21   -1    0    0  501  502  0.00000000000E+00  0.00000000000E+00  0.11089204106E+04  0.11089204106E+04  0.00000000000E+00 0. -1.
         21   -1    0    0  502  503 -0.00000000000E+00 -0.00000000000E+00 -0.58321210123E+02  0.58321210123E+02  0.00000000000E+00 0. -1.
         -6    2    1    2    0  503 -0.76220291714E+02 -0.53241835492E+02  0.15835122673E+03  0.25379416867E+03  0.17519173249E+03 0.  0.
        -24    2    3    3    0    0 -0.34658270370E+02 -0.13724701224E+01  0.56580668232E+01  0.87195477912E+02  0.79799487899E+02 0.  0.
          6    2    1    2  501    0  0.76220291714E+02  0.53241835492E+02  0.89224797377E+03  0.91344745207E+03  0.17214986227E+03 0.  0.
         24    2    5    5    0    0 -0.27947023422E+01 -0.11568089427E+02  0.58240221362E+03  0.58714976477E+03  0.73558662217E+02 0.  0.
          5    1    5    5  501    0  0.79014994056E+02  0.64809924919E+02  0.30984576016E+03  0.32629768730E+03  0.47000000000E+01 0. -1.
        -13    1    6    6    0    0  0.25148705964E+02  0.10993309330E+02  0.10956000595E+03  0.11294558498E+03  0.00000000000E+00 0.  1.
         14    1    6    6    0    0 -0.27943408306E+02 -0.22561398756E+02  0.47284220766E+03  0.47420417979E+03  0.00000000000E+00 0. -1.
         -5    1    3    3    0  503 -0.41562021344E+02 -0.51869365369E+02  0.15269315990E+03  0.16659869076E+03  0.47000000000E+01 0.  1.
         11    1    4    4    0    0 -0.55594298039E+02 -0.13839679646E+02  0.17770924259E+02  0.59983901642E+02  0.00000000000E+00 0. -1.
        -12    1    4    4    0    0  0.20936027669E+02  0.12467209523E+02 -0.12112857436E+02  0.27211576271E+02  0.00000000000E+00 0.  1.
</event>
<event>
12    1  0.8461994E-002  0.1808117E+03  0.7818608E-02  0.1167235E+00
         21   -1    0    0  501  502  0.00000000000E+00  0.00000000000E+00  0.10594400891E+03  0.10594400891E+03  0.00000000000E+00 0. -1.
         21   -1    0    0  502  503 -0.00000000000E+00 -0.00000000000E+00 -0.15024283941E+04  0.15024283941E+04  0.00000000000E+00 0. -1.
         -6    2    1    2    0  503 -0.53723551205E+02 -0.18457411050E+02 -0.14152032908E+04  0.14265942952E+04  0.17071623503E+03 0.  0.
        -24    2    3    3    0    0  0.11884058445E+02 -0.56841805392E+02 -0.62020437657E+03  0.62795602680E+03  0.79391946615E+02 0.  0.
          6    2    1    2  501    0  0.53723551205E+02  0.18457411050E+02  0.18718905654E+02  0.18177810774E+03  0.17165659628E+03 0.  0.
         24    2    5    5    0    0  0.57288943421E+01 -0.13653637317E+02  0.67658316521E+02  0.10593773293E+03  0.80161795275E+02 0.  0.
          5    1    5    5  501    0  0.47994656863E+02  0.32111048367E+02 -0.48939410867E+02  0.75840374805E+02  0.47000000000E+01 0. -1.
        -13    1    6    6    0    0  0.10313839636E+02 -0.21008137940E+01 -0.17204847645E+02  0.20169171751E+02  0.00000000000E+00 0.  1.
         14    1    6    6    0    0 -0.45849452936E+01 -0.11552823523E+02  0.84863164166E+02  0.85768561180E+02  0.00000000000E+00 0. -1.
         -5    1    3    3    0  503 -0.65607609650E+02  0.38384394342E+02 -0.79499891424E+03  0.79863826844E+03  0.47000000000E+01 0.  1.
         13    1    4    4    0    0  0.18386863625E+02 -0.58631129125E+01 -0.44376669430E+03  0.44418614546E+03  0.00000000000E+00 0. -1.
        -14    1    4    4    0    0 -0.65028051791E+01 -0.50978692480E+02 -0.17643768228E+03  0.18376988134E+03  0.00000000000E+00 0.  1.
</event>
<event>
12    1  0.8461994E-002  0.2837240E+03  0.7818608E-02  0.1093772E+00
         21   -1    0    0  503  502  0.00000000000E+00  0.00000000000E+00  0.68218242115E+02  0.68218242115E+02  0.00000000000E+00 0.  1.
         21   -1    0    0  501  503 -0.00000000000E+00 -0.00000000000E+00 -0.19307521057E+04  0.19307521057E+04  0.00000000000E+00 0.  1.
          6    2    1    2  501    0  0.22260981002E+03  0.32586715215E+02 -0.15565218315E+04  0.15821692428E+04  0.17286491648E+03 0.  0.
         24    2    3    3    0    0  0.84602939301E+02 -0.33259702395E+02 -0.49042041001E+03  0.50514743336E+03  0.79986784728E+02 0.  0.
         -6    2    1    2    0  502 -0.22260981002E+03 -0.32586715215E+02 -0.30601203212E+03  0.41680110506E+03  0.17164724249E+03 0.  0.
        -24    2    5    5    0    0 -0.39640549898E+02  0.10219771981E+02 -0.13933631894E+03  0.16557803912E+03  0.79534019943E+02 0.  0.
          5    1    3    3  501    0  0.13800687072E+03  0.65846417610E+02 -0.10661014215E+04  0.10770218094E+04  0.47000000000E+01 0. -1.
        -13    1    4    4    0    0  0.85876915498E+02 -0.52766383885E+02 -0.42946761882E+03  0.44113668120E+03  0.00000000000E+00 0.  1.
         14    1    4    4    0    0 -0.12739761973E+01  0.19506681489E+02 -0.60952791189E+02  0.64010752157E+02  0.00000000000E+00 0. -1.
         -5    1    5    5    0  502 -0.18296926013E+03 -0.42806487196E+02 -0.16667571318E+03  0.25122306594E+03  0.47000000000E+01 0.  1.
         13    1    6    6    0    0  0.17497075518E+01 -0.23282099983E+02 -0.90023907742E+02  0.93002266753E+02  0.00000000000E+00 0. -1.
        -14    1    6    6    0    0 -0.41390257450E+02  0.33501871963E+02 -0.49312411199E+02  0.72575772370E+02  0.00000000000E+00 0.  1.
</event>
<event>
12    1  0.8461994E-002  0.1905944E+03  0.7818608E-02  0.1158508E+00
         21   -1    0    0  503  502  0.00000000000E+00  0.00000000000E+00  0.84822845713E+02  0.84822845713E+02  0.00000000000E+00 0. -1.
         21   -1    0    0  501  503 -0.00000000000E+00 -0.00000000000E+00 -0.42623534635E+03  0.42623534635E+03  0.00000000000E+00 0. -1.
          6    2    1    2  501    0 -0.74667107250E+02 -0.14158191539E+02 -0.19347765470E+03  0.26978874006E+03  0.17197886528E+03 0.  0.
         24    2    3    3    0    0  0.18976619757E+02 -0.25415180827E+02 -0.55361061619E+02  0.10247421379E+03  0.80187741179E+02 0.  0.
         -6    2    1    2    0  502  0.74667107250E+02  0.14158191539E+02 -0.14793484594E+03  0.24126945201E+03  0.17478729512E+03 0.  0.
        -24    2    5    5    0    0 -0.75374339194E+01 -0.29195951534E+02 -0.25761822808E+02  0.87693718597E+02  0.78213171979E+02 0.  0.
          5    1    3    3  501    0 -0.93643727007E+02  0.11256989287E+02 -0.13811659308E+03  0.16731452627E+03  0.47000000000E+01 0. -1.
        -11    1    4    4    0    0 -0.28277375818E+02 -0.12923500121E+02 -0.41146673830E+02  0.51572042870E+02  0.00000000000E+00 0.  1.
         12    1    4    4    0    0  0.47253995575E+02 -0.12491680705E+02 -0.14214387789E+02  0.50902170925E+02  0.00000000000E+00 0. -1.
         -5    1    5    5    0  502  0.82204541170E+02  0.43354143073E+02 -0.12217302313E+03  0.15357573341E+03  0.47000000000E+01 0.  1.
         13    1    6    6    0    0  0.31116447015E+01 -0.48817714372E+02 -0.38265423599E+02  0.62105508713E+02  0.00000000000E+00 0. -1.
        -14    1    6    6    0    0 -0.10649078621E+02  0.19621762838E+02  0.12503600791E+02  0.25588209884E+02  0.00000000000E+00 0.  1.
</event>
<event>
12    1  0.8461994E-002  0.1820777E+03  0.7818608E-02  0.1165887E+00
         21   -1    0    0  501  502  0.00000000000E+00  0.00000000000E+00  0.10103026254E+03  0.10103026254E+03  0.00000000000E+00 0.  1.
         21   -1    0    0  502  503 -0.00000000000E+00 -0.00000000000E+00 -0.58692734884E+03  0.58692734884E+03  0.00000000000E+00 0.  1.
         -6    2    1    2    0  503 -0.15644178258E+02  0.57228703936E+02 -0.47149682799E+03  0.50531138470E+03  0.17178612237E+03 0.  0.
        -24    2    3    3    0    0  0.11773089562E+02 -0.18746514499E+02 -0.34785780500E+03  0.35755266789E+03  0.79679485224E+02 0.  0.
          6    2    1    2  501    0  0.15644178258E+02 -0.57228703936E+02 -0.14400258310E+02  0.18264622668E+03  0.17214067449E+03 0.  0.
         24    2    5    5    0    0  0.10765361137E+02  0.32254679789E+02 -0.29420836863E+02  0.91658389038E+02  0.79871254344E+02 0.  0.
          5    1    5    5  501    0  0.48788171208E+01 -0.89483383725E+02  0.15020578554E+02  0.90987837646E+02  0.47000000000E+01 0. -1.
        -13    1    6    6    0    0  0.25766234555E+02 -0.19073685664E+02 -0.35505394242E+01  0.32253847183E+02  0.00000000000E+00 0.  1.
         14    1    6    6    0    0 -0.15000873417E+02  0.51328365453E+02 -0.25870297439E+02  0.59404541854E+02  0.00000000000E+00 0. -1.
         -5    1    3    3    0  503 -0.27417267820E+02  0.75975218435E+02 -0.12363902299E+03  0.14775871682E+03  0.47000000000E+01 0.  1.
         11    1    4    4    0    0 -0.11357491958E+02 -0.24344135183E+02 -0.36673038891E+02  0.45459227038E+02  0.00000000000E+00 0. -1.
        -12    1    4    4    0    0  0.23130581520E+02  0.55976206843E+01 -0.31118476611E+03  0.31209344085E+03  0.00000000000E+00 0.  1.
</event>
<event>
12    1  0.8461994E-002  0.1847572E+03  0.7818608E-02  0.1163313E+00
         21   -1    0    0  503  502  0.00000000000E+00  0.00000000000E+00  0.47399995885E+02  0.47399995885E+02  0.00000000000E+00 0.  1.
         21   -1    0    0  501  503 -0.00000000000E+00 -0.00000000000E+00 -0.18582598923E+04  0.18582598923E+04  0.00000000000E+00 0.  1.
          6    2    1    2  501    0  0.62264379742E+02 -0.26710952947E+02 -0.16511630942E+04  0.16614503745E+04  0.17171911749E+03 0.  0.
         24    2    3    3    0    0  0.61072159191E+02 -0.57806409861E+02 -0.69376786339E+03  0.70353802632E+03  0.81120383117E+02 0.  0.
         -6    2    1    2    0  502 -0.62264379742E+02  0.26710952947E+02 -0.15969680221E+03  0.24420951367E+03  0.17188627037E+03 0.  0.
        -24    2    5    5    0    0  0.26521073479E+02 -0.95486001082E+01 -0.49035243620E+02  0.97697799326E+02  0.79660917479E+02 0.  0.
          5    1    3    3  501    0  0.11922205514E+01  0.31095456914E+02 -0.95739523083E+03  0.95791234821E+03  0.47000000000E+01 0. -1.
        -11    1    4    4    0    0  0.14257560601E+02 -0.67444416826E+02 -0.42459059791E+03  0.43015021007E+03  0.00000000000E+00 0.  1.
         12    1    4    4    0    0  0.46814598590E+02  0.96380069649E+01 -0.26917726548E+03  0.27338781625E+03  0.00000000000E+00 0. -1.
         -5    1    5    5    0  502 -0.88785453222E+02  0.36259553056E+02 -0.11066155859E+03  0.14651171435E+03  0.47000000000E+01 0.  1.
         13    1    6    6    0    0  0.50538447398E+01 -0.32943525149E+02 -0.56022063636E+02  0.65186569245E+02  0.00000000000E+00 0. -1.
        -14    1    6    6    0    0  0.21467228740E+02  0.23394925041E+02  0.69868200161E+01  0.32511230080E+02  0.00000000000E+00 0.  1.
</event>
<event>
12    1  0.8461994E-002  0.1900363E+03  0.7818608E-02  0.1158624E+00
         21   -1    0    0  503  502  0.00000000000E+00  0.00000000000E+00  0.98351958334E+02  0.98351958334E+02  0.00000000000E+00 0. -1.
         21   -1    0    0  501  503 -0.00000000000E+00 -0.00000000000E+00 -0.39024320490E+03  0.39024320490E+03  0.00000000000E+00 0. -1.
          6    2    1    2  501    0 -0.24109867997E+02  0.76177522740E+02 -0.20774103396E+03  0.28154954586E+03  0.17242247207E+03 0.  0.
         24    2    3    3    0    0  0.36557439351E+02  0.79158848957E+02 -0.17886012101E+03  0.21412842439E+03  0.79104168682E+02 0.  0.
         -6    2    1    2    0  502  0.24109867997E+02 -0.76177522740E+02 -0.84150212601E+02  0.20704561738E+03  0.17147107245E+03 0.  0.
        -24    2    5    5    0    0  0.73967221910E+02 -0.45083073479E+02 -0.84316993673E+02  0.14809870626E+03  0.85558389083E+02 0.  0.
          5    1    3    3  501    0 -0.60667307348E+02 -0.29813262172E+01 -0.28880912950E+02  0.67421121466E+02  0.47000000000E+01 0. -1.
        -11    1    4    4    0    0  0.74359897892E+00 -0.11794748679E+02 -0.55448402637E+02  0.56693865548E+02  0.00000000000E+00 0.  1.
         12    1    4    4    0    0  0.35813840373E+02  0.90953597636E+02 -0.12341171838E+03  0.15743455884E+03  0.00000000000E+00 0. -1.
         -5    1    5    5    0  502 -0.49857353913E+02 -0.31094449261E+02  0.16678107176E+00  0.58946911115E+02  0.47000000000E+01 0.  1.
         13    1    6    6    0    0 -0.11083202269E+01 -0.42980612080E+02 -0.14007226708E+02  0.45219064436E+02  0.00000000000E+00 0. -1.
        -14    1    6    6    0    0  0.75075542137E+02 -0.21024613989E+01 -0.70309766965E+02  0.10287964182E+03  0.00000000000E+00 0.  1.
</event>
<event>
12    1  0.8461994E-002  0.2851969E+03  0.7818608E-02  0.1093475E+00
         21   -1    0    0  501  502  0.00000000000E+00  0.00000000000E+00  0.56263527402E+03  0.56263527402E+03  0.00000000000E+00 0.  1.
         21   -1    0    0  502  503 -0.00000000000E+00 -0.00000000000E+00 -0.19261729287E+03  0.19261729287E+03  0.00000000000E+00 0.  1.
         -6    2    1    2    0  503 -0.21818385186E+03  0.66565448037E+02 -0.68430077488E+01  0.28527897369E+03  0.17117860260E+03 0.  0.
        -24    2    3    3    0    0 -0.11904818819E+03  0.54607421628E+02  0.59735012520E+02  0.16517236692E+03  0.80988872475E+02 0.  0.
          6    2    1    2  501    0  0.21818385186E+03 -0.66565448037E+02  0.37686098890E+03  0.46997359321E+03  0.16375537024E+03 0.  0.
         24    2    5    5    0    0  0.15327076338E+03  0.15483544094E+02  0.25570003832E+03  0.30982425007E+03  0.82927011810E+02 0.  0.
          5    1    5    5  501    0  0.64913088473E+02 -0.82048992131E+02  0.12116095058E+03  0.16014934315E+03  0.47000000000E+01 0. -1.
        -11    1    6    6    0    0  0.44946546065E+02  0.32513319085E+02  0.13914548422E+03  0.14979577331E+03  0.00000000000E+00 0.  1.
         12    1    6    6    0    0  0.10832421732E+03 -0.17029774991E+02  0.11655455410E+03  0.16002847676E+03  0.00000000000E+00 0. -1.
         -5    1    3    3    0  503 -0.99135663669E+02  0.11958026410E+02 -0.66578020269E+02  0.12010660677E+03  0.47000000000E+01 0.  1.
         11    1    4    4    0    0  0.39533663267E+01  0.43992294330E+01 -0.12587911273E+02  0.13908193094E+02  0.00000000000E+00 0. -1.
        -12    1    4    4    0    0 -0.12300155451E+03  0.50208192195E+02  0.72322923793E+02  0.15126417382E+03  0.00000000000E+00 0.  1.
</event>
<event>
12    1  0.8461994E-002  0.2292167E+03  0.7818608E-02  0.1127615E+00
         21   -1    0    0  501  502  0.00000000000E+00  0.00000000000E+00  0.15405021632E+03  0.15405021632E+03  0.00000000000E+00 0. -1.
         21   -1    0    0  502  503 -0.00000000000E+00 -0.00000000000E+00 -0.36536063973E+03  0.36536063973E+03  0.00000000000E+00 0. -1.
         -6    2    1    2    0  503  0.15129076949E+03 -0.33354609920E+01 -0.17783521361E+03  0.29011315479E+03  0.17216346055E+03 0.  0.
        -24    2    3    3    0    0  0.13499751439E+03 -0.46930502944E+02 -0.18132177221E+03  0.24320639690E+03  0.76452373535E+02 0.  0.
          6    2    1    2  501    0 -0.15129076949E+03  0.33354609920E+01 -0.33475209797E+02  0.22929770126E+03  0.16898764422E+03 0.  0.
         24    2    5    5    0    0 -0.73476001499E+02  0.60692079295E+02 -0.42702116042E+02  0.13207555574E+03  0.80859324907E+02 0.  0.
          5    1    5    5  501    0 -0.77814767988E+02 -0.57356618303E+02  0.92269062446E+01  0.97222145517E+02  0.47000000000E+01 0. -1.
        -13    1    6    6    0    0 -0.36122876868E+02 -0.60926726434E+00 -0.48020916391E+02  0.60093609068E+02  0.00000000000E+00 0.  1.
         14    1    6    6    0    0 -0.37353124632E+02  0.61301346559E+02  0.53188003488E+01  0.71981946673E+02  0.00000000000E+00 0. -1.
         -5    1    3    3    0  503  0.16293255094E+02  0.43595041952E+02  0.34865585951E+01  0.46906757885E+02  0.47000000000E+01 0.  1.
         13    1    4    4    0    0  0.39315196703E+02  0.90774217751E+01 -0.93276574279E+02  0.10162973771E+03  0.00000000000E+00 0. -1.
        -14    1    4    4    0    0  0.95682317690E+02 -0.56007924719E+02 -0.88045197930E+02  0.14157665919E+03  0.00000000000E+00 0.  1.
</event>
<event>
12    1  0.8461994E-002  0.2283169E+03  0.7818608E-02  0.1128855E+00
         21   -1    0    0  501  502  0.00000000000E+00  0.00000000000E+00  0.19053457525E+03  0.19053457525E+03  0.00000000000E+00 0.  1.
         21   -1    0    0  502  503 -0.00000000000E+00 -0.00000000000E+00 -0.29228449216E+03  0.29228449216E+03  0.00000000000E+00 0.  1.
         -6    2    1    2    0  503 -0.68860226414E+02 -0.12256669059E+03  0.20974576959E+02  0.22360891240E+03  0.17261717297E+03 0.  0.
        -24    2    3    3    0    0 -0.27771330884E+02 -0.66195084825E+02 -0.54442504574E+02  0.12076980768E+03  0.80425891784E+02 0.  0.
          6    2    1    2  501    0  0.68860226414E+02  0.12256669059E+03 -0.12272449387E+03  0.25921015500E+03  0.17990074662E+03 0.  0.
         24    2    5    5    0    0 -0.25048564308E+02  0.29652624665E+02 -0.90149446919E+02  0.12306645039E+03  0.74240957081E+02 0.  0.
          5    1    5    5  501    0  0.93908790722E+02  0.92914065927E+02 -0.32575046955E+02  0.13614370461E+03  0.47000000000E+01 0. -1.
        -13    1    6    6    0    0  0.22205707224E+01  0.35484273979E+02 -0.88219079564E+02  0.95113987580E+02  0.00000000000E+00 0.  1.
         14    1    6    6    0    0 -0.27269135030E+02 -0.58316493138E+01 -0.19303673547E+01  0.27952462810E+02  0.00000000000E+00 0. -1.
         -5    1    3    3    0  503 -0.41088895530E+02 -0.56371605767E+02  0.75417081533E+02  0.10283910472E+03  0.47000000000E+01 0.  1.
         11    1    4    4    0    0  0.16034424516E+02 -0.23415257018E+02  0.11646882856E+02  0.30676161935E+02  0.00000000000E+00 0. -1.
        -12    1    4    4    0    0 -0.43805755400E+02 -0.42779827807E+02 -0.66089387429E+02  0.90093645748E+02  0.00000000000E+00 0.  1.
</event>
<event>
12    1  0.8461994E-002  0.4008603E+03  0.7818608E-02  0.1043563E+00
         21   -1    0    0  503  502  0.00000000000E+00  0.00000000000E+00  0.63517476482E+03  0.63517476482E+03  0.00000000000E+00 0. -1.
         21   -1    0    0  501  503 -0.00000000000E+00 -0.00000000000E+00 -0.30390728599E+03  0.30390728599E+03  0.00000000000E+00 0. -1.
          6    2    1    2  501    0  0.23716227997E+03 -0.27354373020E+03 -0.27519269023E+02  0.40180375813E+03  0.17209541105E+03 0.  0.
         24    2    3    3    0    0  0.11231352795E+03 -0.23114066909E+03 -0.13950169622E+02  0.26917102864E+03  0.78854917146E+02 0.  0.
         -6    2    1    2    0  502 -0.23716227997E+03  0.27354373020E+03  0.35878674785E+03  0.53727829268E+03  0.16990560312E+03 0.  0.
        -24    2    5    5    0    0 -0.10223628518E+03  0.19149967734E+03  0.27102665556E+03  0.35655703084E+03  0.80951119752E+02 0.  0.
          5    1    3    3  501    0  0.12484875202E+03 -0.42403061104E+02 -0.13569099401E+02  0.13263272948E+03  0.47000000000E+01 0. -1.
        -13    1    4    4    0    0  0.42397048216E+01  0.48458880601E+01  0.60629708206E+01  0.88440569444E+01  0.00000000000E+00 0.  1.
         14    1    4    4    0    0  0.10807382313E+03 -0.23598655715E+03 -0.20013140443E+02  0.26032697170E+03  0.00000000000E+00 0. -1.
         -5    1    5    5    0  502 -0.13492599479E+03  0.82044052856E+02  0.87760092293E+02  0.18072126183E+03  0.47000000000E+01 0.  1.
         11    1    6    6    0    0 -0.69917970632E+02  0.60345136116E+02  0.77584724840E+02  0.12062109102E+03  0.00000000000E+00 0. -1.
        -12    1    6    6    0    0 -0.32318314552E+02  0.13115454123E+03  0.19344193072E+03  0.23593593982E+03  0.00000000000E+00 0.  1.
</event>
<event>
12    1  0.8461994E-002  0.1952889E+03  0.7818608E-02  0.1154901E+00
         21   -1    0    0  501  502  0.00000000000E+00  0.00000000000E+00  0.44331024893E+03  0.44331024893E+03  0.00000000000E+00 0.  1.
         21   -1    0    0  502  503 -0.00000000000E+00 -0.00000000000E+00 -0.22744209105E+03  0.22744209105E+03  0.00000000000E+00 0.  1.
         -6    2    1    2    0  503  0.69000795578E+02  0.49019456943E+02 -0.15910921995E+03  0.24796895601E+03  0.17031982363E+03 0.  0.
        -24    2    3    3    0    0  0.17100841989E+02 -0.37559626826E+02 -0.87768912768E+02  0.12427145257E+03  0.77697152523E+02 0.  0.
          6    2    1    2  501    0 -0.69000795578E+02 -0.49019456943E+02  0.37497737783E+03  0.42278338398E+03  0.17599357639E+03 0.  0.
         24    2    5    5    0    0 -0.76848489109E+02  0.21666843770E+02  0.25435743822E+03  0.28267842605E+03  0.93990657950E+02 0.  0.
          5    1    5    5  501    0  0.78476935315E+01 -0.70686300713E+02  0.12061993962E+03  0.14010495793E+03  0.47000000000E+01 0. -1.
        -11    1    6    6    0    0 -0.52708364294E+02  0.12821056859E+02  0.41566017004E+02  0.68339482988E+02  0.00000000000E+00 0.  1.
         12    1    6    6    0    0 -0.24140124815E+02  0.88457869107E+01  0.21279142121E+03  0.21433894306E+03  0.00000000000E+00 0. -1.
         -5    1    3    3    0  503  0.51899953589E+02  0.86579083770E+02 -0.71340307180E+02  0.12369750344E+03  0.47000000000E+01 0.  1.
         13    1    4    4    0    0 -0.54151243065E+01  0.20368540953E+02 -0.42315500743E+02  0.47273699188E+02  0.00000000000E+00 0. -1.
        -14    1    4    4    0    0  0.22515966295E+02 -0.57928167779E+02 -0.45453412025E+02  0.76997753378E+02  0.00000000000E+00 0.  1.
</event>
<event>
12    1  0.8461994E-002  0.2308501E+03  0.7818608E-02  0.1126297E+00
         21   -1    0    0  501  502  0.00000000000E+00  0.00000000000E+00  0.23268737273E+03  0.23268737273E+03  0.00000000000E+00 0. -1.
         21   -1    0    0  502  503 -0.00000000000E+00 -0.00000000000E+00 -0.67119713389E+03  0.67119713389E+03  0.00000000000E+00 0.  1.
         -6    2    1    2    0  503 -0.15212938860E+03 -0.15427652004E+02 -0.58643361230E+03  0.62970711137E+03  0.17101257601E+03 0.  0.
        -24    2    3    3    0    0 -0.71724210864E+02 -0.64646536554E+02 -0.42111901695E+03  0.43934299542E+03  0.79733958155E+02 0.  0.
          6    2    1    2  501    0  0.15212938860E+03  0.15427652004E+02  0.14792385114E+03  0.27417739525E+03  0.17294627781E+03 0.  0.
         24    2    5    5    0    0  0.96532601736E+02  0.13743041032E+02  0.10733345960E+02  0.12606539258E+03  0.79182473536E+02 0.  0.
          5    1    5    5  501    0  0.55596786860E+02  0.16846109722E+01  0.13719050518E+03  0.14811200267E+03  0.47000000000E+01 0. -1.
        -13    1    6    6    0    0  0.10897339329E+03  0.14207545045E+02  0.41608311578E+00  0.10989644174E+03  0.00000000000E+00 0.  1.
         14    1    6    6    0    0 -0.12440791557E+02 -0.46450401336E+00  0.10317262844E+02  0.16168950836E+02  0.00000000000E+00 0. -1.
         -5    1    3    3    0  503 -0.80405177731E+02  0.49218884550E+02 -0.16531459536E+03  0.19036411595E+03  0.47000000000E+01 0.  1.
         11    1    4    4    0    0 -0.17963809697E+01 -0.11265270814E+02 -0.26297530567E+01  0.11706789151E+02  0.00000000000E+00 0. -1.
        -12    1    4    4    0    0 -0.69927829894E+02 -0.53381265741E+02 -0.41848926389E+03  0.42763620627E+03  0.00000000000E+00 0.  1.
</event>
<event>
12    1  0.8461994E-002  0.2263348E+03  0.7818608E-02  0.1130767E+00
         21   -1    0    0  501  502  0.00000000000E+00  0.00000000000E+00  0.21262798650E+03  0.21262798650E+03  0.00000000000E+00 0.  1.
         21   -1    0    0  502  503 -0.00000000000E+00 -0.00000000000E+00 -0.32865347945E+03  0.32865347945E+03  0.00000000000E+00 0.  1.
         -6    2    1    2    0  503  0.12600148516E+03 -0.44310487377E+02 -0.20539546862E+03  0.30563826372E+03  0.18272289448E+03 0.  0.
        -24    2    3    3    0    0  0.11097030314E+03 -0.98115508918E+02 -0.13864935200E+03  0.21847146466E+03  0.81025161457E+02 0.  0.
          6    2    1    2  501    0 -0.12600148516E+03  0.44310487377E+02  0.89369975666E+02  0.23564320222E+03  0.17233958526E+03 0.  0.
         24    2    5    5    0    0 -0.12015805450E+02  0.16447448420E+02 -0.89776371894E+01  0.82465439237E+02  0.79404361082E+02 0.  0.
          5    1    5    5  501    0 -0.11398567971E+03  0.27863038957E+02  0.98347612856E+02  0.15317776299E+03  0.47000000000E+01 0. -1.
        -13    1    6    6    0    0 -0.44541395279E+02  0.15240163286E+02 -0.14909999252E+02  0.49381236802E+02  0.00000000000E+00 0.  1.
         14    1    6    6    0    0  0.32525589829E+02  0.12072851336E+01  0.59323620621E+01  0.33084202435E+02  0.00000000000E+00 0. -1.
         -5    1    3    3    0  503  0.15031182023E+02  0.53805021541E+02 -0.66746116614E+02  0.87166799064E+02  0.47000000000E+01 0.  1.
         11    1    4    4    0    0 -0.46054684170E+01 -0.19885178033E+02  0.17765437146E+01  0.20488698160E+02  0.00000000000E+00 0. -1.
        -12    1    4    4    0    0  0.11557577156E+03 -0.78230330885E+02 -0.14042589572E+03  0.19798276650E+03  0.00000000000E+00 0.  1.
</event>
<event>
12    1  0.8461994E-002  0.1843057E+03  0.7818608E-02  0.1163868E+00
         21   -1    0    0  501  502  0.00000000000E+00  0.00000000000E+00  0.24537723830E+03  0.24537723830E+03  0.00000000000E+00 0.  1.
         21   -1    0    0  502  503 -0.00000000000E+00 -0.00000000000E+00 -0.15253022318E+03  0.15253022318E+03  0.00000000000E+00 0.  1.
         -6    2    1    2    0  503  0.58862129845E+02 -0.24445449104E+02 -0.15283186858E+02  0.18422371440E+03  0.17216988946E+03 0.  0.
        -24    2    3    3    0    0  0.14181302164E+02 -0.69750963559E+02  0.22707207876E+02  0.10996520584E+03  0.80687192026E+02 0.  0.
          6    2    1    2  501    0 -0.58862129845E+02  0.24445449104E+02  0.10813020198E+03  0.21368374707E+03  0.17293430218E+03 0.  0.
         24    2    5    5    0    0 -0.32156080183E+02 -0.13357214335E+02 -0.94347080723E+01  0.87248575832E+02  0.79440994460E+02 0.  0.
          5    1    5    5  501    0 -0.26706049662E+02  0.37802663439E+02  0.11756491005E+03  0.12643517124E+03  0.47000000000E+01 0. -1.
        -13    1    6    6    0    0 -0.58033505245E+02 -0.75211082164E+01 -0.14390478928E+02  0.60262265835E+02  0.00000000000E+00 0.  1.
         14    1    6    6    0    0  0.25877425062E+02 -0.58361061182E+01  0.49557708559E+01  0.26986309997E+02  0.00000000000E+00 0. -1.
         -5    1    3    3    0  503  0.44680827680E+02  0.45305514455E+02 -0.37990394734E+02  0.74258508565E+02  0.47000000000E+01 0.  1.
         13    1    4    4    0    0 -0.41708921547E+01 -0.53965922868E+02  0.49857953699E+02  0.73590303161E+02  0.00000000000E+00 0. -1.
        -14    1    4    4    0    0  0.18352194319E+02 -0.15785040691E+02 -0.27150745824E+02  0.36374902677E+02  0.00000000000E+00 0.  1.
</event>
<event>
12    1  0.8461994E-002  0.2262933E+03  0.7818608E-02  0.1129318E+00
         21   -1    0    0  501  502  0.00000000000E+00  0.00000000000E+00  0.21588323277E+03  0.21588323277E+03  0.00000000000E+00 0. -1.
         21   -1    0    0  502  503 -0.00000000000E+00 -0.00000000000E+00 -0.24627949212E+03  0.24627949212E+03  0.00000000000E+00 0. -1.
         -6    2    1    2    0  503 -0.14333797126E+03  0.31178798909E+02 -0.60142237065E+02  0.23392271231E+03  0.17200248587E+03 0.  0.
        -24    2    3    3    0    0 -0.76241991379E+02  0.84640132656E+02 -0.41966800710E+02  0.14610232054E+03  0.81288882396E+02 0.  0.
          6    2    1    2  501    0  0.14333797126E+03 -0.31178798909E+02  0.29745977708E+02  0.22824001258E+03  0.17231015248E+03 0.  0.
         24    2    5    5    0    0  0.67672250861E+02  0.13485180245E+01 -0.47926550312E+02  0.11493317608E+03  0.79569646855E+02 0.  0.
          5    1    5    5  501    0  0.75665720400E+02 -0.32527316933E+02  0.77672528019E+02  0.11330683651E+03  0.47000000000E+01 0. -1.
        -13    1    6    6    0    0 -0.17809948097E+02 -0.54615637223E+01 -0.10323821544E+02  0.21297986308E+02  0.00000000000E+00 0.  1.
         14    1    6    6    0    0  0.85482198958E+02  0.68100817469E+01 -0.37602728768E+02  0.93635189768E+02  0.00000000000E+00 0. -1.
         -5    1    3    3    0  503 -0.67095979881E+02 -0.53461333747E+02 -0.18175436355E+02  0.87820391760E+02  0.47000000000E+01 0.  1.
         13    1    4    4    0    0 -0.88895577828E+02  0.69524168504E+02 -0.51682093572E+02  0.12412522934E+03  0.00000000000E+00 0. -1.
        -14    1    4    4    0    0  0.12653586449E+02  0.15115964152E+02  0.97152928622E+01  0.21977091201E+02  0.00000000000E+00 0.  1.
</event>
<event>
12    1  0.8461994E-002  0.2669975E+03  0.7818608E-02  0.1103248E+00
         21   -1    0    0  503  502  0.00000000000E+00  0.00000000000E+00  0.26127551921E+03  0.26127551921E+03  0.00000000000E+00 0.  1.
         21   -1    0    0  501  503 -0.00000000000E+00 -0.00000000000E+00 -0.30054247173E+03  0.30054247173E+03  0.00000000000E+00 0. -1.
          6    2    1    2  501    0 -0.37088366561E+02  0.20027960451E+03 -0.10748665632E+03  0.28782116749E+03  0.17262727552E+03 0.  0.
         24    2    3    3    0    0  0.96136574102E+01  0.54013696024E+02  0.69677356843E+01  0.96257358600E+02  0.78784693800E+02 0.  0.
         -6    2    1    2    0  502  0.37088366561E+02 -0.20027960451E+03  0.68219703797E+02  0.27399682344E+03  0.17009663240E+03 0.  0.
        -24    2    5    5    0    0  0.44635935314E+02 -0.19883477012E+03  0.10056917308E+03  0.24041659856E+03  0.78475153756E+02 0.  0.
          5    1    3    3  501    0 -0.46702023971E+02  0.14626590849E+03 -0.11445439201E+03  0.19156380889E+03  0.47000000000E+01 0. -1.
        -11    1    4    4    0    0  0.44463766793E+02  0.29842411994E+02  0.53161659851E+01  0.53813174333E+02  0.00000000000E+00 0.  1.
         12    1    4    4    0    0 -0.34850109382E+02  0.24171284030E+02  0.16515696992E+01  0.42444184267E+02  0.00000000000E+00 0. -1.
         -5    1    5    5    0  502 -0.75475687533E+01 -0.14448343893E+01 -0.32349469284E+02  0.33580224887E+02  0.47000000000E+01 0.  1.
         13    1    6    6    0    0 -0.20304114320E+02 -0.64005019609E+02  0.18104465541E+02  0.69546180815E+02  0.00000000000E+00 0. -1.
        -14    1    6    6    0    0  0.64940049634E+02 -0.13482975051E+03  0.82464707540E+02  0.17087041774E+03  0.00000000000E+00 0.  1.
</event>
<event>
12    1  0.8461994E-002  0.2045501E+03  0.7818608E-02  0.1146285E+00
         21   -1    0    0  501  502  0.00000000000E+00  0.00000000000E+00  0.75378321356E+02  0.75378321356E+02  0.00000000000E+00 0. -1.
         21   -1    0    0  502  503 -0.00000000000E+00 -0.00000000000E+00 -0.92795779437E+03  0.92795779437E+03  0.00000000000E+00 0. -1.
         -6    2    1    2    0  503  0.85247864084E+02 -0.67590463378E+02 -0.74713114571E+03  0.77462617599E+03  0.17321978688E+03 0.  0.
        -24    2    3    3    0    0 -0.17073357871E+02 -0.47001397144E+02 -0.44622463299E+03  0.45609774475E+03  0.80050601473E+02 0.  0.
          6    2    1    2  501    0 -0.85247864084E+02  0.67590463378E+02 -0.10544832730E+03  0.22870993973E+03  0.17132780782E+03 0.  0.
         24    2    5    5    0    0 -0.83258293207E+02 -0.87583398116E+01 -0.21270070746E+02  0.11495068948E+03  0.75845851563E+02 0.  0.
          5    1    5    5  501    0 -0.19895708775E+01  0.76348803190E+02 -0.84178256555E+02  0.11375925025E+03  0.47000000000E+01 0. -1.
        -11    1    6    6    0    0 -0.56298589114E+02 -0.58621139214E+01 -0.49943715213E+02  0.75486887638E+02  0.00000000000E+00 0.  1.
         12    1    6    6    0    0 -0.26959704092E+02 -0.28962258901E+01  0.28673644467E+02  0.39463801847E+02  0.00000000000E+00 0. -1.
         -5    1    3    3    0  503  0.10232122196E+03 -0.20589066234E+02 -0.30090651272E+03  0.31852843124E+03  0.47000000000E+01 0.  1.
         11    1    4    4    0    0  0.28743266618E+02 -0.26132478465E+02 -0.27147604254E+03  0.27424135990E+03  0.00000000000E+00 0. -1.
        -12    1    4    4    0    0 -0.45816624489E+02 -0.20868918679E+02 -0.17474859046E+03  0.18185638486E+03  0.00000000000E+00 0.  1.
</event>
<event>
12    1  0.8461994E-002  0.2018108E+03  0.7818608E-02  0.1150698E+00
         21   -1    0    0  501  502  0.00000000000E+00  0.00000000000E+00  0.18287567468E+03  0.18287567468E+03  0.00000000000E+00 0.  1.
         21   -1    0    0  502  503 -0.00000000000E+00 -0.00000000000E+00 -0.27631182134E+03  0.27631182134E+03  0.00000000000E+00 0. -1.
         -6    2    1    2    0  503  0.10527484711E+03 -0.21874252282E+02 -0.16004771515E+03  0.25757110376E+03  0.17078151547E+03 0.  0.
        -24    2    3    3    0    0  0.85161955237E+02  0.60448336967E+01 -0.26582420116E+02  0.11966142767E+03  0.79518133654E+02 0.  0.
          6    2    1    2  501    0 -0.10527484711E+03  0.21874252282E+02  0.66611568493E+02  0.20161639225E+03  0.15700570761E+03 0.  0.
         24    2    5    5    0    0 -0.92374971321E+02  0.67559088629E+02  0.56549276671E+02  0.15286343558E+03  0.84095442581E+02 0.  0.
          5    1    5    5  501    0 -0.12899875784E+02 -0.45684836347E+02  0.10062291822E+02  0.48752956670E+02  0.47000000000E+01 0. -1.
        -13    1    6    6    0    0 -0.71602762138E+02  0.34584928171E+02  0.75391217242E+02  0.10957603953E+03  0.00000000000E+00 0.  1.
         14    1    6    6    0    0 -0.20772209183E+02  0.32974160459E+02 -0.18841940571E+02  0.43287396050E+02  0.00000000000E+00 0. -1.
         -5    1    3    3    0  503  0.20112891868E+02 -0.27919085979E+02 -0.13346529503E+03  0.13790967609E+03  0.47000000000E+01 0.  1.
         11    1    4    4    0    0  0.68602753238E+02 -0.22440698804E+02 -0.41754841280E+02  0.83386986305E+02  0.00000000000E+00 0. -1.
        -12    1    4    4    0    0  0.16559201999E+02  0.28485532501E+02  0.15172421164E+02  0.36274441370E+02  0.00000000000E+00 0.  1.
</event>
<event>
12    1  0.8461994E-002  0.2121104E+03  0.7818608E-02  0.1140074E+00
         21   -1    0    0  501  502  0.00000000000E+00  0.00000000000E+00  0.32956215241E+03  0.32956215241E+03  0.00000000000E+00 0.  1.
         21   -1    0    0  502  503 -0.00000000000E+00 -0.00000000000E+00 -0.16740641204E+03  0.16740641204E+03  0.00000000000E+00 0.  1.
         -6    2    1    2    0  503  0.96383355458E+02 -0.76643274859E+02 -0.26476832091E+02  0.21375651477E+03  0.17270460960E+03 0.  0.
        -24    2    3    3    0    0 -0.10579132767E+02 -0.43379269240E+02  0.22025196536E+02  0.91600856943E+02  0.76889067236E+02 0.  0.
          6    2    1    2  501    0 -0.96383355458E+02  0.76643274859E+02  0.18863257246E+03  0.28321204969E+03  0.17164753102E+03 0.  0.
         24    2    5    5    0    0 -0.97035514116E+02  0.81655775130E+02  0.21149832740E+03  0.25932725915E+03  0.80221744151E+02 0.  0.
          5    1    5    5  501    0  0.65215865834E+00 -0.50125002704E+01 -0.22865754942E+02  0.23884790536E+02  0.47000000000E+01 0. -1.
        -13    1    6    6    0    0 -0.94773224820E+01 -0.22976066277E+00  0.83192676316E+02  0.83731080394E+02  0.00000000000E+00 0.  1.
         14    1    6    6    0    0 -0.87558191634E+02  0.81885535793E+02  0.12830565108E+03  0.17559617876E+03  0.00000000000E+00 0. -1.
         -5    1    3    3    0  503  0.10696248823E+03 -0.33264005620E+02 -0.48502028627E+02  0.12215565782E+03  0.47000000000E+01 0.  1.
         13    1    4    4    0    0  0.15075441585E+02 -0.14975925874E+02  0.42994375396E+02  0.47958978413E+02  0.00000000000E+00 0. -1.
        -14    1    4    4    0    0 -0.25654574352E+02 -0.28403343366E+02 -0.20969178860E+02  0.43641878530E+02  0.00000000000E+00 0.  1.
</event>
<event>
12    1  0.8461994E-002  0.2898417E+03  0.7818608E-02  0.1090478E+00
         21   -1    0    0  501  502  0.00000000000E+00  0.00000000000E+00  0.62272455274E+03  0.62272455274E+03  0.00000000000E+00 0. -1.
         21   -1    0    0  502  503 -0.00000000000E+00 -0.00000000000E+00 -0.13601484164E+03  0.13601484164E+03  0.00000000000E+00 0. -1.
         -6    2    1    2    0  503  0.18078943424E+03  0.14626245763E+03  0.27995330128E+03  0.40271069375E+03  0.17240802161E+03 0.  0.
        -24    2    3    3    0    0  0.10064644372E+03  0.73255756245E+01  0.12875127199E+03  0.18223280421E+03  0.80302765837E+02 0.  0.
          6    2    1    2  501    0 -0.18078943424E+03 -0.14626245763E+03  0.20675640982E+03  0.35602870063E+03  0.17300490347E+03 0.  0.
         24    2    5    5    0    0 -0.71846138256E+02 -0.14555579853E+03  0.11925718213E+03  0.21621687727E+03  0.78607279924E+02 0.  0.
          5    1    5    5  501    0 -0.10894329599E+03 -0.70665910621E+00  0.87499227685E+02  0.13981182337E+03  0.47000000000E+01 0. -1.
        -13    1    6    6    0    0  0.80685167588E+01 -0.18141488144E+02  0.43491042466E+02  0.47808841541E+02  0.00000000000E+00 0.  1.
         14    1    6    6    0    0 -0.79914655015E+02 -0.12741431038E+03  0.75766139669E+02  0.16840803572E+03  0.00000000000E+00 0. -1.
         -5    1    3    3    0  503  0.80142990529E+02  0.13893688201E+03  0.15120202929E+03  0.22047788954E+03  0.47000000000E+01 0.  1.
         13    1    4    4    0    0  0.75122799990E+01  0.31349292195E+02  0.25322288373E+02  0.40993057465E+02  0.00000000000E+00 0. -1.
        -14    1    4    4    0    0  0.93134163716E+02 -0.24023716570E+02  0.10342898362E+03  0.14123974675E+03  0.00000000000E+00 0.  1.
</event>
<event>
12    1  0.8461994E-002  0.1904386E+03  0.7818608E-02  0.1159672E+00
         21   -1    0    0  501  502  0.00000000000E+00  0.00000000000E+00  0.36050151778E+03  0.36050151778E+03  0.00000000000E+00 0. -1.
         21   -1    0    0  502  503 -0.00000000000E+00 -0.00000000000E+00 -0.11393856344E+03  0.11393856344E+03  0.00000000000E+00 0. -1.
         -6    2    1    2    0  503 -0.48810171039E+02 -0.36582934202E+02  0.29696939827E+02  0.18582663005E+03  0.17299966569E+03 0.  0.
        -24    2    3    3    0    0 -0.30060559506E+02  0.29296411867E+01  0.82810122281E+02  0.11686365667E+03  0.76729250380E+02 0.  0.
          6    2    1    2  501    0  0.48810171039E+02  0.36582934202E+02  0.21686601451E+03  0.28861345117E+03  0.18040541033E+03 0.  0.
         24    2    5    5    0    0 -0.14368242082E+02  0.59170782706E+02  0.56323613441E+02  0.11455117690E+03  0.79006295890E+02 0.  0.
          5    1    5    5  501    0  0.63178413121E+02 -0.22587848505E+02  0.16054240107E+03  0.17406227428E+03  0.47000000000E+01 0. -1.
        -11    1    6    6    0    0 -0.10047996588E+02 -0.14702919083E+02 -0.49416666752E+01  0.18481291473E+02  0.00000000000E+00 0.  1.
         12    1    6    6    0    0 -0.43202454940E+01  0.73873701789E+02  0.61265280117E+02  0.96069885422E+02  0.00000000000E+00 0. -1.
         -5    1    3    3    0  503 -0.18749611533E+02 -0.39512575388E+02 -0.53113182454E+02  0.68962973376E+02  0.47000000000E+01 0.  1.
         13    1    4    4    0    0 -0.24870693763E+02  0.10912766274E+02 -0.57762883324E+01  0.27766983684E+02  0.00000000000E+00 0. -1.
        -14    1    4    4    0    0 -0.51898657422E+01 -0.79831250875E+01  0.88586410614E+02  0.89096672990E+02  0.00000000000E+00 0.  1.
</event>
<event>
12    1  0.8461994E-002  0.2879202E+03  0.7818608E-02  0.1091738E+00
         21   -1    0    0  501  502  0.00000000000E+00  0.00000000000E+00  0.13526725682E+04  0.13526725682E+04  0.00000000000E+00 0.  1.
         21   -1    0    0  502  503 -0.00000000000E+00 -0.00000000000E+00 -0.84060554964E+02  0.84060554964E+02  0.00000000000E+00 0.  1.
         -6    2    1    2    0  503 -0.76210075088E+02  0.21480794376E+03  0.25827495126E+03  0.38678674246E+03  0.17591931516E+03 0.  0.
        -24    2    3    3    0    0  0.14212097439E+02  0.45583523286E+02  0.51304612158E+02  0.10452465674E+03  0.77546110983E+02 0.  0.
          6    2    1    2  501    0  0.76210075088E+02 -0.21480794376E+03  0.10103370620E+04  0.10499463807E+04  0.17220916147E+03 0.  0.
         24    2    5    5    0    0  0.90949082927E+02 -0.22419320151E+03  0.82288942863E+03  0.86162743141E+03  0.81978604009E+02 0.  0.
          5    1    5    5  501    0 -0.14739007838E+02  0.93852577483E+01  0.18744763339E+03  0.18831894933E+03  0.47000000000E+01 0. -1.
        -11    1    6    6    0    0 -0.61778370439E+01 -0.52268855302E+02  0.11078119828E+03  0.12264857438E+03  0.00000000000E+00 0.  1.
         12    1    6    6    0    0  0.97126919971E+02 -0.17192434621E+03  0.71210823035E+03  0.73897885703E+03  0.00000000000E+00 0. -1.
         -5    1    3    3    0  503 -0.90422172527E+02  0.16922442048E+03  0.20697033910E+03  0.28226208573E+03  0.47000000000E+01 0.  1.
         11    1    4    4    0    0  0.31181938849E+02  0.52411110058E+02  0.13404546630E+02  0.62441329568E+02  0.00000000000E+00 0. -1.
        -12    1    4    4    0    0 -0.16969841410E+02 -0.68275867718E+01  0.37900065528E+02  0.42083327170E+02  0.00000000000E+00 0.  1.
</event>
<event>
12    1  0.8461994E-002  0.2231880E+03  0.7818608E-02  0.1131640E+00
         21   -1    0    0  503  502  0.00000000000E+00  0.00000000000E+00  0.14024785311E+04  0.14024785311E+04  0.00000000000E+00 0.  1.
         21   -1    0    0  501  503 -0.00000000000E+00 -0.00000000000E+00 -0.47827100072E+02  0.47827100072E+02  0.00000000000E+00 0. -1.
          6    2    1    2  501    0  0.83051879681E+02  0.11509204556E+03  0.30730437241E+03  0.37944208380E+03  0.17145414543E+03 0.  0.
         24    2    3    3    0    0  0.11229362646E+03  0.12626913348E+03  0.27526460284E+03  0.33440161440E+03  0.86603034141E+02 0.  0.
         -6    2    1    2    0  502 -0.83051879681E+02 -0.11509204556E+03  0.10473470586E+04  0.10708635474E+04  0.17224715447E+03 0.  0.
        -24    2    5    5    0    0  0.19764049431E+02 -0.45931886975E+02  0.33569065624E+03  0.34848472165E+03  0.79076093991E+02 0.  0.
          5    1    3    3  501    0 -0.29241746783E+02 -0.11177087923E+02  0.32039769564E+02  0.45040469392E+02  0.47000000000E+01 0. -1.
        -13    1    4    4    0    0  0.17527016286E+02  0.32353637535E+02  0.13863233534E+03  0.14343248782E+03  0.00000000000E+00 0.  1.
         14    1    4    4    0    0  0.94766610178E+02  0.93915495950E+02  0.13663226751E+03  0.19096912658E+03  0.00000000000E+00 0. -1.
         -5    1    5    5    0  502 -0.10281592911E+03 -0.69160158586E+02  0.71165640237E+03  0.72237882572E+03  0.47000000000E+01 0.  1.
         13    1    6    6    0    0 -0.81404391086E+01 -0.34760148178E+00 -0.41272552901E+00  0.81583036247E+01  0.00000000000E+00 0. -1.
        -14    1    6    6    0    0  0.27904488540E+02 -0.45584285493E+02  0.33610338177E+03  0.34032641802E+03  0.00000000000E+00 0.  1.
</event>
<event>
12    1  0.8461994E-002  0.2888593E+03  0.7818608E-02  0.1091097E+00
         21   -1    0    0  501  502  0.00000000000E+00  0.00000000000E+00  0.29469739577E+03  0.29469739577E+03  0.00000000000E+00 0.  1.
         21   -1    0    0  502  503 -0.00000000000E+00 -0.00000000000E+00 -0.64446179766E+03  0.64446179766E+03  0.00000000000E+00 0. -1.
         -6    2    1    2    0  503 -0.10333532786E+03 -0.20688570060E+03 -0.52688462067E+03  0.60032105593E+03  0.17116682974E+03 0.  0.
        -24    2    3    3    0    0 -0.94973917240E+02 -0.22994872904E+03 -0.47209617796E+03  0.54010743685E+03  0.83335341556E+02 0.  0.
          6    2    1    2  501    0  0.10333532786E+03  0.20688570060E+03  0.17712021878E+03  0.33883813750E+03  0.17308907657E+03 0.  0.
         24    2    5    5    0    0  0.82167021251E+02  0.20154381575E+03  0.89375485270E+02  0.24829609645E+03  0.79319890912E+02 0.  0.
          5    1    5    5  501    0  0.21168306605E+02  0.53418848416E+01  0.87744733514E+02  0.90542041051E+02  0.47000000000E+01 0. -1.
        -13    1    6    6    0    0  0.12828157689E+02  0.19846386018E+02  0.41903496420E+02  0.48107626006E+02  0.00000000000E+00 0.  1.
         14    1    6    6    0    0  0.69338863563E+02  0.18169742974E+03  0.47471988850E+02  0.20018847044E+03  0.00000000000E+00 0. -1.
         -5    1    3    3    0  503 -0.83614106157E+01  0.23063028445E+02 -0.54788442704E+02  0.60213619078E+02  0.47000000000E+01 0.  1.
         11    1    4    4    0    0  0.60667408589E+01 -0.86999482323E+02 -0.16448713021E+03  0.18617661312E+03  0.00000000000E+00 0. -1.
        -12    1    4    4    0    0 -0.10104065810E+03 -0.14294924672E+03 -0.30760904775E+03  0.35393082373E+03  0.00000000000E+00 0.  1.
</event>
<event>
12    1  0.8461994E-002  0.2141018E+03  0.7818608E-02  0.1138635E+00
         21   -1    0    0  501  502  0.00000000000E+00  0.00000000000E+00  0.42042012446E+03  0.42042012446E+03  0.00000000000E+00 0. -1.
         21   -1    0    0  502  503 -0.00000000000E+00 -0.00000000000E+00 -0.14370813484E+03  0.14370813484E+03  0.00000000000E+00 0. -1.
         -6    2    1    2    0  503  0.93262980239E+02  0.84563696565E+02 -0.12926780828E+01  0.21410567620E+03  0.17317784877E+03 0.  0.
        -24    2    3    3    0    0  0.43785791091E+02  0.37598172512E+02  0.67718976169E+02  0.11695398492E+03  0.75904919330E+02 0.  0.
          6    2    1    2  501    0 -0.93262980239E+02 -0.84563696565E+02  0.27800466771E+03  0.35002258310E+03  0.17140656682E+03 0.  0.
         24    2    5    5    0    0 -0.91414822913E+02 -0.55500831887E+02  0.28856657638E+03  0.31869033607E+03  0.82800055049E+02 0.  0.
          5    1    5    5  501    0 -0.18481573263E+01 -0.29062864677E+02 -0.10561908669E+02  0.31332247023E+02  0.47000000000E+01 0. -1.
        -11    1    6    6    0    0 -0.23151979684E+02 -0.27313882206E+02  0.20088061152E+03  0.20404676525E+03  0.00000000000E+00 0.  1.
         12    1    6    6    0    0 -0.68262843229E+02 -0.28186949681E+02  0.87685964855E+02  0.11464357082E+03  0.00000000000E+00 0. -1.
         -5    1    3    3    0  503  0.49477189148E+02  0.46965524053E+02 -0.69011654252E+02  0.97151691278E+02  0.47000000000E+01 0.  1.
         11    1    4    4    0    0  0.55254012789E+02  0.23839158411E+02  0.16068241672E+02  0.62285630714E+02  0.00000000000E+00 0. -1.
        -12    1    4    4    0    0 -0.11468221697E+02  0.13759014101E+02  0.51650734497E+02  0.54668354210E+02  0.00000000000E+00 0.  1.
</event>
<event>
12    1  0.8461994E-002  0.1889269E+03  0.7818608E-02  0.1160005E+00
         21   -1    0    0  501  502  0.00000000000E+00  0.00000000000E+00  0.23174902198E+03  0.23174902198E+03  0.00000000000E+00 0.  1.
         21   -1    0    0  502  503 -0.00000000000E+00 -0.00000000000E+00 -0.17313271877E+03  0.17313271877E+03  0.00000000000E+00 0.  1.
         -6    2    1    2    0  503 -0.69833610551E+02 -0.10304624746E+02 -0.41273625987E+02  0.19338270711E+03  0.17524394641E+03 0.  0.
        -24    2    3    3    0    0 -0.16187747329E+02  0.58871334805E+02 -0.25274333342E+02  0.10426896302E+03  0.80655734436E+02 0.  0.
          6    2    1    2  501    0  0.69833610551E+02  0.10304624746E+02  0.99889929199E+02  0.21149903365E+03  0.17254253048E+03 0.  0.
         24    2    5    5    0    0  0.40901139437E+02  0.74993589658E+02  0.76561337735E+02  0.13674568425E+03  0.74436563789E+02 0.  0.
          5    1    5    5  501    0  0.28932471114E+02 -0.64688964912E+02  0.23328591464E+02  0.74753349395E+02  0.47000000000E+01 0. -1.
        -11    1    6    6    0    0  0.28718800832E+02  0.34306913321E+02  0.82510118384E+02  0.93859754200E+02  0.00000000000E+00 0.  1.
         12    1    6    6    0    0  0.12182338605E+02  0.40686676337E+02 -0.59487806481E+01  0.42885930052E+02  0.00000000000E+00 0. -1.
         -5    1    3    3    0  503 -0.53645863222E+02 -0.69175959551E+02 -0.15999292645E+02  0.89113744090E+02  0.47000000000E+01 0.  1.
         13    1    4    4    0    0 -0.14520491102E+02  0.21323919213E+02  0.28640719573E+02  0.38546660168E+02  0.00000000000E+00 0. -1.
        -14    1    4    4    0    0 -0.16672562263E+01  0.37547415592E+02 -0.53915052915E+02  0.65722302849E+02  0.00000000000E+00 0.  1.
</event>
<event>
12    1  0.8461994E-002  0.1914824E+03  0.7818608E-02  0.1158163E+00
         21   -1    0    0  503  502  0.00000000000E+00  0.00000000000E+00  0.22865485430E+02  0.22865485430E+02  0.00000000000E+00 0. -1.
         21   -1    0    0  501  503 -0.00000000000E+00 -0.00000000000E+00 -0.15966444608E+04  0.15966444608E+04  0.00000000000E+00 0.  1.
          6    2    1    2  501    0  0.13460981203E+02  0.70713637704E+02 -0.66454366837E+03  0.69033054923E+03  0.17250032885E+03 0.  0.
         24    2    3    3    0    0  0.21046910716E+02  0.11039009591E+03 -0.41013045831E+03  0.43268750329E+03  0.79890781391E+02 0.  0.
         -6    2    1    2    0  502 -0.13460981203E+02 -0.70713637704E+02 -0.90923530698E+03  0.92917939699E+03  0.17743700783E+03 0.  0.
        -24    2    5    5    0    0  0.39160759559E+02 -0.29116635902E+02 -0.75875440616E+03  0.76435843451E+03  0.78448862082E+02 0.  0.
          5    1    3    3  501    0 -0.75859295131E+01 -0.39676458206E+02 -0.25441321006E+03  0.25764304593E+03  0.47000000000E+01 0. -1.
        -11    1    4    4    0    0  0.32344374330E+02  0.11260683474E+03 -0.40164889350E+03  0.41838772858E+03  0.00000000000E+00 0.  1.
         12    1    4    4    0    0 -0.11297463614E+02 -0.22167388345E+01 -0.84815648090E+01  0.14299774711E+02  0.00000000000E+00 0. -1.
         -5    1    5    5    0  502 -0.52621740762E+02 -0.41597001802E+02 -0.15048090082E+03  0.16482096248E+03  0.47000000000E+01 0.  1.
         11    1    6    6    0    0  0.33474998914E+02  0.10655543720E+02 -0.14141773925E+03  0.14571579578E+03  0.00000000000E+00 0. -1.
        -12    1    6    6    0    0  0.56857606456E+01 -0.39772179622E+02 -0.61733666691E+03  0.61864263873E+03  0.00000000000E+00 0.  1.
</event>
<event>
12    1  0.8461994E-002  0.2244146E+03  0.7818608E-02  0.1130658E+00
         21   -1    0    0  501  502  0.00000000000E+00  0.00000000000E+00  0.48598948566E+02  0.48598948566E+02  0.00000000000E+00 0. -1.
         21   -1    0    0  502  503 -0.00000000000E+00 -0.00000000000E+00 -0.13440691491E+04  0.13440691491E+04  0.00000000000E+00 0. -1.
         -6    2    1    2    0  503 -0.47771101078E+02  0.13646924390E+03 -0.31403838922E+03  0.38590580681E+03  0.17145626030E+03 0.  0.
        -24    2    3    3    0    0 -0.64554968894E+01  0.32837329814E+02 -0.23159411108E+03  0.24710486385E+03  0.79404142121E+02 0.  0.
          6    2    1    2  501    0  0.47771101078E+02 -0.13646924390E+03 -0.98143181133E+03  0.10067622909E+04  0.17162743779E+03 0.  0.
         24    2    5    5    0    0  0.32928653786E+02 -0.11012212245E+02 -0.29535819233E+03  0.30913856298E+03  0.84407489504E+02 0.  0.
          5    1    5    5  501    0  0.14842447292E+02 -0.12545703165E+03 -0.68607361900E+03  0.69762372789E+03  0.47000000000E+01 0. -1.
        -11    1    6    6    0    0 -0.22336108252E+02 -0.19367187105E+02 -0.55813822251E+02  0.63159895682E+02  0.00000000000E+00 0.  1.
         12    1    6    6    0    0  0.55264762038E+02  0.83549748600E+01 -0.23954437008E+03  0.24597866730E+03  0.00000000000E+00 0. -1.
         -5    1    3    3    0  503 -0.41315604189E+02  0.10363191409E+03 -0.82444278143E+02  0.13880094295E+03  0.47000000000E+01 0.  1.
         13    1    4    4    0    0 -0.77861038169E+01  0.56510290226E+02 -0.11803035771E+03  0.13109234019E+03  0.00000000000E+00 0. -1.
        -14    1    4    4    0    0  0.13306069275E+01 -0.23672960413E+02 -0.11356375336E+03  0.11601252366E+03  0.00000000000E+00 0.  1.
</event>
<event>
12    1  0.8461994E-002  0.1974640E+03  0.7818608E-02  0.1152226E+00
         21   -1    0    0  503  502  0.00000000000E+00  0.00000000000E+00  0.17219853968E+03  0.17219853968E+03  0.00000000000E+00 0.  1.
         21   -1    0    0  501  503 -0.00000000000E+00 -0.00000000000E+00 -0.33327238006E+03  0.33327238006E+03  0.00000000000E+00 0.  1.
          6    2    1    2  501    0  0.32888680883E+02 -0.89049862247E+02 -0.22501021268E+03  0.29936869175E+03  0.17314870631E+03 0.  0.
         24    2    3    3    0    0 -0.37225159384E+02 -0.45214082693E+01 -0.97438270285E+02  0.13097124339E+03  0.79076510135E+02 0.  0.
         -6    2    1    2    0  502 -0.32888680883E+02  0.89049862247E+02  0.63936372297E+02  0.20610222800E+03  0.17140223274E+03 0.  0.
        -24    2    5    5    0    0 -0.12496986828E+02  0.31814517307E+02 -0.32452658364E+02  0.92064334609E+02  0.79084312482E+02 0.  0.
          5    1    3    3  501    0  0.70113840267E+02 -0.84528453978E+02 -0.12757194239E+03  0.16839744836E+03  0.47000000000E+01 0. -1.
        -13    1    4    4    0    0 -0.13090696862E+02 -0.40136941382E+02 -0.33443321410E+02  0.53859039676E+02  0.00000000000E+00 0.  1.
         14    1    4    4    0    0 -0.24134462522E+02  0.35615533113E+02 -0.63994948875E+02  0.77112203714E+02  0.00000000000E+00 0. -1.
         -5    1    5    5    0  502 -0.20391694055E+02  0.57235344941E+02  0.96389030661E+02  0.11403789339E+03  0.47000000000E+01 0.  1.
         11    1    6    6    0    0 -0.31471374981E+02 -0.12412179927E+02  0.33373677807E+00  0.33832248433E+02  0.00000000000E+00 0. -1.
        -12    1    6    6    0    0  0.18974388154E+02  0.44226697234E+02 -0.32786395142E+02  0.58232086176E+02  0.00000000000E+00 0.  1.
</event>
<event>
12    1  0.8461994E-002  0.2779472E+03  0.7818608E-02  0.1097023E+00
         21   -1    0    0  503  502  0.00000000000E+00  0.00000000000E+00  0.13824062409E+03  0.13824062409E+03  0.00000000000E+00 0. -1.
         21   -1    0    0  501  503 -0.00000000000E+00 -0.00000000000E+00 -0.11990662024E+04  0.11990662024E+04  0.00000000000E+00 0.  1.
          6    2    1    2  501    0  0.80249065693E+02  0.20289170120E+03 -0.10194872606E+04  0.10563023643E+04  0.16975115716E+03 0.  0.
         24    2    3    3    0    0  0.11526868812E+03  0.12742169245E+03 -0.79926408679E+03  0.82084019652E+03  0.73704746293E+02 0.  0.
         -6    2    1    2    0  502 -0.80249065693E+02 -0.20289170120E+03 -0.41338317660E+02  0.28100446213E+03  0.17219087163E+03 0.  0.
        -24    2    5    5    0    0 -0.10998842630E+03 -0.95702492879E+02 -0.21591617028E+02  0.16792936260E+03  0.80483860695E+02 0.  0.
          5    1    3    3  501    0 -0.35019622429E+02  0.75470008751E+02 -0.22022317384E+03  0.23546216782E+03  0.47000000000E+01 0. -1.
        -11    1    4    4    0    0  0.11094124136E+03  0.11725968524E+03 -0.60199670973E+03  0.62326385372E+03  0.00000000000E+00 0.  1.
         12    1    4    4    0    0  0.43274467594E+01  0.10162007203E+02 -0.19726737706E+03  0.19757634281E+03  0.00000000000E+00 0. -1.
         -5    1    5    5    0  502  0.29739360610E+02 -0.10718920832E+03 -0.19746700632E+02  0.11307509954E+03  0.47000000000E+01 0.  1.
         13    1    6    6    0    0 -0.15210271076E+02 -0.44170927517E+02  0.21920380783E+02  0.51603549079E+02  0.00000000000E+00 0. -1.
        -14    1    6    6    0    0 -0.94778155227E+02 -0.51531565362E+02 -0.43511997811E+02  0.11632581352E+03  0.00000000000E+00 0.  1.
</event>
<event>
12    1  0.8461994E-002  0.1802403E+03  0.7818608E-02  0.1170057E+00
         21   -1    0    0  501  502  0.00000000000E+00  0.00000000000E+00  0.20265976588E+03  0.20265976588E+03  0.00000000000E+00 0. -1.
         21   -1    0    0  502  503 -0.00000000000E+00 -0.00000000000E+00 -0.15175741315E+03  0.15175741315E+03  0.00000000000E+00 0. -1.
         -6    2    1    2    0  503 -0.42721313409E+02 -0.26641531506E+02  0.31365577368E+02  0.17312115096E+03  0.16264148193E+03 0.  0.
        -24    2    3    3    0    0 -0.77502751895E+02  0.14927886783E+02  0.45807942418E+01  0.11248057373E+03  0.80008608506E+02 0.  0.
          6    2    1    2  501    0  0.42721313409E+02  0.26641531506E+02  0.19536775358E+02  0.18129602807E+03  0.17306554360E+03 0.  0.
         24    2    5    5    0    0 -0.12953765914E+02 -0.39881692284E+02  0.26249384575E+02  0.94162780202E+02  0.80120219383E+02 0.  0.
          5    1    5    5  501    0  0.55675079324E+02  0.66523223790E+02 -0.67126092172E+01  0.87133247866E+02  0.47000000000E+01 0. -1.
        -11    1    6    6    0    0 -0.65337452959E+01 -0.18850377537E+02 -0.28713627984E+02  0.34964253072E+02  0.00000000000E+00 0.  1.
         12    1    6    6    0    0 -0.64200206186E+01 -0.21031314747E+02  0.54963012559E+02  0.59198527130E+02  0.00000000000E+00 0. -1.
         -5    1    3    3    0  503  0.34781438486E+02 -0.41569418289E+02  0.26784783126E+02  0.60640577233E+02  0.47000000000E+01 0.  1.
         13    1    4    4    0    0 -0.28691782669E+02 -0.32120123356E+02  0.10798952177E+02  0.44402005420E+02  0.00000000000E+00 0. -1.
        -14    1    4    4    0    0 -0.48810969226E+02  0.47048010139E+02 -0.62181579352E+01  0.68078568308E+02  0.00000000000E+00 0.  1.
</event>
<event>
12    1  0.8461994E-002  0.2399496E+03  0.7818608E-02  0.1119940E+00
         21   -1    0    0  501  502  0.00000000000E+00  0.00000000000E+00  0.32135606725E+02  0.32135606725E+02  0.00000000000E+00 0.  1.
         21   -1    0    0  502  503 -0.00000000000E+00 -0.00000000000E+00 -0.19816131549E+04  0.19816131549E+04  0.00000000000E+00 0.  1.
         -6    2    1    2    0  503 -0.11974978232E+03  0.11654231305E+03 -0.12918582262E+04  0.13139533724E+04  0.17220240151E+03 0.  0.
        -24    2    3    3    0    0 -0.10949937493E+03  0.27722383875E+02 -0.56534007428E+03  0.58193918827E+03  0.79279099228E+02 0.  0.
          6    2    1    2  501    0  0.11974978232E+03 -0.11654231305E+03 -0.65761932192E+03  0.69979538920E+03  0.17125505271E+03 0.  0.
         24    2    5    5    0    0  0.96037258247E+02 -0.12807657857E+03 -0.64644664390E+03  0.67077398652E+03  0.80110627528E+02 0.  0.
          5    1    5    5  501    0  0.23712524072E+02  0.11534265517E+02 -0.11172678029E+02  0.29021402675E+02  0.47000000000E+01 0. -1.
        -11    1    6    6    0    0  0.83636295583E+02 -0.10906677370E+03 -0.39353165276E+03  0.41684259954E+03  0.00000000000E+00 0.  1.
         12    1    6    6    0    0  0.12400962664E+02 -0.19009804870E+02 -0.25291499113E+03  0.25393138699E+03  0.00000000000E+00 0. -1.
         -5    1    3    3    0  503 -0.10250407386E+02  0.88819929177E+02 -0.72651815195E+03  0.73201418414E+03  0.47000000000E+01 0.  1.
         13    1    4    4    0    0  0.78639876684E+01 -0.12879910995E+01 -0.68328970550E+01  0.10497128430E+02  0.00000000000E+00 0. -1.
        -14    1    4    4    0    0 -0.11736336260E+03  0.29010374975E+02 -0.55850717723E+03  0.57144205984E+03  0.00000000000E+00 0.  1.
</event>
<event>
12    1  0.8461994E-002  0.1867166E+03  0.7818608E-02  0.1161864E+00
         21   -1    0    0  503  502  0.00000000000E+00  0.00000000000E+00  0.44783781056E+02  0.44783781056E+02  0.00000000000E+00 0. -1.
         21   -1    0    0  501  503 -0.00000000000E+00 -0.00000000000E+00 -0.17871494738E+04  0.17871494738E+04  0.00000000000E+00 0.  1.
          6    2    1    2  501    0 -0.69956884947E+02 -0.16507446599E+02 -0.15635838136E+04  0.15746928029E+04  0.17232707228E+03 0.  0.
         24    2    3    3    0    0  0.24405378753E+02  0.26714630295E+01 -0.90564939433E+03  0.90973276091E+03  0.82523400394E+02 0.  0.
         -6    2    1    2    0  502  0.69956884947E+02  0.16507446599E+02 -0.17878187916E+03  0.25724045196E+03  0.17042073895E+03 0.  0.
        -24    2    5    5    0    0  0.23585114459E+02  0.73372616591E+02 -0.11060713372E+03  0.15697144094E+03  0.80413287152E+02 0.  0.
          5    1    3    3  501    0 -0.94362263699E+02 -0.19178909629E+02 -0.65793441928E+03  0.66496004200E+03  0.47000000000E+01 0. -1.
        -11    1    4    4    0    0  0.60928896161E+01  0.36124129740E+02 -0.67144410069E+03  0.67244275326E+03  0.00000000000E+00 0.  1.
         12    1    4    4    0    0  0.18312489137E+02 -0.33452666710E+02 -0.23420529363E+03  0.23729000766E+03  0.00000000000E+00 0. -1.
         -5    1    5    5    0  502  0.46371770488E+02 -0.56865169992E+02 -0.68174745442E+02  0.10026901103E+03  0.47000000000E+01 0.  1.
         13    1    6    6    0    0  0.26321629013E+02  0.19651075720E+00 -0.25582640617E+01  0.26446388892E+02  0.00000000000E+00 0. -1.
        -14    1    6    6    0    0 -0.27365145545E+01  0.73176105834E+02 -0.10804886966E+03  0.13052505205E+03  0.00000000000E+00 0.  1.
</event>
<event>
12    1  0.8461994E-002  0.1849671E+03  0.7818608E-02  0.1163214E+00
         21   -1    0    0  501  502  0.00000000000E+00  0.00000000000E+00  0.21091934673E+03  0.21091934673E+03  0.00000000000E+00 0.  1.
         21   -1    0    0  502  503 -0.00000000000E+00 -0.00000000000E+00 -0.18520266139E+03  0.18520266139E+03  0.00000000000E+00 0.  1.
         -6    2    1    2    0  503  0.29982259867E+02 -0.56918964983E+02 -0.57667446522E+02  0.19374822023E+03  0.17341895506E+03 0.  0.
        -24    2    3    3    0    0 -0.17329443384E+02 -0.78261979780E+00  0.21769963859E+02  0.85479671320E+02  0.80820299312E+02 0.  0.
          6    2    1    2  501    0 -0.29982259867E+02  0.56918964983E+02  0.83384131863E+02  0.20237378788E+03  0.17281068281E+03 0.  0.
         24    2    5    5    0    0  0.38781238787E+02  0.62126778580E+02  0.75131095501E+02  0.13276241899E+03  0.81347755265E+02 0.  0.
          5    1    5    5  501    0 -0.68763498654E+02 -0.52078135964E+01  0.82530363617E+01  0.69611368890E+02  0.47000000000E+01 0. -1.
        -13    1    6    6    0    0 -0.66931353098E+01  0.47297174379E+02  0.52173095650E+01  0.48052482596E+02  0.00000000000E+00 0.  1.
         14    1    6    6    0    0  0.45474374096E+02  0.14829604201E+02  0.69913785936E+02  0.84709936396E+02  0.00000000000E+00 0. -1.
         -5    1    3    3    0  503  0.47311703251E+02 -0.56136345186E+02 -0.79437410381E+02  0.10826854891E+03  0.47000000000E+01 0.  1.
         13    1    4    4    0    0 -0.84249095324E+01  0.38828465484E+02  0.69959066165E+00  0.39738120986E+02  0.00000000000E+00 0. -1.
        -14    1    4    4    0    0 -0.89045338513E+01 -0.39611085281E+02  0.21070373197E+02  0.45741550334E+02  0.00000000000E+00 0.  1.
</event>
<event>
12    1  0.8461994E-002  0.2604332E+03  0.7818608E-02  0.1107026E+00
         21   -1    0    0  501  502  0.00000000000E+00  0.00000000000E+00  0.27566771851E+03  0.27566771851E+03  0.00000000000E+00 0. -1.
         21   -1    0    0  502  503 -0.00000000000E+00 -0.00000000000E+00 -0.36507940374E+03  0.36507940374E+03  0.00000000000E+00 0.  1.
         -6    2    1    2    0  503 -0.53027074398E+02  0.18689517554E+03 -0.22838869680E+03  0.34639117700E+03  0.17344674520E+03 0.  0.
        -24    2    3    3    0    0  0.31973037656E+02  0.13376718868E+03 -0.12257397526E+03  0.20056097666E+03  0.79274144860E+02 0.  0.
          6    2    1    2  501    0  0.53027074398E+02 -0.18689517554E+03  0.13897701156E+03  0.29435594525E+03  0.17201492814E+03 0.  0.
         24    2    5    5    0    0  0.91161853285E+02 -0.14455878568E+03  0.14379822974E+03  0.23698029352E+03  0.79208601987E+02 0.  0.
          5    1    5    5  501    0 -0.38134778886E+02 -0.42336389861E+02 -0.48212181730E+01  0.57375651733E+02  0.47000000000E+01 0. -1.
        -11    1    6    6    0    0  0.96042983463E+02 -0.12779841177E+03  0.96901852208E+02  0.18694025165E+03  0.00000000000E+00 0.  1.
         12    1    6    6    0    0 -0.48811301784E+01 -0.16760373910E+02  0.46896377528E+02  0.50040041873E+02  0.00000000000E+00 0. -1.
         -5    1    3    3    0  503 -0.85000112054E+02  0.53127986861E+02 -0.10581472154E+03  0.14583020034E+03  0.47000000000E+01 0.  1.
         11    1    4    4    0    0  0.42011102446E+02  0.41217779721E+02 -0.76986431264E+02  0.96905875429E+02  0.00000000000E+00 0. -1.
        -12    1    4    4    0    0 -0.10038064790E+02  0.92549408960E+02 -0.45587543992E+02  0.10365510123E+03  0.00000000000E+00 0.  1.
</event>
<event>
12    1  0.8461994E-002  0.1868203E+03  0.7818608E-02  0.1161405E+00
         21   -1    0    0  503  502  0.00000000000E+00  0.00000000000E+00  0.19049590270E+02  0.19049590270E+02  0.00000000000E+00 0.  1.
         21   -1    0    0  501  503 -0.00000000000E+00 -0.00000000000E+00 -0.19125964465E+04  0.19125964465E+04  0.00000000000E+00 0.  1.
          6    2    1    2  501    0  0.31601658654E+02 -0.65614358968E+02 -0.74688939928E+03  0.76989972515E+03  0.17204041122E+03 0.  0.
         24    2    3    3    0    0 -0.28740570408E+02 -0.17279687565E+02 -0.56244814224E+03  0.56985449934E+03  0.85215196559E+02 0.  0.
         -6    2    1    2    0  502 -0.31601658654E+02  0.65614358968E+02 -0.11466574570E+04  0.11617463117E+04  0.17183497914E+03 0.  0.
        -24    2    5    5    0    0  0.28056811260E+02  0.25432928089E+02 -0.31890139950E+03  0.33085771436E+03  0.79590866671E+02 0.  0.
          5    1    3    3  501    0  0.60342229062E+02 -0.48334671403E+02 -0.18444125704E+03  0.20004522580E+03  0.47000000000E+01 0. -1.
        -11    1    4    4    0    0 -0.54001704426E+02 -0.25375848208E+02 -0.28728864657E+03  0.29341929760E+03  0.00000000000E+00 0.  1.
         12    1    4    4    0    0  0.25261134018E+02  0.80961606430E+01 -0.27515949566E+03  0.27643520174E+03  0.00000000000E+00 0. -1.
         -5    1    5    5    0  502 -0.59658469915E+02  0.40181430879E+02 -0.82775605748E+03  0.83088859730E+03  0.47000000000E+01 0.  1.
         11    1    6    6    0    0  0.10319514620E+02 -0.27693586803E+02 -0.15087181644E+03  0.15373916914E+03  0.00000000000E+00 0. -1.
        -12    1    6    6    0    0  0.17737296640E+02  0.53126514892E+02 -0.16802958307E+03  0.17711854522E+03  0.00000000000E+00 0.  1.
</event>
<event>
12    1  0.8461994E-002  0.1865850E+03  0.7818608E-02  0.1161938E+00
         21   -1    0    0  501  502  0.00000000000E+00  0.00000000000E+00  0.47025954013E+02  0.47025954013E+02  0.00000000000E+00 0. -1.
         21   -1    0    0  502  503 -0.00000000000E+00 -0.00000000000E+00 -0.85791999714E+03  0.85791999714E+03  0.00000000000E+00 0. -1.
         -6    2    1    2    0  503  0.68037150731E+02 -0.39793827996E+01 -0.57584655080E+03  0.60484379709E+03  0.17202290382E+03 0.  0.
        -24    2    3    3    0    0 -0.24935522216E+02 -0.29999425374E+02 -0.24527854176E+03  0.26043378107E+03  0.78373755079E+02 0.  0.
          6    2    1    2  501    0 -0.68037150731E+02  0.39793827996E+01 -0.23504749233E+03  0.30010215407E+03  0.17369251526E+03 0.  0.
         24    2    5    5    0    0 -0.41466945495E+02 -0.40862063637E+02 -0.22183638153E+03  0.24612665432E+03  0.89318161540E+02 0.  0.
          5    1    5    5  501    0 -0.26570205236E+02  0.44841446436E+02 -0.13211110798E+02  0.53975499750E+02  0.47000000000E+01 0. -1.
        -11    1    6    6    0    0 -0.59428395654E+02 -0.16360640521E+02 -0.19840828335E+03  0.20776248860E+03  0.00000000000E+00 0.  1.
         12    1    6    6    0    0  0.17961450159E+02 -0.24501423116E+02 -0.23428098180E+02  0.38364165713E+02  0.00000000000E+00 0. -1.
         -5    1    3    3    0  503  0.92972672947E+02  0.26020042574E+02 -0.33056800904E+03  0.34441001602E+03  0.47000000000E+01 0.  1.
         13    1    4    4    0    0 -0.44147652767E+02  0.80481239669E+01 -0.12152311269E+03  0.12954402519E+03  0.00000000000E+00 0. -1.
        -14    1    4    4    0    0  0.19212130551E+02 -0.38047549341E+02 -0.12375542907E+03  0.13088975588E+03  0.00000000000E+00 0.  1.
</event>
<event>
12    1  0.8461994E-002  0.2655306E+03  0.7818608E-02  0.1104040E+00
         21   -1    0    0  501  502  0.00000000000E+00  0.00000000000E+00  0.23922607107E+03  0.23922607107E+03  0.00000000000E+00 0. -1.
         21   -1    0    0  502  503 -0.00000000000E+00 -0.00000000000E+00 -0.32980931945E+03  0.32980931945E+03  0.00000000000E+00 0.  1.
         -6    2    1    2    0  503 -0.19067921533E+03 -0.65385893321E+02 -0.13990997861E+03  0.30013549493E+03  0.17283701860E+03 0.  0.
        -24    2    3    3    0    0 -0.16172597612E+03 -0.80164720629E+02 -0.47962360098E+02  0.20249760092E+03  0.78250984701E+02 0.  0.
          6    2    1    2  501    0  0.19067921533E+03  0.65385893321E+02  0.49326730230E+02  0.26889989560E+03  0.17099751265E+03 0.  0.
         24    2    5    5    0    0  0.62755253480E+02  0.51471347713E+02 -0.29531634729E+02  0.11790689470E+03  0.80264543192E+02 0.  0.
          5    1    5    5  501    0  0.12792396185E+03  0.13914545608E+02  0.78858364959E+02  0.15099300089E+03  0.47000000000E+01 0. -1.
        -11    1    6    6    0    0  0.76850698131E+02  0.59828693821E+02 -0.28544741363E+02  0.10149041663E+03  0.00000000000E+00 0.  1.
         12    1    6    6    0    0 -0.14095444651E+02 -0.83573461084E+01 -0.98689336620E+00  0.16416478076E+02  0.00000000000E+00 0. -1.
         -5    1    3    3    0  503 -0.28953239214E+02  0.14778827308E+02 -0.91947618510E+02  0.97637894013E+02  0.47000000000E+01 0.  1.
         13    1    4    4    0    0 -0.35976278837E+02 -0.31884127940E+01  0.18719726498E+02  0.40680299597E+02  0.00000000000E+00 0. -1.
        -14    1    4    4    0    0 -0.12574969728E+03 -0.76976307835E+02 -0.66682086596E+02  0.16181730132E+03  0.00000000000E+00 0.  1.
</event>
<event>
12    1  0.8461994E-002  0.2022093E+03  0.7818608E-02  0.1148839E+00
         21   -1    0    0  503  502  0.00000000000E+00  0.00000000000E+00  0.28757378219E+03  0.28757378219E+03  0.00000000000E+00 0.  1.
         21   -1    0    0  501  503 -0.00000000000E+00 -0.00000000000E+00 -0.15704927429E+03  0.15704927429E+03  0.00000000000E+00 0.  1.
          6    2    1    2  501    0 -0.88611171572E+02 -0.39999081106E+02 -0.10694309434E+02  0.19798292787E+03  0.17213658896E+03 0.  0.
         24    2    3    3    0    0 -0.78558259787E+02 -0.80094886563E+02 -0.44564287623E+02  0.14433593287E+03  0.79122024439E+02 0.  0.
         -6    2    1    2    0  502  0.88611171572E+02  0.39999081106E+02  0.14121881734E+03  0.24664012861E+03  0.17730406779E+03 0.  0.
        -24    2    5    5    0    0 -0.11954070992E+02 -0.18956837093E+02  0.77212508728E+02  0.11356847181E+03  0.80210752390E+02 0.  0.
          5    1    3    3  501    0 -0.10052911785E+02  0.40095805457E+02  0.33869978190E+02  0.53646995006E+02  0.47000000000E+01 0. -1.
        -11    1    4    4    0    0 -0.27456727777E+02 -0.50484565093E+02  0.16089417987E+02  0.59677739434E+02  0.00000000000E+00 0.  1.
         12    1    4    4    0    0 -0.51101532009E+02 -0.29610321470E+02 -0.60653705610E+02  0.84658193434E+02  0.00000000000E+00 0. -1.
         -5    1    5    5    0  502  0.10056524256E+03  0.58955918199E+02  0.64006308609E+02  0.13307165680E+03  0.47000000000E+01 0.  1.
         11    1    6    6    0    0 -0.31985156236E+02 -0.11373149964E+02  0.53028981039E+00  0.33951140877E+02  0.00000000000E+00 0. -1.
        -12    1    6    6    0    0  0.20031085244E+02 -0.75836871292E+01  0.76682218917E+02  0.79617330931E+02  0.00000000000E+00 0.  1.
</event>
<event>
12    1  0.8461994E-002  0.2837281E+03  0.7818608E-02  0.1094518E+00
         21   -1    0    0  503  502  0.00000000000E+00  0.00000000000E+00  0.22246836549E+03  0.22246836549E+03  0.00000000000E+00 0.  1.
         21   -1    0    0  501  503 -0.00000000000E+00 -0.00000000000E+00 -0.47876563373E+03  0.47876563373E+03  0.00000000000E+00 0.  1.
          6    2    1    2  501    0  0.51613502938E+02  0.21049361000E+03  0.49819031689E+02  0.28806869716E+03  0.18311232845E+03 0.  0.
         24    2    3    3    0    0 -0.20764150684E+02  0.18749037213E+03  0.33526787704E+02  0.21025352570E+03  0.86595092112E+02 0.  0.
         -6    2    1    2    0  502 -0.51613502938E+02 -0.21049361000E+03 -0.30611629993E+03  0.41316530205E+03  0.17328261368E+03 0.  0.
        -24    2    5    5    0    0 -0.95437033773E+02 -0.18745336458E+03 -0.22604858335E+03  0.31890882216E+03  0.79736337457E+02 0.  0.
          5    1    3    3  501    0  0.72377653621E+02  0.23003237866E+02  0.16292243985E+02  0.77815171465E+02  0.47000000000E+01 0. -1.
        -13    1    4    4    0    0  0.10892298562E+02  0.22721442509E+02 -0.22073608039E+02  0.33498511751E+02  0.00000000000E+00 0.  1.
         14    1    4    4    0    0 -0.31656449245E+02  0.16476892963E+03  0.55600395743E+02  0.17675501395E+03  0.00000000000E+00 0. -1.
         -5    1    5    5    0  502  0.43823530835E+02 -0.23040245420E+02 -0.80067716574E+02  0.94256479890E+02  0.47000000000E+01 0.  1.
         11    1    6    6    0    0 -0.42100862071E+02 -0.78067229177E+02 -0.15334545788E+03  0.17714910192E+03  0.00000000000E+00 0. -1.
        -12    1    6    6    0    0 -0.53336171701E+02 -0.10938613540E+03 -0.72703125469E+02  0.14175972024E+03  0.00000000000E+00 0.  1.
</event>
<event>
12    1  0.8461994E-002  0.1871306E+03  0.7818608E-02  0.1161257E+00
         21   -1    0    0  501  502  0.00000000000E+00  0.00000000000E+00  0.59030210640E+03  0.59030210640E+03  0.00000000000E+00 0.  1.
         21   -1    0    0  502  503 -0.00000000000E+00 -0.00000000000E+00 -0.59089288694E+02  0.59089288694E+02  0.00000000000E+00 0.  1.
         -6    2    1    2    0  503  0.59991649229E+02 -0.42458548104E+02  0.27167899537E+03  0.32988986672E+03  0.17209335069E+03 0.  0.
        -24    2    3    3    0    0  0.30764333759E+02  0.29620613592E+02  0.21544098363E+03  0.23379384450E+03  0.80130639085E+02 0.  0.
          6    2    1    2  501    0 -0.59991649229E+02  0.42458548104E+02  0.25953382233E+03  0.31950152838E+03  0.17123578894E+03 0.  0.
         24    2    5    5    0    0 -0.45172482964E+02  0.94078205677E+02  0.18098892393E+03  0.22423564885E+03  0.81445525534E+02 0.  0.
          5    1    5    5  501    0 -0.14819166265E+02 -0.51619657573E+02  0.78544898406E+02  0.95265879529E+02  0.47000000000E+01 0. -1.
        -13    1    6    6    0    0 -0.58013898021E+02  0.40626418808E+02  0.66126184858E+02  0.96895771800E+02  0.00000000000E+00 0.  1.
         14    1    6    6    0    0  0.12841415057E+02  0.53451786868E+02  0.11486273907E+03  0.12733987705E+03  0.00000000000E+00 0. -1.
         -5    1    3    3    0  503  0.29227315471E+02 -0.72079161696E+02  0.56238011746E+02  0.96096022216E+02  0.47000000000E+01 0.  1.
         13    1    4    4    0    0  0.19805927029E+01 -0.12522012631E+02  0.29847189219E+00  0.12681192107E+02  0.00000000000E+00 0. -1.
        -14    1    4    4    0    0  0.28783741056E+02  0.42142626223E+02  0.21514251174E+03  0.22111265240E+03  0.00000000000E+00 0.  1.
</event>
<event>
12    1  0.8461994E-002  0.3433689E+03  0.7818608E-02  0.1065762E+00
         21   -1    0    0  503  502  0.00000000000E+00  0.00000000000E+00  0.56489376895E+03  0.56489376895E+03  0.00000000000E+00 0.  1.
         21   -1    0    0  501  503 -0.00000000000E+00 -0.00000000000E+00 -0.24534092938E+03  0.24534092938E+03  0.00000000000E+00 0. -1.
          6    2    1    2  501    0 -0.29262444057E+03  0.81702396197E+01 -0.22034482444E+01  0.33967195921E+03  0.17226830426E+03 0.  0.
         24    2    3    3    0    0 -0.74952344061E+02 -0.35928729226E+02 -0.23097451803E+02  0.11654753196E+03  0.78365218441E+02 0.  0.
         -6    2    1    2    0  502  0.29262444057E+03 -0.81702396197E+01  0.32175628781E+03  0.47056273912E+03  0.17946132359E+03 0.  0.
        -24    2    5    5    0    0  0.60093043680E+02  0.82481329727E+01  0.16938548146E+02  0.86796719369E+02  0.59728975244E+02 0.  0.
          5    1    3    3  501    0 -0.21767209651E+03  0.44098968846E+02  0.20894003559E+02  0.22312442725E+03  0.47000000000E+01 0. -1.
        -13    1    4    4    0    0 -0.44761381098E+02 -0.19658406895E+02  0.26990071877E+02  0.55843515106E+02  0.00000000000E+00 0.  1.
         14    1    4    4    0    0 -0.30190962963E+02 -0.16270322331E+02 -0.50087523680E+02  0.60704016850E+02  0.00000000000E+00 0. -1.
         -5    1    5    5    0  502  0.23253139689E+03 -0.16418372592E+02  0.30481773967E+03  0.38376601975E+03  0.47000000000E+01 0.  1.
         13    1    6    6    0    0  0.45867094444E+02  0.33032786489E+02  0.10221412702E+02  0.57440687789E+02  0.00000000000E+00 0. -1.
        -14    1    6    6    0    0  0.14225949235E+02 -0.24784653516E+02  0.67171354444E+01  0.29356031580E+02  0.00000000000E+00 0.  1.
</event>
<event>
12    1  0.8461994E-002  0.1802192E+03  0.7818608E-02  0.1167961E+00
         21   -1    0    0  501  502  0.00000000000E+00  0.00000000000E+00  0.46272254755E+03  0.46272254755E+03  0.00000000000E+00 0. -1.
         21   -1    0    0  502  503 -0.00000000000E+00 -0.00000000000E+00 -0.89339122023E+02  0.89339122023E+02  0.00000000000E+00 0. -1.
         -6    2    1    2    0  503  0.33716899050E+02  0.34243143747E+02  0.57558569032E+02  0.18918764271E+03  0.17369384880E+03 0.  0.
        -24    2    3    3    0    0 -0.69970043051E+01 -0.24347076366E+02  0.78962179697E+02  0.11455092006E+03  0.79026256816E+02 0.  0.
          6    2    1    2  501    0 -0.33716899050E+02 -0.34243143747E+02  0.31582485650E+03  0.36287402687E+03  0.17211274565E+03 0.  0.
         24    2    5    5    0    0  0.98292952279E+01  0.11437922078E+02  0.35390800642E+02  0.75387713286E+02  0.64833305008E+02 0.  0.
          5    1    5    5  501    0 -0.43546194278E+02 -0.45681065825E+02  0.28043405586E+03  0.28748631358E+03  0.47000000000E+01 0. -1.
        -11    1    6    6    0    0  0.10964540252E+02  0.13445244541E+02  0.53957623761E+02  0.56678222499E+02  0.00000000000E+00 0.  1.
         12    1    6    6    0    0 -0.11352450240E+01 -0.20073224627E+01 -0.18566823120E+02  0.18709490787E+02  0.00000000000E+00 0. -1.
         -5    1    3    3    0  503  0.40713903355E+02  0.58590220113E+02 -0.21403610665E+02  0.74636722656E+02  0.47000000000E+01 0.  1.
         11    1    4    4    0    0  0.58193828010E+00  0.23696916773E+02  0.55908272373E+02  0.60725755956E+02  0.00000000000E+00 0. -1.
        -12    1    4    4    0    0 -0.75789425852E+01 -0.48043993139E+02  0.23053907324E+02  0.53825164099E+02  0.00000000000E+00 0.  1.
</event>
<event>
12    1  0.8461994E-002  0.1937524E+03  0.7818608E-02  0.1155193E+00
         21   -1    0    0  501  502  0.00000000000E+00  0.00000000000E+00  0.15401910648E+03  0.15401910648E+03  0.00000000000E+00 0.  1.
         21   -1    0    0  502  503 -0.00000000000E+00 -0.00000000000E+00 -0.40254639028E+03  0.40254639028E+03  0.00000000000E+00 0.  1.
         -6    2    1    2    0  503 -0.34675806164E+01  0.89624191519E+02 -0.29921926659E+03  0.35629147345E+03  0.17136780542E+03 0.  0.
        -24    2    3    3    0    0 -0.11056612093E+02  0.11342811023E+03 -0.30014651364E+03  0.33085194256E+03  0.79918041661E+02 0.  0.
          6    2    1    2  501    0  0.34675806164E+01 -0.89624191519E+02  0.50691982795E+02  0.20027402331E+03  0.17174250340E+03 0.  0.
         24    2    5    5    0    0  0.30870181255E+02  0.11241892204E+02 -0.13977424304E+02  0.77273651030E+02  0.68531018688E+02 0.  0.
          5    1    5    5  501    0 -0.27402600638E+02 -0.10086608372E+03  0.64669407099E+02  0.12300037228E+03  0.47000000000E+01 0. -1.
        -11    1    6    6    0    0  0.13502158523E+02 -0.28403075859E+02  0.10225459369E+01  0.31465673412E+02  0.00000000000E+00 0.  1.
         12    1    6    6    0    0  0.17368022732E+02  0.39644968063E+02 -0.14999970241E+02  0.45807977619E+02  0.00000000000E+00 0. -1.
         -5    1    3    3    0  503  0.75890314769E+01 -0.23803918714E+02  0.92724704809E+00  0.25439530892E+02  0.47000000000E+01 0.  1.
         13    1    4    4    0    0 -0.38356866129E+02  0.24661338072E+02 -0.11521901743E+03  0.12391469950E+03  0.00000000000E+00 0. -1.
        -14    1    4    4    0    0  0.27300254036E+02  0.88766772160E+02 -0.18492749621E+03  0.20693724306E+03  0.00000000000E+00 0.  1.
</event>
<event>
12    1  0.8461994E-002  0.1921011E+03  0.7818608E-02  0.1156719E+00
         21   -1    0    0  501  502  0.00000000000E+00  0.00000000000E+00  0.93441095774E+02  0.93441095774E+02  0.00000000000E+00 0. -1.
         21   -1    0    0  502  503 -0.00000000000E+00 -0.00000000000E+00 -0.49261741873E+03  0.49261741873E+03  0.00000000000E+00 0. -1.
         -6    2    1    2    0  503  0.68939790065E+02  0.49822149229E+02 -0.68503052730E+02  0.20394974881E+03  0.17224369538E+03 0.  0.
        -24    2    3    3    0    0  0.88456199934E+02  0.31978432759E+02  0.77904818425E+01  0.12306661158E+03  0.78978350254E+02 0.  0.
          6    2    1    2  501    0 -0.68939790065E+02 -0.49822149229E+02 -0.33067327022E+03  0.38210876569E+03  0.17154403507E+03 0.  0.
         24    2    5    5    0    0 -0.20627305453E+02 -0.92929943388E+02 -0.24953841842E+03  0.27819855318E+03  0.77868816707E+02 0.  0.
          5    1    5    5  501    0 -0.48312484612E+02  0.43107794159E+02 -0.81134851809E+02  0.10391021251E+03  0.47000000000E+01 0. -1.
        -13    1    6    6    0    0  0.10152653173E+02  0.87509785197E+01 -0.54273943825E+02  0.55904534430E+02  0.00000000000E+00 0.  1.
         14    1    6    6    0    0 -0.30779958626E+02 -0.10168092191E+03 -0.19526447459E+03  0.22229401875E+03  0.00000000000E+00 0. -1.
         -5    1    3    3    0  503 -0.19516409869E+02  0.17843716470E+02 -0.76293534573E+02  0.80883137237E+02  0.47000000000E+01 0.  1.
         13    1    4    4    0    0  0.47614673114E+02 -0.14987090020E+02  0.28489190635E+02  0.57475246377E+02  0.00000000000E+00 0. -1.
        -14    1    4    4    0    0  0.40841526821E+02  0.46965522779E+02 -0.20698708793E+02  0.65591365199E+02  0.00000000000E+00 0.  1.
</event>
<event>
12    1  0.8461994E-002  0.2197160E+03  0.7818608E-02  0.1134509E+00
         21   -1    0    0  503  502  0.00000000000E+00  0.00000000000E+00  0.78935707082E+03  0.78935707082E+03  0.00000000000E+00 0. -1.
         21   -1    0    0  501  503 -0.00000000000E+00 -0.00000000000E+00 -0.61568440367E+02  0.61568440367E+02  0.00000000000E+00 0.  1.
          6    2    1    2  501    0 -0.12892675977E+03 -0.46198444265E+02  0.42056805655E+03  0.47450249494E+03  0.17181013322E+03 0.  0.
         24    2    3    3    0    0 -0.14287409732E+03 -0.58812013338E+02  0.26549389318E+03  0.31822160522E+03  0.83103081245E+02 0.  0.
         -6    2    1    2    0  502  0.12892675977E+03  0.46198444265E+02  0.30722057390E+03  0.37642301624E+03  0.16897751476E+03 0.  0.
        -24    2    5    5    0    0  0.49475772155E+02  0.75333323244E+02  0.22996536525E+03  0.26174190241E+03  0.86612889585E+02 0.  0.
          5    1    3    3  501    0  0.13947337546E+02  0.12613569074E+02  0.15507416337E+03  0.15628088973E+03  0.47000000000E+01 0. -1.
        -13    1    4    4    0    0 -0.38200739531E+02 -0.58387467614E+02  0.89958551479E+02  0.11384609725E+03  0.00000000000E+00 0.  1.
         14    1    4    4    0    0 -0.10467335778E+03 -0.42454572415E+00  0.17553534170E+03  0.20437550796E+03  0.00000000000E+00 0. -1.
         -5    1    5    5    0  502  0.79450987615E+02 -0.29134878979E+02  0.77255208651E+02  0.11468111383E+03  0.47000000000E+01 0.  1.
         13    1    6    6    0    0  0.77972528703E+01  0.53548603248E+02  0.43477794519E+02  0.69415910845E+02  0.00000000000E+00 0. -1.
        -14    1    6    6    0    0  0.41678519284E+02  0.21784719996E+02  0.18648757073E+03  0.19232599157E+03  0.00000000000E+00 0.  1.
</event>
<event>
12    1  0.8461994E-002  0.1813382E+03  0.7818608E-02  0.1167258E+00
         21   -1    0    0  501  502  0.00000000000E+00  0.00000000000E+00  0.73336972635E+02  0.73336972635E+02  0.00000000000E+00 0. -1.
         21   -1    0    0  502  503 -0.00000000000E+00 -0.00000000000E+00 -0.67189778670E+03  0.67189778670E+03  0.00000000000E+00 0. -1.
         -6    2    1    2    0  503 -0.31741233460E+02 -0.46087733393E+02 -0.51947930718E+03  0.55022022529E+03  0.17248756670E+03 0.  0.
        -24    2    3    3    0    0  0.19498065779E+02 -0.62589883020E+02 -0.18973553464E+03  0.21607829100E+03  0.79953653509E+02 0.  0.
          6    2    1    2  501    0  0.31741233460E+02  0.46087733393E+02 -0.79081506889E+02  0.19501453404E+03  0.16924892521E+03 0.  0.
         24    2    5    5    0    0  0.83807556127E+02  0.30146722740E+02 -0.76262300344E+02  0.14028743196E+03  0.77020086711E+02 0.  0.
          5    1    5    5  501    0 -0.52066322666E+02  0.15941010653E+02 -0.28192065450E+01  0.54727102081E+02  0.47000000000E+01 0. -1.
        -13    1    6    6    0    0  0.54849607331E+02  0.10308391905E+02 -0.87191767949E+02  0.10352365317E+03  0.00000000000E+00 0.  1.
         14    1    6    6    0    0  0.28957948796E+02  0.19838330835E+02  0.10929467605E+02  0.36763778790E+02  0.00000000000E+00 0. -1.
         -5    1    3    3    0  503 -0.51239299240E+02  0.16502149627E+02 -0.32974377253E+03  0.33414193429E+03  0.47000000000E+01 0.  1.
         11    1    4    4    0    0 -0.17742131578E+02  0.55811058484E+01 -0.76711278057E+02  0.78933846711E+02  0.00000000000E+00 0. -1.
        -12    1    4    4    0    0  0.37240197357E+02 -0.68170988869E+02 -0.11302425659E+03  0.13714444429E+03  0.00000000000E+00 0.  1.
</event>
<event>
12    1  0.8461994E-002  0.1815885E+03  0.7818608E-02  0.1168473E+00
         21   -1    0    0  503  502  0.00000000000E+00  0.00000000000E+00  0.84993531602E+02  0.84993531602E+02  0.00000000000E+00 0. -1.
         21   -1    0    0  501  503 -0.00000000000E+00 -0.00000000000E+00 -0.43619009676E+03  0.43619009676E+03  0.00000000000E+00 0. -1.
          6    2    1    2  501    0  0.29804836936E+01  0.47112460505E+02 -0.28153619157E+03  0.33501791455E+03  0.17534511309E+03 0.  0.
         24    2    3    3    0    0 -0.66986655644E+01 -0.42960503792E+02 -0.14810024245E+03  0.17366715581E+03  0.79599762477E+02 0.  0.
         -6    2    1    2    0  502 -0.29804836936E+01 -0.47112460505E+02 -0.69660373583E+02  0.18616571381E+03  0.16606215142E+03 0.  0.
        -24    2    5    5    0    0 -0.10908977908E+02 -0.85068751456E+02 -0.16030878774E+02  0.11981999988E+03  0.82122743648E+02 0.  0.
          5    1    3    3  501    0  0.96791492580E+01  0.90072964297E+02 -0.13343594913E+03  0.16135075874E+03  0.47000000000E+01 0. -1.
        -13    1    4    4    0    0 -0.41924773923E+02 -0.25964871495E+02 -0.62967152726E+02  0.79979519520E+02  0.00000000000E+00 0.  1.
         14    1    4    4    0    0  0.35226108359E+02 -0.16995632297E+02 -0.85133089722E+02  0.93687636286E+02  0.00000000000E+00 0. -1.
         -5    1    5    5    0  502  0.79284942149E+01  0.37956290951E+02 -0.53629494809E+02  0.66345713929E+02  0.47000000000E+01 0.  1.
         11    1    6    6    0    0  0.28900342942E+02 -0.18426833615E+02  0.13399961377E+02  0.36801317696E+02  0.00000000000E+00 0. -1.
        -12    1    6    6    0    0 -0.39809320850E+02 -0.66641917841E+02 -0.29430840151E+02  0.83018682187E+02  0.00000000000E+00 0.  1.
</event>
<event>
12    1  0.8461994E-002  0.2199673E+03  0.7818608E-02  0.1135318E+00
         21   -1    0    0  501  502  0.00000000000E+00  0.00000000000E+00  0.14653907443E+03  0.14653907443E+03  0.00000000000E+00 0.  1.
         21   -1    0    0  502  503 -0.00000000000E+00 -0.00000000000E+00 -0.50517588320E+03  0.50517588320E+03  0.00000000000E+00 0. -1.
         -6    2    1    2    0  503 -0.99504896846E+02  0.75734690205E+02 -0.37510194986E+03  0.43113232977E+03  0.17186228553E+03 0.  0.
        -24    2    3    3    0    0  0.95920293608E+01  0.19880949657E+01 -0.14247836464E+03  0.16378139557E+03  0.80176689854E+02 0.  0.
          6    2    1    2  501    0  0.99504896846E+02 -0.75734690205E+02  0.16465141088E+02  0.22058262786E+03  0.18096581734E+03 0.  0.
         24    2    5    5    0    0  0.90263102425E+02 -0.39979888516E+02  0.77933093378E+02  0.14872014970E+03  0.79361809066E+02 0.  0.
          5    1    5    5  501    0  0.92417944207E+01 -0.35754801690E+02 -0.61467952290E+02  0.71862478156E+02  0.47000000000E+01 0. -1.
        -13    1    6    6    0    0  0.56181977575E+02 -0.60060183096E+02  0.32372099520E+02  0.88383216874E+02  0.00000000000E+00 0.  1.
         14    1    6    6    0    0  0.34081124850E+02  0.20080294580E+02  0.45560993859E+02  0.60336932826E+02  0.00000000000E+00 0. -1.
         -5    1    3    3    0  503 -0.10909692621E+03  0.73746595240E+02 -0.23262358522E+03  0.26735093420E+03  0.47000000000E+01 0.  1.
         13    1    4    4    0    0 -0.17784169518E+02  0.30263097745E+02 -0.99477935549E+02  0.10548929534E+03  0.00000000000E+00 0. -1.
        -14    1    4    4    0    0  0.27376198878E+02 -0.28275002779E+02 -0.43000429090E+02  0.58292100229E+02  0.00000000000E+00 0.  1.
</event>
<event>
12    1  0.8461994E-002  0.2928206E+03  0.7818608E-02  0.1089270E+00
         21   -1    0    0  501  502  0.00000000000E+00  0.00000000000E+00  0.91171166231E+03  0.91171166231E+03  0.00000000000E+00 0.  1.
         21   -1    0    0  502  503 -0.00000000000E+00 -0.00000000000E+00 -0.93293581112E+02  0.93293581112E+02  0.00000000000E+00 0.  1.
         -6    2    1    2    0  503  0.14844713715E+03 -0.18008711991E+03  0.38817117994E+03  0.48623115849E+03  0.17685008133E+03 0.  0.
        -24    2    3    3    0    0  0.12631100676E+03 -0.61324662454E+02  0.17283616491E+03  0.23927815028E+03  0.87558601208E+02 0.  0.
          6    2    1    2  501    0 -0.14844713715E+03  0.18008711991E+03  0.43024690126E+03  0.51877408493E+03  0.17189017386E+03 0.  0.
         24    2    5    5    0    0 -0.15516498026E+03  0.13174326304E+03  0.25062748798E+03  0.33258202941E+03  0.79775999521E+02 0.  0.
          5    1    5    5  501    0  0.67178431054E+01  0.48343856866E+02  0.17961941328E+03  0.18619205553E+03  0.47000000000E+01 0. -1.
        -13    1    6    6    0    0 -0.13615742667E+03  0.72006556067E+02  0.15727537719E+03  0.22013480693E+03  0.00000000000E+00 0.  1.
         14    1    6    6    0    0 -0.19007553590E+02  0.59736706974E+02  0.93352110787E+02  0.11244722247E+03  0.00000000000E+00 0. -1.
         -5    1    3    3    0  503  0.22136130395E+02 -0.11876245745E+03  0.21533501502E+03  0.24695300821E+03  0.47000000000E+01 0.  1.
         13    1    4    4    0    0 -0.12524785368E+02  0.23103145806E+01  0.14131096278E+02  0.19023556030E+02  0.00000000000E+00 0. -1.
        -14    1    4    4    0    0  0.13883579212E+03 -0.63634977034E+02  0.15870506863E+03  0.22025459425E+03  0.00000000000E+00 0.  1.
</event>
<event>
12    1  0.8461994E-002  0.1857427E+03  0.7818608E-02  0.1162478E+00
         21   -1    0    0  503  502  0.00000000000E+00  0.00000000000E+00  0.14457318301E+02  0.14457318301E+02  0.00000000000E+00 0. -1.
         21   -1    0    0  501  503 -0.00000000000E+00 -0.00000000000E+00 -0.24745670066E+04  0.24745670066E+04  0.00000000000E+00 0. -1.
          6    2    1    2  501    0  0.68227238553E+02  0.71623308132E+01 -0.98806409375E+03  0.10053710800E+04  0.17260967558E+03 0.  0.
         24    2    3    3    0    0 -0.10867166309E+01  0.47059022951E+02 -0.31163522315E+03  0.32421450667E+03  0.76044733104E+02 0.  0.
         -6    2    1    2    0  502 -0.68227238553E+02 -0.71623308132E+01 -0.14720455945E+04  0.14836532449E+04  0.17205366481E+03 0.  0.
        -24    2    5    5    0    0 -0.64173272598E+02 -0.26728422220E+02 -0.49127542487E+03  0.50266828970E+03  0.80568287306E+02 0.  0.
          5    1    3    3  501    0  0.69313955184E+02 -0.39896692137E+02 -0.67642887060E+03  0.68115657334E+03  0.47000000000E+01 0. -1.
        -13    1    4    4    0    0 -0.37442756386E+02  0.22917291150E+02 -0.18943823211E+03  0.19445823722E+03  0.00000000000E+00 0.  1.
         14    1    4    4    0    0  0.36356039756E+02  0.24141731800E+02 -0.12219699104E+03  0.12975626945E+03  0.00000000000E+00 0. -1.
         -5    1    5    5    0  502 -0.40539659548E+01  0.19566091407E+02 -0.98077016966E+03  0.98098495517E+03  0.47000000000E+01 0.  1.
         11    1    6    6    0    0 -0.71837057837E+02 -0.18454668555E+02 -0.48304638755E+03  0.48870742801E+03  0.00000000000E+00 0. -1.
        -12    1    6    6    0    0  0.76637852386E+01 -0.82737536646E+01 -0.82290373229E+01  0.13960861691E+02  0.00000000000E+00 0.  1.
</event>
<event>
12    1  0.8461994E-002  0.1835952E+03  0.7818608E-02  0.1164432E+00
         21   -1    0    0  501  502  0.00000000000E+00  0.00000000000E+00  0.14000114266E+03  0.14000114266E+03  0.00000000000E+00 0.  1.
         21   -1    0    0  502  503 -0.00000000000E+00 -0.00000000000E+00 -0.25758122513E+03  0.25758122513E+03  0.00000000000E+00 0.  1.
         -6    2    1    2    0  503  0.24846892003E+01 -0.61596749233E+02 -0.74997956655E+01  0.18374831502E+03  0.17293600880E+03 0.  0.
        -24    2    3    3    0    0 -0.35270283169E+02  0.20691005476E+02  0.64615155890E+00  0.92725466406E+02  0.83219493064E+02 0.  0.
          6    2    1    2  501    0 -0.24846892003E+01  0.61596749233E+02 -0.11008028680E+03  0.21383405277E+03  0.17264703700E+03 0.  0.
         24    2    5    5    0    0  0.39803776303E+02  0.47873194158E+02 -0.12962999797E+03  0.16503926325E+03  0.80980483532E+02 0.  0.
          5    1    5    5  501    0 -0.42288465503E+02  0.13723555074E+02  0.19549711162E+02  0.48794789527E+02  0.47000000000E+01 0. -1.
        -13    1    6    6    0    0  0.32536736115E+02  0.68118144119E+02 -0.11929928891E+03  0.14117733915E+03  0.00000000000E+00 0.  1.
         14    1    6    6    0    0  0.72670401882E+01 -0.20244949961E+02 -0.10330709060E+02  0.23861924098E+02  0.00000000000E+00 0. -1.
         -5    1    3    3    0  503  0.37754972370E+02 -0.82287754709E+02 -0.81459472244E+01  0.91022848614E+02  0.47000000000E+01 0.  1.
         11    1    4    4    0    0 -0.83714758251E+01 -0.10052115095E+02 -0.35716084134E+02  0.38036368008E+02  0.00000000000E+00 0. -1.
        -12    1    4    4    0    0 -0.26898807344E+02  0.30743120571E+02  0.36362235693E+02  0.54689098398E+02  0.00000000000E+00 0.  1.
</event>
<event>
12    1  0.8461994E-002  0.1846893E+03  0.7818608E-02  0.1163854E+00
         21   -1    0    0  501  502  0.00000000000E+00  0.00000000000E+00  0.25307647980E+03  0.25307647980E+03  0.00000000000E+00 0.  1.
         21   -1    0    0  502  503 -0.00000000000E+00 -0.00000000000E+00 -0.13364331577E+03  0.13364331577E+03  0.00000000000E+00 0. -1.
         -6    2    1    2    0  503 -0.70002488147E+02  0.11536611203E+01  0.48878656419E+02  0.19104783024E+03  0.17090485981E+03 0.  0.
        -24    2    3    3    0    0 -0.85028234392E+02 -0.45432077732E+02  0.63322090847E+02  0.13979642136E+03  0.78990365892E+02 0.  0.
          6    2    1    2  501    0  0.70002488147E+02 -0.11536611203E+01  0.70554507618E+02  0.19567196533E+03  0.16854643333E+03 0.  0.
         24    2    5    5    0    0  0.49434801912E+02 -0.13167447700E+02  0.11353269957E+03  0.14631028212E+03  0.76810438508E+02 0.  0.
          5    1    5    5  501    0  0.20567686235E+02  0.12013786579E+02 -0.42978191955E+02  0.49361683204E+02  0.47000000000E+01 0. -1.
        -13    1    6    6    0    0  0.57046901681E+02  0.13162139460E+02  0.99677797311E+02  0.11559954231E+03  0.00000000000E+00 0.  1.
         14    1    6    6    0    0 -0.76120997688E+01 -0.26329587160E+02  0.13854902261E+02  0.30710739808E+02  0.00000000000E+00 0. -1.
         -5    1    3    3    0  503  0.15025746245E+02  0.46585738853E+02 -0.14443434428E+02  0.51251408886E+02  0.47000000000E+01 0.  1.
         11    1    4    4    0    0 -0.61278183324E+02 -0.27107750729E+02 -0.29292594080E+01  0.67070309838E+02  0.00000000000E+00 0. -1.
        -12    1    4    4    0    0 -0.23750051068E+02 -0.18324327003E+02  0.66251350255E+02  0.72726111518E+02  0.00000000000E+00 0.  1.
</event>
<event>
12    1  0.8461994E-002  0.2835136E+03  0.7818608E-02  0.1093793E+00
         21   -1    0    0  503  502  0.00000000000E+00  0.00000000000E+00  0.82600532427E+02  0.82600532427E+02  0.00000000000E+00 0.  1.
         21   -1    0    0  501  503 -0.00000000000E+00 -0.00000000000E+00 -0.10041163487E+04  0.10041163487E+04  0.00000000000E+00 0. -1.
          6    2    1    2  501    0 -0.10851793338E+02 -0.22541477122E+03 -0.36491769593E+03  0.46207184921E+03  0.17151060761E+03 0.  0.
         24    2    3    3    0    0 -0.20948774983E+02 -0.12631618236E+03 -0.10389170685E+03  0.18264540750E+03  0.78557170438E+02 0.  0.
         -6    2    1    2    0  502  0.10851793338E+02  0.22541477122E+03 -0.55659812038E+03  0.62464503196E+03  0.17161109474E+03 0.  0.
        -24    2    5    5    0    0  0.33902533890E+02  0.15518448319E+03 -0.23417086713E+03  0.29382022389E+03  0.79137369970E+02 0.  0.
          5    1    3    3  501    0  0.10096981645E+02 -0.99098588860E+02 -0.26102598908E+03  0.27942644171E+03  0.47000000000E+01 0. -1.
        -13    1    4    4    0    0  0.27650491986E+02 -0.37013377891E+02 -0.48010525743E+02  0.66629951464E+02  0.00000000000E+00 0.  1.
         14    1    4    4    0    0 -0.48599266969E+02 -0.89302804471E+02 -0.55881181111E+02  0.11601545603E+03  0.00000000000E+00 0. -1.
         -5    1    5    5    0  502 -0.23050740552E+02  0.70230288031E+02 -0.32242725325E+03  0.33082480807E+03  0.47000000000E+01 0.  1.
         13    1    6    6    0    0  0.49881951522E+02  0.98134271385E+02 -0.19121905712E+03  0.22064286101E+03  0.00000000000E+00 0. -1.
        -14    1    6    6    0    0 -0.15979417632E+02  0.57050211805E+02 -0.42951810009E+02  0.73177362879E+02  0.00000000000E+00 0.  1.
</event>
<event>
12    1  0.8461994E-002  0.2051146E+03  0.7818608E-02  0.1148950E+00
         21   -1    0    0  503  502  0.00000000000E+00  0.00000000000E+00  0.18860333156E+03  0.18860333156E+03  0.00000000000E+00 0. -1.
         21   -1    0    0  501  503 -0.00000000000E+00 -0.00000000000E+00 -0.29309372449E+03  0.29309372449E+03  0.00000000000E+00 0.  1.
          6    2    1    2  501    0  0.49403117421E+02  0.10233819563E+03 -0.18210164878E+03  0.26239020530E+03  0.15091002302E+03 0.  0.
         24    2    3    3    0    0  0.72987684883E+01  0.42311509787E+02 -0.16333989797E+03  0.18656097276E+03  0.79256156905E+02 0.  0.
         -6    2    1    2    0  502 -0.49403117421E+02 -0.10233819563E+03  0.77611255860E+02  0.21930685076E+03  0.17075776250E+03 0.  0.
        -24    2    5    5    0    0 -0.43608273176E+02  0.92357253796E+01  0.44166885641E+02  0.10258951713E+03  0.81159812249E+02 0.  0.
          5    1    3    3  501    0  0.42104348933E+02  0.60026685847E+02 -0.18761750812E+02  0.75829232532E+02  0.47000000000E+01 0. -1.
        -11    1    4    4    0    0  0.11401615199E+02  0.10943840400E+02 -0.15220559286E+03  0.15302387712E+03  0.00000000000E+00 0.  1.
         12    1    4    4    0    0 -0.41028467110E+01  0.31367669387E+02 -0.11134305116E+02  0.33537095645E+02  0.00000000000E+00 0. -1.
         -5    1    5    5    0  502 -0.57948442456E+01 -0.11157392101E+03  0.33444370219E+02  0.11671733363E+03  0.47000000000E+01 0.  1.
         11    1    6    6    0    0 -0.36860260738E+02 -0.26901022394E+02  0.47263838118E+02  0.65697901193E+02  0.00000000000E+00 0. -1.
        -12    1    6    6    0    0 -0.67480124378E+01  0.36136747774E+02 -0.30969524767E+01  0.36891615933E+02  0.00000000000E+00 0.  1.
</event>
<event>
12    1  0.8461994E-002  0.2419171E+03  0.7818608E-02  0.1118789E+00
         21   -1    0    0  503  502  0.00000000000E+00  0.00000000000E+00  0.44289116689E+03  0.44289116689E+03  0.00000000000E+00 0.  1.
         21   -1    0    0  501  503 -0.00000000000E+00 -0.00000000000E+00 -0.14357214593E+03  0.14357214593E+03  0.00000000000E+00 0.  1.
          6    2    1    2  501    0 -0.16567219187E+03  0.37417243032E+02  0.23598021106E+03  0.33795049490E+03  0.17226883570E+03 0.  0.
         24    2    3    3    0    0 -0.12742784298E+03 -0.35427947705E+02  0.18598328028E+03  0.24156151668E+03  0.79178223958E+02 0.  0.
         -6    2    1    2    0  502  0.16567219187E+03 -0.37417243032E+02  0.63338809901E+02  0.24851281792E+03  0.16999850174E+03 0.  0.
        -24    2    5    5    0    0  0.16111283756E+03 -0.19651729473E+02  0.10000490098E+03  0.20724668872E+03  0.81281442319E+02 0.  0.
          5    1    3    3  501    0 -0.38244348896E+02  0.72845190737E+02  0.49996930783E+02  0.96388978228E+02  0.47000000000E+01 0. -1.
        -11    1    4    4    0    0 -0.82483599366E+02 -0.18435495895E+02  0.17179704232E+03  0.19146183803E+03  0.00000000000E+00 0.  1.
         12    1    4    4    0    0 -0.44944243613E+02 -0.16992451810E+02  0.14186237961E+02  0.50099678641E+02  0.00000000000E+00 0. -1.
         -5    1    5    5    0  502  0.45593543099E+01 -0.17765513559E+02 -0.36666091082E+02  0.41266129198E+02  0.47000000000E+01 0.  1.
         11    1    6    6    0    0  0.12206615609E+03 -0.49737094369E+02  0.78948104940E+02  0.15364481213E+03  0.00000000000E+00 0. -1.
        -12    1    6    6    0    0  0.39046681472E+02  0.30085364895E+02  0.21056796043E+02  0.53601876594E+02  0.00000000000E+00 0.  1.
</event>
<event>
12    1  0.8461994E-002  0.1866573E+03  0.7818608E-02  0.1161606E+00
         21   -1    0    0  503  502  0.00000000000E+00  0.00000000000E+00  0.41883561692E+02  0.41883561692E+02  0.00000000000E+00 0. -1.
         21   -1    0    0  501  503 -0.00000000000E+00 -0.00000000000E+00 -0.10802536724E+04  0.10802536724E+04  0.00000000000E+00 0. -1.
          6    2    1    2  501    0 -0.17916239379E+02 -0.66612640215E+02 -0.78966015922E+03  0.81142104141E+03  0.17344366209E+03 0.  0.
         24    2    3    3    0    0 -0.33536129168E+01 -0.60229648421E+02 -0.22985791419E+03  0.25137331468E+03  0.81945258259E+02 0.  0.
         -6    2    1    2    0  502  0.17916239379E+02  0.66612640215E+02 -0.24870995152E+03  0.31071619271E+03  0.17300195651E+03 0.  0.
        -24    2    5    5    0    0  0.26368827606E+02  0.11481149064E+03 -0.18902006295E+03  0.23338865410E+03  0.69747302539E+02 0.  0.
          5    1    3    3  501    0 -0.14562626462E+02 -0.63829917945E+01 -0.55980224503E+03  0.56004772673E+03  0.47000000000E+01 0. -1.
        -11    1    4    4    0    0 -0.99981020282E+01  0.15012490826E+02 -0.14468052587E+02  0.23122747904E+02  0.00000000000E+00 0.  1.
         12    1    4    4    0    0  0.66444891114E+01 -0.75242139247E+02 -0.21538986160E+03  0.22825056678E+03  0.00000000000E+00 0. -1.
         -5    1    5    5    0  502 -0.84525882271E+01 -0.48198850428E+02 -0.59689888573E+02  0.77327538615E+02  0.47000000000E+01 0.  1.
         11    1    6    6    0    0 -0.20890787942E+02  0.59235819154E+02 -0.10252563653E+03  0.12023648962E+03  0.00000000000E+00 0. -1.
        -12    1    6    6    0    0  0.47259615548E+02  0.55575671489E+02 -0.86494426419E+02  0.11315216447E+03  0.00000000000E+00 0.  1.
</event>
<event>
12    1  0.8461994E-002  0.3847514E+03  0.7818608E-02  0.1049408E+00
         21   -1    0    0  501  502  0.00000000000E+00  0.00000000000E+00  0.90888776800E+02  0.90888776800E+02  0.00000000000E+00 0.  1.
         21   -1    0    0  502  503 -0.00000000000E+00 -0.00000000000E+00 -0.20083355795E+04  0.20083355795E+04  0.00000000000E+00 0.  1.
         -6    2    1    2    0  503 -0.29118322441E+03 -0.18034665707E+03 -0.14234380036E+04  0.14745200593E+04  0.17527426620E+03 0.  0.
        -24    2    3    3    0    0 -0.53461731297E+02 -0.41914538825E+02 -0.29649309744E+03  0.31447615018E+03  0.79825477907E+02 0.  0.
          6    2    1    2  501    0  0.29118322441E+03  0.18034665707E+03 -0.49400879917E+03  0.62470429704E+03  0.16999464163E+03 0.  0.
         24    2    5    5    0    0  0.21561184820E+03  0.19685429107E+03 -0.42269865349E+03  0.51939161138E+03  0.76507602996E+02 0.  0.
          5    1    5    5  501    0  0.75571376215E+02 -0.16507633998E+02 -0.71310145686E+02  0.10531268566E+03  0.47000000000E+01 0. -1.
        -13    1    6    6    0    0  0.20569450279E+03  0.15944823382E+03 -0.34080267252E+03  0.42881281388E+03  0.00000000000E+00 0.  1.
         14    1    6    6    0    0  0.99173454056E+01  0.37406057242E+02 -0.81895980965E+02  0.90578797500E+02  0.00000000000E+00 0. -1.
         -5    1    3    3    0  503 -0.23772149311E+03 -0.13843211824E+03 -0.11269449061E+04  0.11600439091E+04  0.47000000000E+01 0.  1.
         13    1    4    4    0    0 -0.37718743707E+02  0.13978257355E+00 -0.43705657896E+02  0.57731340693E+02  0.00000000000E+00 0. -1.
        -14    1    4    4    0    0 -0.15742987589E+02 -0.42054321399E+02 -0.25278743955E+03  0.25674480949E+03  0.00000000000E+00 0.  1.
</event>
<event>
12    1  0.8461994E-002  0.2715819E+03  0.7818608E-02  0.1101005E+00
         21   -1    0    0  501  502  0.00000000000E+00  0.00000000000E+00  0.25432864025E+03  0.25432864025E+03  0.00000000000E+00 0. -1.
         21   -1    0    0  502  503 -0.00000000000E+00 -0.00000000000E+00 -0.34633713834E+03  0.34633713834E+03  0.00000000000E+00 0.  1.
         -6    2    1    2    0  503  0.12350950256E+03  0.16238074097E+03 -0.17172273592E+03  0.31762676859E+03  0.17255713208E+03 0.  0.
        -24    2    3    3    0    0  0.14112668865E+03  0.14103091271E+03 -0.91798196566E+02  0.23291429959E+03  0.77560953278E+02 0.  0.
          6    2    1    2  501    0 -0.12350950256E+03 -0.16238074097E+03  0.79714237829E+02  0.28303901000E+03  0.17926131543E+03 0.  0.
         24    2    5    5    0    0 -0.33909564261E+02 -0.57066868256E+01  0.48059227904E+02  0.99738606735E+02  0.80347218146E+02 0.  0.
          5    1    5    5  501    0 -0.89599938303E+02 -0.15667405414E+03  0.31655009924E+02  0.18330040327E+03  0.47000000000E+01 0. -1.
        -11    1    6    6    0    0  0.14820226615E+02  0.50881106073E+01 -0.13363516410E+02  0.20593968954E+02  0.00000000000E+00 0.  1.
         12    1    6    6    0    0 -0.48729790876E+02 -0.10794797433E+02  0.61422744314E+02  0.79144637781E+02  0.00000000000E+00 0. -1.
         -5    1    3    3    0  503 -0.17617186085E+02  0.21349828257E+02 -0.79924539355E+02  0.84712468995E+02  0.47000000000E+01 0.  1.
         11    1    4    4    0    0  0.65563860135E+02  0.23341325219E+02 -0.84573200932E+01  0.70106800540E+02  0.00000000000E+00 0. -1.
        -12    1    4    4    0    0  0.75562828515E+02  0.11768958749E+03 -0.83340876473E+02  0.16280749905E+03  0.00000000000E+00 0.  1.
</event>
<event>
12    1  0.8461994E-002  0.2064052E+03  0.7818608E-02  0.1144548E+00
         21   -1    0    0  503  502  0.00000000000E+00  0.00000000000E+00  0.13717041264E+03  0.13717041264E+03  0.00000000000E+00 0.  1.
         21   -1    0    0  501  503 -0.00000000000E+00 -0.00000000000E+00 -0.69854477760E+03  0.69854477760E+03  0.00000000000E+00 0. -1.
          6    2    1    2  501    0 -0.29281738902E+02 -0.10804926924E+03 -0.59224416356E+03  0.62701430829E+03  0.17280546493E+03 0.  0.
         24    2    3    3    0    0 -0.35627604422E+02  0.28204526920E+01 -0.34287699755E+03  0.35399702178E+03  0.80448584991E+02 0.  0.
         -6    2    1    2    0  502  0.29281738902E+02  0.10804926924E+03  0.30869798600E+02  0.20870088195E+03  0.17341005981E+03 0.  0.
        -24    2    5    5    0    0  0.85874359328E+02  0.68880468428E+02  0.22928053996E+02  0.13925967695E+03  0.82150090960E+02 0.  0.
          5    1    3    3  501    0  0.63458655203E+01 -0.11086972193E+03 -0.24936716601E+03  0.27301728652E+03  0.47000000000E+01 0. -1.
        -13    1    4    4    0    0 -0.19914229390E+02  0.14434892471E+02 -0.23482717521E+02  0.34005597701E+02  0.00000000000E+00 0.  1.
         14    1    4    4    0    0 -0.15713375033E+02 -0.11614439779E+02 -0.31939428003E+03  0.31999142407E+03  0.00000000000E+00 0. -1.
         -5    1    5    5    0  502 -0.56592620426E+02  0.39168800811E+02  0.79417446034E+01  0.69441204994E+02  0.47000000000E+01 0.  1.
         11    1    6    6    0    0  0.15095164950E+02  0.36275116923E+02 -0.26120270939E+02  0.47180681073E+02  0.00000000000E+00 0. -1.
        -12    1    6    6    0    0  0.70779194378E+02  0.32605351505E+02  0.49048324935E+02  0.92078995882E+02  0.00000000000E+00 0.  1.
</event>
<event>
12    1  0.8461994E-002  0.2181334E+03  0.7818608E-02  0.1135364E+00
         21   -1    0    0  503  502  0.00000000000E+00  0.00000000000E+00  0.12495904288E+04  0.12495904288E+04  0.00000000000E+00 0. -1.
         21   -1    0    0  501  503 -0.00000000000E+00 -0.00000000000E+00 -0.38084831724E+02  0.38084831724E+02  0.00000000000E+00 0. -1.
          6    2    1    2  501    0  0.95195913256E+02 -0.94351320569E+02  0.63626119922E+03  0.67261466560E+03  0.17209805680E+03 0.  0.
         24    2    3    3    0    0  0.60595454755E-01 -0.51594358717E+01  0.16937479506E+03  0.18783541132E+03  0.81041329548E+02 0.  0.
         -6    2    1    2    0  502 -0.95195913256E+02  0.94351320569E+02  0.57524439787E+03  0.61506059494E+03  0.17154878190E+03 0.  0.
        -24    2    5    5    0    0 -0.13019668727E+03  0.83684196389E+02  0.40802860450E+03  0.44382376108E+03  0.80857694139E+02 0.  0.
          5    1    3    3  501    0  0.95135317801E+02 -0.89191884698E+02  0.46688640416E+03  0.48477925428E+03  0.47000000000E+01 0. -1.
        -13    1    4    4    0    0  0.26085751113E+02  0.28173343594E+02  0.91259785810E+02  0.99007839117E+02  0.00000000000E+00 0.  1.
         14    1    4    4    0    0 -0.26025155658E+02 -0.33332779466E+02  0.78115009250E+02  0.88827572207E+02  0.00000000000E+00 0. -1.
         -5    1    5    5    0  502  0.35000774012E+02  0.10667124180E+02  0.16721579336E+03  0.17123683386E+03  0.47000000000E+01 0.  1.
         13    1    6    6    0    0 -0.13401861644E+03  0.57869117106E+02  0.36948173608E+03  0.39727393265E+03  0.00000000000E+00 0. -1.
        -14    1    6    6    0    0  0.38219291753E+01  0.25815079284E+02  0.38546868423E+02  0.46549828424E+02  0.00000000000E+00 0.  1.
</event>
<event>
12    1  0.8461994E-002  0.2018054E+03  0.7818608E-02  0.1148292E+00
         21   -1    0    0  501  502  0.00000000000E+00  0.00000000000E+00  0.32715550295E+03  0.32715550295E+03  0.00000000000E+00 0. -1.
         21   -1    0    0  502  503 -0.00000000000E+00 -0.00000000000E+00 -0.13072566831E+03  0.13072566831E+03  0.00000000000E+00 0.  1.
         -6    2    1    2    0  503  0.81491756331E+02  0.65284021902E+02  0.47472544039E+02  0.20731393078E+03  0.17269196157E+03 0.  0.
        -24    2    3    3    0    0  0.76956945362E+02  0.39650463192E+02 -0.32579166768E+02  0.12300491438E+03  0.81081910340E+02 0.  0.
          6    2    1    2  501    0 -0.81491756331E+02 -0.65284021902E+02  0.14895729060E+03  0.25056724048E+03  0.17231586611E+03 0.  0.
         24    2    5    5    0    0 -0.11783311670E+02  0.17155539796E+02  0.26178484848E+02  0.87006017285E+02  0.80321696915E+02 0.  0.
          5    1    5    5  501    0 -0.69708444661E+02 -0.82439561698E+02  0.12277880575E+03  0.16356122319E+03  0.47000000000E+01 0. -1.
        -13    1    6    6    0    0  0.32894004680E+02  0.94634997634E+01  0.23643910665E+02  0.41600575515E+02  0.00000000000E+00 0.  1.
         14    1    6    6    0    0 -0.44677316350E+02  0.76920400327E+01  0.25345741824E+01  0.45405441770E+02  0.00000000000E+00 0. -1.
         -5    1    3    3    0  503  0.45348109698E+01  0.25633558710E+02  0.80051710808E+02  0.84309016398E+02  0.47000000000E+01 0.  1.
         11    1    4    4    0    0  0.21392323850E+01 -0.15871323167E+02 -0.24787888065E+02  0.29511262409E+02  0.00000000000E+00 0. -1.
        -12    1    4    4    0    0  0.74817712977E+02  0.55521786359E+02 -0.77912787036E+01  0.93493651974E+02  0.00000000000E+00 0.  1.
</event>
<event>
12    1  0.8461994E-002  0.1828784E+03  0.7818608E-02  0.1165056E+00
         21   -1    0    0  501  502  0.00000000000E+00  0.00000000000E+00  0.79610448262E+02  0.79610448262E+02  0.00000000000E+00 0. -1.
         21   -1    0    0  502  503 -0.00000000000E+00 -0.00000000000E+00 -0.48769748340E+03  0.48769748340E+03  0.00000000000E+00 0. -1.
         -6    2    1    2    0  503 -0.53730915148E+02 -0.29516697927E+02 -0.30973878973E+03  0.35969794689E+03  0.17229697744E+03 0.  0.
        -24    2    3    3    0    0 -0.44206615206E+02 -0.10979223680E+02 -0.32217081126E+03  0.33497962575E+03  0.79640127176E+02 0.  0.
          6    2    1    2  501    0  0.53730915148E+02  0.29516697927E+02 -0.98348245403E+02  0.20760998477E+03  0.17225353901E+03 0.  0.
         24    2    5    5    0    0  0.83373121301E+02  0.55917342567E+02 -0.10864499767E+03  0.16633326578E+03  0.76060457737E+02 0.  0.
          5    1    5    5  501    0 -0.29642206153E+02 -0.26400644641E+02  0.10296752270E+02  0.41276718987E+02  0.47000000000E+01 0. -1.
        -11    1    6    6    0    0  0.55256672447E+01  0.44683803049E+02 -0.24929583080E+02  0.51465127668E+02  0.00000000000E+00 0.  1.
         12    1    6    6    0    0  0.77847454056E+02  0.11233539519E+02 -0.83715414593E+02  0.11486813811E+03  0.00000000000E+00 0. -1.
         -5    1    3    3    0  503 -0.95242999413E+01 -0.18537474247E+02  0.12432021529E+02  0.24718321143E+02  0.47000000000E+01 0.  1.
         13    1    4    4    0    0 -0.42849747302E+01  0.31976546468E+02 -0.13686490419E+03  0.14061601093E+03  0.00000000000E+00 0. -1.
        -14    1    4    4    0    0 -0.39921640476E+02 -0.42955770148E+02 -0.18530590707E+03  0.19436361482E+03  0.00000000000E+00 0.  1.
</event>
<event>
12    1  0.8461994E-002  0.1841928E+03  0.7818608E-02  0.1164539E+00
         21   -1    0    0  503  502  0.00000000000E+00  0.00000000000E+00  0.71150848217E+03  0.71150848217E+03  0.00000000000E+00 0.  1.
         21   -1    0    0  501  503 -0.00000000000E+00 -0.00000000000E+00 -0.82879947944E+02  0.82879947944E+02  0.00000000000E+00 0.  1.
          6    2    1    2  501    0 -0.54155552078E+02 -0.18784240263E+02  0.51060257132E+02  0.18816067910E+03  0.17178946358E+03 0.  0.
         24    2    3    3    0    0 -0.38743729908E+02 -0.74277833160E+02  0.52465734071E+02  0.13035818364E+03  0.84984290813E+02 0.  0.
         -6    2    1    2    0  502  0.54155552078E+02  0.18784240263E+02  0.57756827709E+03  0.60622775102E+03  0.17504656494E+03 0.  0.
        -24    2    5    5    0    0  0.88377727717E+02  0.51903466850E+02  0.37823006820E+03  0.40122567298E+03  0.86136307905E+02 0.  0.
          5    1    3    3  501    0 -0.15411822169E+02  0.55493592897E+02 -0.14054769385E+01  0.57802495453E+02  0.47000000000E+01 0. -1.
        -13    1    4    4    0    0 -0.63486287164E+02 -0.51544375330E+02  0.21242816355E+02  0.84490168260E+02  0.00000000000E+00 0.  1.
         14    1    4    4    0    0  0.24742557256E+02 -0.22733457830E+02  0.31222917716E+02  0.45868015383E+02  0.00000000000E+00 0. -1.
         -5    1    5    5    0  502 -0.34222175639E+02 -0.33119226586E+02  0.19933820889E+03  0.20500207804E+03  0.47000000000E+01 0.  1.
         11    1    6    6    0    0 -0.14307346138E+02  0.14878484501E+02  0.10478351355E+03  0.10679725730E+03  0.00000000000E+00 0. -1.
        -12    1    6    6    0    0  0.10268507385E+03  0.37024982349E+02  0.27344655465E+03  0.29442841568E+03  0.00000000000E+00 0.  1.
</event>
<event>
12    1  0.8461994E-002  0.2064657E+03  0.7818608E-02  0.1144454E+00
         21   -1    0    0  503  502  0.00000000000E+00  0.00000000000E+00  0.29499821637E+03  0.29499821637E+03  0.00000000000E+00 0.  1.
         21   -1    0    0  501  503 -0.00000000000E+00 -0.00000000000E+00 -0.24929776818E+03  0.24929776818E+03  0.00000000000E+00 0.  1.
          6    2    1    2  501    0 -0.53794493737E+02  0.10130677403E+03 -0.15377691264E+03  0.25720834119E+03  0.17132390930E+03 0.  0.
         24    2    3    3    0    0 -0.30680033970E+01  0.10564053568E+03 -0.40168619636E+02  0.13262546696E+03  0.69330087692E+02 0.  0.
         -6    2    1    2    0  502  0.53794493737E+02 -0.10130677403E+03  0.19947736082E+03  0.28708764336E+03  0.17167174337E+03 0.  0.
        -24    2    5    5    0    0  0.85604821872E+02 -0.53998346117E+02  0.71630680395E+02  0.14702748477E+03  0.79007088252E+02 0.  0.
          5    1    3    3  501    0 -0.50726490340E+02 -0.43337616576E+01 -0.11360829300E+03  0.12458287423E+03  0.47000000000E+01 0. -1.
        -13    1    4    4    0    0  0.12394267450E+02  0.69499211319E+02 -0.56138017212E+02  0.90195538781E+02  0.00000000000E+00 0.  1.
         14    1    4    4    0    0 -0.15462270847E+02  0.36141324365E+02  0.15969397576E+02  0.42429928182E+02  0.00000000000E+00 0. -1.
         -5    1    5    5    0  502 -0.31810328135E+02 -0.47308427909E+02  0.12784668043E+03  0.14006015859E+03  0.47000000000E+01 0.  1.
         11    1    6    6    0    0  0.52129686013E+02 -0.37694392512E+02  0.85756748587E+02  0.10720350423E+03  0.00000000000E+00 0. -1.
        -12    1    6    6    0    0  0.33475135859E+02 -0.16303953605E+02 -0.14126068192E+02  0.39823980545E+02  0.00000000000E+00 0.  1.
</event>
<event>
12    1  0.8461994E-002  0.2633661E+03  0.7818608E-02  0.1105586E+00
         21   -1    0    0  503  502  0.00000000000E+00  0.00000000000E+00  0.16590236582E+04  0.16590236582E+04  0.00000000000E+00 0. -1.
         21   -1    0    0  501  503 -0.00000000000E+00 -0.00000000000E+00 -0.10067080344E+03  0.10067080344E+03  0.00000000000E+00 0.  1.
          6    2    1    2  501    0 -0.94657990618E+02 -0.17510696450E+03  0.10551988201E+03  0.28371845799E+03  0.17245038041E+03 0.  0.
         24    2    3    3    0    0 -0.75805867632E+02 -0.16839394028E+03  0.27338238132E+02  0.20287956466E+03  0.79433555905E+02 0.  0.
         -6    2    1    2    0  502  0.94657990618E+02  0.17510696450E+03  0.14528329728E+04  0.14759760037E+04  0.16780623477E+03 0.  0.
        -24    2    5    5    0    0  0.11416357748E+03  0.96940535546E+02  0.81835803953E+03  0.83638942670E+03  0.86061619592E+02 0.  0.
          5    1    3    3  501    0 -0.18852122986E+02 -0.67130242202E+01  0.78181643881E+02  0.80838893333E+02  0.47000000000E+01 0. -1.
        -11    1    4    4    0    0 -0.74578338257E+02 -0.73776303263E+02  0.20122550223E+01  0.10492340364E+03  0.00000000000E+00 0.  1.
         12    1    4    4    0    0 -0.12275293758E+01 -0.94617637013E+02  0.25325983110E+02  0.97956161025E+02  0.00000000000E+00 0. -1.
         -5    1    5    5    0  502 -0.19505586860E+02  0.78166428950E+02  0.63447493325E+03  0.63958657698E+03  0.47000000000E+01 0.  1.
         11    1    6    6    0    0  0.17804236335E+02  0.41601134378E+02  0.43217592205E+03  0.43453845953E+03  0.00000000000E+00 0. -1.
        -12    1    6    6    0    0  0.96359341143E+02  0.55339401168E+02  0.38618211748E+03  0.40185096717E+03  0.00000000000E+00 0.  1.
</event>
<event>
12    1  0.8461994E-002  0.1969464E+03  0.7818608E-02  0.1152431E+00
         21   -1    0    0  503  502  0.00000000000E+00  0.00000000000E+00  0.65935254207E+03  0.65935254207E+03  0.00000000000E+00 0. -1.
         21   -1    0    0  501  503 -0.00000000000E+00 -0.00000000000E+00 -0.58703487202E+02  0.58703487202E+02  0.00000000000E+00 0. -1.
          6    2    1    2  501    0 -0.89144653627E+02 -0.35743827968E+02  0.29923811962E+03  0.35823363057E+03  0.17194037144E+03 0.  0.
         24    2    3    3    0    0 -0.95175449935E+01  0.37262559795E+02  0.12198134644E+03  0.15059822241E+03  0.79506563811E+02 0.  0.
         -6    2    1    2    0  502  0.89144653627E+02  0.35743827968E+02  0.30141093525E+03  0.35982239870E+03  0.17146199641E+03 0.  0.
        -24    2    5    5    0    0  0.11255822478E+03  0.65655200465E+02  0.27166483302E+03  0.31134759992E+03  0.78457550075E+02 0.  0.
          5    1    3    3  501    0 -0.79627108634E+02 -0.73006387762E+02  0.17725677317E+03  0.20763540815E+03  0.47000000000E+01 0. -1.
        -11    1    4    4    0    0  0.26890436294E+02  0.31072545862E+02  0.28284525507E+02  0.49886000577E+02  0.00000000000E+00 0.  1.
         12    1    4    4    0    0 -0.36407981287E+02  0.61900139327E+01  0.93696820934E+02  0.10071222184E+03  0.00000000000E+00 0. -1.
         -5    1    5    5    0  502 -0.23413571153E+02 -0.29911372497E+02  0.29746102225E+02  0.48474798776E+02  0.47000000000E+01 0.  1.
         13    1    6    6    0    0  0.32985436378E+02  0.60149190114E+02  0.16032830967E+03  0.17438787506E+03  0.00000000000E+00 0. -1.
        -14    1    6    6    0    0  0.79572788403E+02  0.55060103509E+01  0.11133652335E+03  0.13695972487E+03  0.00000000000E+00 0.  1.
</event>
<event>
12    1  0.8461994E-002  0.2000008E+03  0.7818608E-02  0.1150016E+00
         21   -1    0    0  501  502  0.00000000000E+00  0.00000000000E+00  0.20177410354E+03  0.20177410354E+03  0.00000000000E+00 0.  1.
         21   -1    0    0  502  503 -0.00000000000E+00 -0.00000000000E+00 -0.19718733204E+03  0.19718733204E+03  0.00000000000E+00 0.  1.
         -6    2    1    2    0  503  0.58127671554E+01 -0.99123691770E+02 -0.47353826144E+01  0.19874347403E+03  0.17209663010E+03 0.  0.
        -24    2    3    3    0    0  0.32644425760E+02 -0.44869856520E+02  0.56433438261E+02  0.11256266881E+03  0.80041607289E+02 0.  0.
          6    2    1    2  501    0 -0.58127671554E+01  0.99123691770E+02  0.93221541133E+01  0.20021796155E+03  0.17361173647E+03 0.  0.
         24    2    5    5    0    0  0.29998427215E+02  0.12714768924E+03  0.56771839358E+01  0.15435771860E+03  0.82022157727E+02 0.  0.
          5    1    5    5  501    0 -0.35811194370E+02 -0.28023997470E+02  0.36449701775E+01  0.45860242956E+02  0.47000000000E+01 0. -1.
        -11    1    6    6    0    0  0.71356154944E+01  0.28721045356E+02 -0.34643579139E+02  0.45563066517E+02  0.00000000000E+00 0.  1.
         12    1    6    6    0    0  0.22862811720E+02  0.98426643883E+02  0.40320763075E+02  0.10879465208E+03  0.00000000000E+00 0. -1.
         -5    1    3    3    0  503 -0.26831658604E+02 -0.54253835249E+02 -0.61168820875E+02  0.86180805229E+02  0.47000000000E+01 0.  1.
         11    1    4    4    0    0  0.59454268302E+02 -0.30906039957E+02  0.35884366215E+02  0.76011058826E+02  0.00000000000E+00 0. -1.
        -12    1    4    4    0    0 -0.26809842543E+02 -0.13963816563E+02  0.20549072046E+02  0.36551609980E+02  0.00000000000E+00 0.  1.
</event>
<event>
12    1  0.8461994E-002  0.1849349E+03  0.7818608E-02  0.1163161E+00
         21   -1    0    0  503  502  0.00000000000E+00  0.00000000000E+00  0.93232876909E+02  0.93232876909E+02  0.00000000000E+00 0.  1.
         21   -1    0    0  501  503 -0.00000000000E+00 -0.00000000000E+00 -0.54236790535E+03  0.54236790535E+03  0.00000000000E+00 0. -1.
          6    2    1    2  501    0  0.54963651384E+02  0.38166516988E+02 -0.40549590355E+03  0.44558685466E+03  0.17217151698E+03 0.  0.
         24    2    3    3    0    0  0.16353509122E+02 -0.29723602190E+02 -0.31276175429E+03  0.32425456792E+03  0.78550493840E+02 0.  0.
         -6    2    1    2    0  502 -0.54963651384E+02 -0.38166516988E+02 -0.43639124893E+02  0.19001392760E+03  0.17240427334E+03 0.  0.
        -24    2    5    5    0    0 -0.73688123581E+02 -0.32828693275E+02  0.26977535561E+02  0.11661160505E+03  0.79767263645E+02 0.  0.
          5    1    3    3  501    0  0.38610142262E+02  0.67890119178E+02 -0.92734149260E+02  0.12133228674E+03  0.47000000000E+01 0. -1.
        -13    1    4    4    0    0 -0.61225248987E+00  0.24876995511E+02 -0.57258698494E+02  0.62432349883E+02  0.00000000000E+00 0.  1.
         14    1    4    4    0    0  0.16965761612E+02 -0.54600597701E+02 -0.25550305580E+03  0.26182221804E+03  0.00000000000E+00 0. -1.
         -5    1    5    5    0  502  0.18724472197E+02 -0.53378237129E+01 -0.70616660454E+02  0.73402322543E+02  0.47000000000E+01 0.  1.
         13    1    6    6    0    0 -0.20535312566E+02 -0.52773510949E+02  0.15174746572E+02  0.58626064627E+02  0.00000000000E+00 0. -1.
        -14    1    6    6    0    0 -0.53152811015E+02  0.19944817674E+02  0.11802788989E+02  0.57985540428E+02  0.00000000000E+00 0.  1.
</event>
<event>
12    1  0.8461994E-002  0.2355693E+03  0.7818608E-02  0.1122857E+00
         21   -1    0    0  501  502  0.00000000000E+00  0.00000000000E+00  0.12695126176E+04  0.12695126176E+04  0.00000000000E+00 0. -1.
         21   -1    0    0  502  503 -0.00000000000E+00 -0.00000000000E+00 -0.63829395742E+02  0.63829395742E+02  0.00000000000E+00 0.  1.
         -6    2    1    2    0  503 -0.48834346078E+02 -0.15296447241E+03  0.22818695296E+03  0.32796675752E+03  0.17236584743E+03 0.  0.
        -24    2    3    3    0    0 -0.83053728848E+02 -0.49090175569E+02  0.14391335629E+03  0.18981841408E+03  0.77538435563E+02 0.  0.
          6    2    1    2  501    0  0.48834346078E+02  0.15296447241E+03  0.97749626887E+03  0.10053752558E+04  0.17174843851E+03 0.  0.
         24    2    5    5    0    0 -0.80349504520E+01  0.11100421861E+03  0.83253069599E+03  0.84403125340E+03  0.83035534434E+02 0.  0.
          5    1    5    5  501    0  0.56869296530E+02  0.41960253801E+02  0.14496557288E+03  0.16134400239E+03  0.47000000000E+01 0. -1.
        -13    1    6    6    0    0 -0.64215312445E+01  0.11930661775E+03  0.62438059889E+03  0.63570939695E+03  0.00000000000E+00 0.  1.
         14    1    6    6    0    0 -0.16134192075E+01 -0.83023991393E+01  0.20815009710E+03  0.20832185645E+03  0.00000000000E+00 0. -1.
         -5    1    3    3    0  503  0.34219382770E+02 -0.10387429684E+03  0.84273596663E+02  0.13814834344E+03  0.47000000000E+01 0.  1.
         11    1    4    4    0    0  0.39145292196E+01 -0.23146496873E+02  0.66532575785E+02  0.70552586750E+02  0.00000000000E+00 0. -1.
        -12    1    4    4    0    0 -0.86968258068E+02 -0.25943678696E+02  0.77380780509E+02  0.11926582733E+03  0.00000000000E+00 0.  1.
</event>
<event>
12    1  0.8461994E-002  0.1987301E+03  0.7818608E-02  0.1150825E+00
         21   -1    0    0  503  502  0.00000000000E+00  0.00000000000E+00  0.61262055716E+03  0.61262055716E+03  0.00000000000E+00 0.  1.
         21   -1    0    0  501  503 -0.00000000000E+00 -0.00000000000E+00 -0.14547559399E+03  0.14547559399E+03  0.00000000000E+00 0.  1.
          6    2    1    2  501    0  0.86943269001E+02  0.53137305293E+02 -0.49297913282E+02  0.20475331440E+03  0.17061925527E+03 0.  0.
         24    2    3    3    0    0  0.43307157620E+02 -0.24387561109E+02 -0.64693512541E+02  0.11434684559E+03  0.80122952351E+02 0.  0.
         -6    2    1    2    0  502 -0.86943269001E+02 -0.53137305293E+02  0.51644287645E+03  0.55334283675E+03  0.17056478273E+03 0.  0.
        -24    2    5    5    0    0  0.61160431983E+01  0.99240509773E+01  0.14695488616E+03  0.16710426383E+03  0.78690556308E+02 0.  0.
          5    1    3    3  501    0  0.43636111381E+02  0.77524866402E+02  0.15395599259E+02  0.90406468815E+02  0.47000000000E+01 0. -1.
        -11    1    4    4    0    0  0.57088439937E+02  0.49138822016E+01 -0.23453484657E+02  0.61913666950E+02  0.00000000000E+00 0.  1.
         12    1    4    4    0    0 -0.13781282316E+02 -0.29301443310E+02 -0.41240027883E+02  0.52433178639E+02  0.00000000000E+00 0. -1.
         -5    1    5    5    0  502 -0.93059312200E+02 -0.63061356271E+02  0.36948799029E+03  0.38623857292E+03  0.47000000000E+01 0.  1.
         11    1    6    6    0    0 -0.28903818637E+02  0.47944788276E+01  0.20420266179E+02  0.35712813245E+02  0.00000000000E+00 0. -1.
        -12    1    6    6    0    0  0.35019861835E+02  0.51295721497E+01  0.12653461998E+03  0.13139145059E+03  0.00000000000E+00 0.  1.
</event>
<event>
12    1  0.8461994E-002  0.2158724E+03  0.7818608E-02  0.1137988E+00
         21   -1    0    0  501  502  0.00000000000E+00  0.00000000000E+00  0.14826768852E+04  0.14826768852E+04  0.00000000000E+00 0.  1.
         21   -1    0    0  502  503 -0.00000000000E+00 -0.00000000000E+00 -0.82117504866E+02  0.82117504866E+02  0.00000000000E+00 0. -1.
         -6    2    1    2    0  503 -0.32416763782E+02  0.12388649066E+03  0.84267999341E+02  0.23173687157E+03  0.17378772335E+03 0.  0.
        -24    2    3    3    0    0  0.25758286767E+02  0.13237621351E+03  0.64673197077E+02  0.16958819357E+03  0.79941114188E+02 0.  0.
          6    2    1    2  501    0  0.32416763782E+02 -0.12388649066E+03  0.13162913810E+04  0.13330575185E+04  0.16739366419E+03 0.  0.
         24    2    5    5    0    0  0.14479451862E+02 -0.15400561750E+03  0.11454734911E+04  0.11586162663E+04  0.79716679469E+02 0.  0.
          5    1    5    5  501    0  0.17937311920E+02  0.30119126836E+02  0.17081788991E+03  0.17444125222E+03  0.47000000000E+01 0. -1.
        -13    1    6    6    0    0  0.70838226923E+01 -0.24619474421E+02  0.47751303527E+03  0.47819974688E+03  0.00000000000E+00 0.  1.
         14    1    6    6    0    0  0.73956291696E+01 -0.12938614308E+03  0.66796045584E+03  0.68041651944E+03  0.00000000000E+00 0. -1.
         -5    1    3    3    0  503 -0.58175050549E+02 -0.84897228493E+01  0.19594802264E+02  0.62148677993E+02  0.47000000000E+01 0.  1.
         13    1    4    4    0    0  0.44029582798E+02  0.94939362966E+02  0.16572702431E+02  0.10595631773E+03  0.00000000000E+00 0. -1.
        -14    1    4    4    0    0 -0.18271296031E+02  0.37436850547E+02  0.48100494647E+02  0.63631875839E+02  0.00000000000E+00 0.  1.
</event>
<event>
12    1  0.8461994E-002  0.1749801E+03  0.7818608E-02  0.1173860E+00
         21   -1    0    0  503  502  0.00000000000E+00  0.00000000000E+00  0.24722877964E+03  0.24722877964E+03  0.00000000000E+00 0. -1.
         21   -1    0    0  501  503 -0.00000000000E+00 -0.00000000000E+00 -0.33905126122E+03  0.33905126122E+03  0.00000000000E+00 0. -1.
          6    2    1    2  501    0  0.25972727217E+02 -0.18244111173E+02 -0.28089896462E+03  0.32866024256E+03  0.16764813319E+03 0.  0.
         24    2    3    3    0    0  0.77987807601E+02  0.94095635331E+01 -0.18358461182E+03  0.21480740960E+03  0.79172441546E+02 0.  0.
         -6    2    1    2    0  502 -0.25972727217E+02  0.18244111173E+02  0.18907648304E+03  0.25761979831E+03  0.17207734857E+03 0.  0.
        -24    2    5    5    0    0 -0.20841691189E+02  0.54616646158E+02  0.46591460179E+02  0.11040104756E+03  0.81242064300E+02 0.  0.
          5    1    3    3  501    0 -0.52015080384E+02 -0.27653674706E+02 -0.97314352793E+02  0.11385283295E+03  0.47000000000E+01 0. -1.
        -13    1    4    4    0    0 -0.12431062612E+02  0.10873625012E+02 -0.10637702925E+02  0.19645044211E+02  0.00000000000E+00 0.  1.
         14    1    4    4    0    0  0.90418870213E+02 -0.14640614784E+01 -0.17294690890E+03  0.19516236539E+03  0.00000000000E+00 0. -1.
         -5    1    5    5    0  502 -0.51310360282E+01 -0.36372534985E+02  0.14248502286E+03  0.14721875075E+03  0.47000000000E+01 0.  1.
         11    1    6    6    0    0 -0.35987248425E+02  0.16603977045E+02  0.55815523941E+02  0.68455436714E+02  0.00000000000E+00 0. -1.
        -12    1    6    6    0    0  0.15145557236E+02  0.38012669113E+02 -0.92240637618E+01  0.41945610847E+02  0.00000000000E+00 0.  1.
</event>
<event>
12    1  0.8461994E-002  0.1829610E+03  0.7818608E-02  0.1165132E+00
         21   -1    0    0  503  502  0.00000000000E+00  0.00000000000E+00  0.15781041385E+03  0.15781041385E+03  0.00000000000E+00 0. -1.
         21   -1    0    0  501  503 -0.00000000000E+00 -0.00000000000E+00 -0.23562580729E+03  0.23562580729E+03  0.00000000000E+00 0. -1.
          6    2    1    2  501    0  0.53455952596E+02  0.28658401301E+02 -0.10215541075E+03  0.20954822179E+03  0.17261485011E+03 0.  0.
         24    2    3    3    0    0 -0.34889269462E+02 -0.91388266967E-01 -0.17774210661E+02  0.83954807993E+02  0.74264512018E+02 0.  0.
         -6    2    1    2    0  502 -0.53455952596E+02 -0.28658401301E+02  0.24340017310E+02  0.18388799935E+03  0.17188227666E+03 0.  0.
        -24    2    5    5    0    0 -0.15629770233E+02  0.48110110935E+02  0.25250700844E+02  0.98172517160E+02  0.80258163078E+02 0.  0.
          5    1    3    3  501    0  0.88345222058E+02  0.28749789568E+02 -0.84381200092E+02  0.12559341380E+03  0.47000000000E+01 0. -1.
        -11    1    4    4    0    0 -0.56759088011E+02 -0.45509546847E+01 -0.26684646031E+01  0.57003736401E+02  0.00000000000E+00 0.  1.
         12    1    4    4    0    0  0.21869818549E+02  0.44595664178E+01 -0.15105746057E+02  0.26951071592E+02  0.00000000000E+00 0. -1.
         -5    1    5    5    0  502 -0.37826182363E+02 -0.76768512235E+02 -0.91068353454E+00  0.85715482192E+02  0.47000000000E+01 0.  1.
         11    1    6    6    0    0 -0.18230577617E+02 -0.14508298317E+02 -0.11006544807E+02  0.25767978363E+02  0.00000000000E+00 0. -1.
        -12    1    6    6    0    0  0.26008073837E+01  0.62618409251E+02  0.36257245651E+02  0.72404538797E+02  0.00000000000E+00 0.  1.
</event>
<event>
12    1  0.8461994E-002  0.1866357E+03  0.7818608E-02  0.1161640E+00
         21   -1    0    0  503  502  0.00000000000E+00  0.00000000000E+00  0.21126899892E+03  0.21126899892E+03  0.00000000000E+00 0. -1.
         21   -1    0    0  501  503 -0.00000000000E+00 -0.00000000000E+00 -0.35611974660E+03  0.35611974660E+03  0.00000000000E+00 0.  1.
          6    2    1    2  501    0  0.58361328208E+02  0.45820963673E+02 -0.28050574206E+03  0.33666131633E+03  0.17073888030E+03 0.  0.
         24    2    3    3    0    0  0.31397037204E+02  0.70747526178E+02 -0.27808519421E+03  0.29956205004E+03  0.80094070812E+02 0.  0.
         -6    2    1    2    0  502 -0.58361328208E+02 -0.45820963673E+02  0.13565499438E+03  0.23072742919E+03  0.17125204740E+03 0.  0.
        -24    2    5    5    0    0 -0.88830687591E+02 -0.58716168058E+02  0.12495847462E+03  0.19563934443E+03  0.10640325774E+03 0.  0.
          5    1    3    3  501    0  0.26964291004E+02 -0.24926562505E+02 -0.24205478491E+01  0.37099266295E+02  0.47000000000E+01 0. -1.
        -11    1    4    4    0    0  0.16834261370E+02 -0.15089708897E+02 -0.81145979606E+02  0.84236344156E+02  0.00000000000E+00 0.  1.
         12    1    4    4    0    0  0.14562775834E+02  0.85837235075E+02 -0.19693921460E+03  0.21532570588E+03  0.00000000000E+00 0. -1.
         -5    1    5    5    0  502  0.30469359383E+02  0.12895204385E+02  0.10696519755E+02  0.35088084761E+02  0.47000000000E+01 0.  1.
         13    1    6    6    0    0 -0.63037375536E+02 -0.49005965069E+02  0.13692715390E+02  0.81011022593E+02  0.00000000000E+00 0. -1.
        -14    1    6    6    0    0 -0.25793312055E+02 -0.97102029892E+01  0.11126575923E+03  0.11462832183E+03  0.00000000000E+00 0.  1.
</event>
<event>
12    1  0.8461994E-002  0.1825631E+03  0.7818608E-02  0.1168213E+00
         21   -1    0    0  503  502  0.00000000000E+00  0.00000000000E+00  0.16647495553E+03  0.16647495553E+03  0.00000000000E+00 0. -1.
         21   -1    0    0  501  503 -0.00000000000E+00 -0.00000000000E+00 -0.50603618000E+03  0.50603618000E+03  0.00000000000E+00 0. -1.
          6    2    1    2  501    0 -0.22678894310E+02  0.55184455017E+02 -0.43853111273E+03  0.47501453586E+03  0.17253873805E+03 0.  0.
         24    2    3    3    0    0  0.45898956568E+02  0.78837308862E+01 -0.29232768466E+03  0.30667614894E+03  0.80161821835E+02 0.  0.
         -6    2    1    2    0  502  0.22678894310E+02 -0.55184455017E+02  0.98969888259E+02  0.19749659967E+03  0.16015683493E+03 0.  0.
        -24    2    5    5    0    0 -0.39481448170E+02 -0.31502061742E+02  0.90306629734E+02  0.13025148106E+03  0.79113818646E+02 0.  0.
          5    1    3    3  501    0 -0.68577850878E+02  0.47300724131E+02 -0.14620342807E+03  0.16833838693E+03  0.47000000000E+01 0. -1.
        -13    1    4    4    0    0  0.49755045307E+02  0.66967766991E+01 -0.80909887742E+02  0.95219857625E+02  0.00000000000E+00 0.  1.
         14    1    4    4    0    0 -0.38560887392E+01  0.11869541871E+01 -0.21141779692E+03  0.21145629131E+03  0.00000000000E+00 0. -1.
         -5    1    5    5    0  502  0.62160342480E+02 -0.23682393275E+02  0.86632585256E+01  0.67245118610E+02  0.47000000000E+01 0.  1.
         11    1    6    6    0    0  0.23081518080E+02 -0.99485622961E+01  0.39526935533E+02  0.46841317245E+02  0.00000000000E+00 0. -1.
        -12    1    6    6    0    0 -0.62562966250E+02 -0.21553499446E+02  0.50779694201E+02  0.83410163814E+02  0.00000000000E+00 0.  1.
</event>
<event>
12    1  0.8461994E-002  0.1998734E+03  0.7818608E-02  0.1149905E+00
         21   -1    0    0  501  502  0.00000000000E+00  0.00000000000E+00  0.48906252985E+03  0.48906252985E+03  0.00000000000E+00 0.  1.
         21   -1    0    0  502  503 -0.00000000000E+00 -0.00000000000E+00 -0.11852085754E+03  0.11852085754E+03  0.00000000000E+00 0.  1.
         -6    2    1    2    0  503 -0.94578001052E+01  0.10090907200E+03  0.15559007027E+02  0.20019894016E+03  0.17194604429E+03 0.  0.
        -24    2    3    3    0    0 -0.46696665694E+02  0.88997011088E+01  0.35718263203E+02  0.98803954821E+02  0.78909086266E+02 0.  0.
          6    2    1    2  501    0  0.94578001052E+01 -0.10090907200E+03  0.35498266528E+03  0.40738444724E+03  0.17227102023E+03 0.  0.
         24    2    5    5    0    0  0.39406481572E+02 -0.59434254399E+02  0.33593827551E+03  0.35259518919E+03  0.79897065671E+02 0.  0.
          5    1    5    5  501    0 -0.29948681466E+02 -0.41474817596E+02  0.19044389775E+02  0.54789258054E+02  0.47000000000E+01 0. -1.
        -11    1    6    6    0    0  0.43160987040E+02 -0.77438033225E+02  0.27415491124E+03  0.28813266935E+03  0.00000000000E+00 0.  1.
         12    1    6    6    0    0 -0.37545054683E+01  0.18003778826E+02  0.61783364271E+02  0.64462519839E+02  0.00000000000E+00 0. -1.
         -5    1    3    3    0  503  0.37238865589E+02  0.92009370886E+02 -0.20159256176E+02  0.10139498533E+03  0.47000000000E+01 0.  1.
         13    1    4    4    0    0 -0.93784186533E+01  0.39660048794E+02  0.39574756096E+01  0.40945522588E+02  0.00000000000E+00 0. -1.
        -14    1    4    4    0    0 -0.37318247041E+02 -0.30760347686E+02  0.31760787593E+02  0.57858432233E+02  0.00000000000E+00 0.  1.
</event>
<event>
12    1  0.8461994E-002  0.1783112E+03  0.7818608E-02  0.1169705E+00
         21   -1    0    0  503  502  0.00000000000E+00  0.00000000000E+00  0.53726384746E+02  0.53726384746E+02  0.00000000000E+00 0. -1.
         21   -1    0    0  501  503 -0.00000000000E+00 -0.00000000000E+00 -0.60053944486E+03  0.60053944486E+03  0.00000000000E+00 0. -1.
          6    2    1    2  501    0 -0.46090485678E+02 -0.12368258371E+02 -0.22754134436E+03  0.28908465089E+03  0.17180676733E+03 0.  0.
         24    2    3    3    0    0  0.11459340975E+02 -0.62425942115E+02 -0.14491618291E+03  0.17653794257E+03  0.78336647559E+02 0.  0.
         -6    2    1    2    0  502  0.46090485678E+02  0.12368258371E+02 -0.31927171575E+03  0.36518117871E+03  0.17072070210E+03 0.  0.
        -24    2    5    5    0    0  0.75431306512E+02  0.28586293923E+02 -0.12744701422E+03  0.17039228129E+03  0.79269980995E+02 0.  0.
          5    1    3    3  501    0 -0.57549826653E+02  0.50057683744E+02 -0.82625161449E+02  0.11254670832E+03  0.47000000000E+01 0. -1.
        -13    1    4    4    0    0  0.32547794248E+02 -0.18539475277E+02 -0.11113193886E+03  0.11727480074E+03  0.00000000000E+00 0.  1.
         14    1    4    4    0    0 -0.21088453272E+02 -0.43886466838E+02 -0.33784244056E+02  0.59263141829E+02  0.00000000000E+00 0. -1.
         -5    1    5    5    0  502 -0.29340820834E+02 -0.16218035552E+02 -0.19182470152E+03  0.19478889742E+03  0.47000000000E+01 0.  1.
         13    1    6    6    0    0  0.18414666324E+02  0.41562874399E+02 -0.90352632671E+02  0.10114430629E+03  0.00000000000E+00 0. -1.
        -14    1    6    6    0    0  0.57016640188E+02 -0.12976580476E+02 -0.37094381553E+02  0.69247975003E+02  0.00000000000E+00 0.  1.
</event>
<event>
12    1  0.8461994E-002  0.2051134E+03  0.7818608E-02  0.1145737E+00
         21   -1    0    0  503  502  0.00000000000E+00  0.00000000000E+00  0.28611575859E+03  0.28611575859E+03  0.00000000000E+00 0.  1.
         21   -1    0    0  501  503 -0.00000000000E+00 -0.00000000000E+00 -0.14627222379E+03  0.14627222379E+03  0.00000000000E+00 0. -1.
          6    2    1    2  501    0  0.12671023830E+02  0.11029698568E+03  0.75038840266E+02  0.21840865192E+03  0.17246892992E+03 0.  0.
         24    2    3    3    0    0  0.32476681569E+02  0.72728988573E+01  0.70107291068E+02  0.11327713085E+03  0.82516944978E+02 0.  0.
         -6    2    1    2    0  502 -0.12671023830E+02 -0.11029698568E+03  0.64804694533E+02  0.21397933047E+03  0.17106000567E+03 0.  0.
        -24    2    5    5    0    0 -0.64788670412E+02 -0.81401689652E+02  0.80871234579E+01  0.13157690279E+03  0.80145323575E+02 0.  0.
          5    1    3    3  501    0 -0.19805657739E+02  0.10302408683E+03  0.49315491976E+01  0.10513152107E+03  0.47000000000E+01 0. -1.
        -13    1    4    4    0    0  0.39724212792E+02  0.17613308454E+02  0.83956538460E+02  0.94535401130E+02  0.00000000000E+00 0.  1.
         14    1    4    4    0    0 -0.72475312228E+01 -0.10340409597E+02 -0.13849247392E+02  0.18741729717E+02  0.00000000000E+00 0. -1.
         -5    1    5    5    0  502  0.52117646582E+02 -0.28895296031E+02  0.56717571075E+02  0.82402427674E+02  0.47000000000E+01 0.  1.
         11    1    6    6    0    0  0.23303155451E+01 -0.59987619862E+02  0.11143617218E+02  0.61058374626E+02  0.00000000000E+00 0. -1.
        -12    1    6    6    0    0 -0.67118985957E+02 -0.21414069791E+02 -0.30564937598E+01  0.70518528168E+02  0.00000000000E+00 0.  1.
</event>
<event>
12    1  0.8461994E-002  0.1909540E+03  0.7818608E-02  0.1157924E+00
         21   -1    0    0  503  502  0.00000000000E+00  0.00000000000E+00  0.15761569557E+03  0.15761569557E+03  0.00000000000E+00 0. -1.
         21   -1    0    0  501  503 -0.00000000000E+00 -0.00000000000E+00 -0.23037231247E+03  0.23037231247E+03  0.00000000000E+00 0. -1.
          6    2    1    2  501    0 -0.77819961583E+02  0.11523406531E+02 -0.47601077145E+02  0.19679761148E+03  0.17399627013E+03 0.  0.
         24    2    3    3    0    0 -0.58679342390E+02 -0.38422127896E+02  0.24633083459E+02  0.10679325786E+03  0.76671285286E+02 0.  0.
         -6    2    1    2    0  502  0.77819961583E+02 -0.11523406531E+02 -0.25155539754E+02  0.19119039657E+03  0.17243036636E+03 0.  0.
        -24    2    5    5    0    0 -0.24710676272E+02 -0.16911447706E+02 -0.11711772670E+02  0.87535258929E+02  0.81416468551E+02 0.  0.
          5    1    3    3  501    0 -0.19140619193E+02  0.49945534426E+02 -0.72234160605E+02  0.90004353620E+02  0.47000000000E+01 0. -1.
        -13    1    4    4    0    0  0.12651692789E+02 -0.11473685141E+02  0.25315686749E+02  0.30538414771E+02  0.00000000000E+00 0.  1.
         14    1    4    4    0    0 -0.71331035179E+02 -0.26948442755E+02 -0.68260328968E+00  0.76254843085E+02  0.00000000000E+00 0. -1.
         -5    1    5    5    0  502  0.10253063785E+03  0.53880411747E+01 -0.13443767084E+02  0.10365513764E+03  0.47000000000E+01 0.  1.
         13    1    6    6    0    0  0.28153340553E+02 -0.15725385569E+02 -0.12675403717E+02  0.34649158647E+02  0.00000000000E+00 0. -1.
        -14    1    6    6    0    0 -0.52864016825E+02 -0.11860621365E+01  0.96363104633E+00  0.52886100282E+02  0.00000000000E+00 0.  1.
</event>
<event>
12    1  0.8461994E-002  0.1985176E+03  0.7818608E-02  0.1151496E+00
         21   -1    0    0  503  502  0.00000000000E+00  0.00000000000E+00  0.35124391274E+03  0.35124391274E+03  0.00000000000E+00 0. -1.
         21   -1    0    0  501  503 -0.00000000000E+00 -0.00000000000E+00 -0.12410647182E+03  0.12410647182E+03  0.00000000000E+00 0. -1.
          6    2    1    2  501    0 -0.20716534760E+02 -0.92114463171E+02  0.36591817340E+02  0.20186182592E+03  0.17462813785E+03 0.  0.
         24    2    3    3    0    0 -0.30401306489E+02 -0.17023045924E+02 -0.38804153228E+02  0.94907825872E+02  0.79295079137E+02 0.  0.
         -6    2    1    2    0  502  0.20716534760E+02  0.92114463171E+02  0.19054562357E+03  0.27348855865E+03  0.17197124152E+03 0.  0.
        -24    2    5    5    0    0 -0.41487884571E+02  0.74412168072E+02  0.16784619938E+03  0.20478546632E+03  0.80661795463E+02 0.  0.
          5    1    3    3  501    0  0.96847717290E+01 -0.75091417247E+02  0.75395970568E+02  0.10695400004E+03  0.47000000000E+01 0. -1.
        -13    1    4    4    0    0  0.26158401730E+02 -0.17287003802E+01 -0.33596303133E+01  0.26429860043E+02  0.00000000000E+00 0.  1.
         14    1    4    4    0    0 -0.56559708219E+02 -0.15294345544E+02 -0.35444522915E+02  0.68477965829E+02  0.00000000000E+00 0. -1.
         -5    1    5    5    0  502  0.62204419331E+02  0.17702295099E+02  0.22699424193E+02  0.68703092323E+02  0.47000000000E+01 0.  1.
         11    1    6    6    0    0  0.65607879741E+01  0.60193220588E+02  0.12485292723E+03  0.13876066151E+03  0.00000000000E+00 0. -1.
        -12    1    6    6    0    0 -0.48048672545E+02  0.14218947484E+02  0.42993272148E+02  0.66024804815E+02  0.00000000000E+00 0.  1.
</event>
<event>
12    1  0.8461994E-002  0.2320450E+03  0.7818608E-02  0.1125217E+00
         21   -1    0    0  501  502  0.00000000000E+00  0.00000000000E+00  0.40983134975E+02  0.40983134975E+02  0.00000000000E+00 0.  1.
         21   -1    0    0  502  503 -0.00000000000E+00 -0.00000000000E+00 -0.13147336436E+04  0.13147336436E+04  0.00000000000E+00 0.  1.
         -6    2    1    2    0  503 -0.13825108400E+03  0.73101120363E+02 -0.65731042276E+03  0.69706663111E+03  0.17142858664E+03 0.  0.
        -24    2    3    3    0    0 -0.14282405136E+03  0.18981882637E+02 -0.40329519740E+03  0.43726742281E+03  0.88299271164E+02 0.  0.
          6    2    1    2  501    0  0.13825108400E+03 -0.73101120363E+02 -0.61644008582E+03  0.65865014741E+03  0.17136073429E+03 0.  0.
         24    2    5    5    0    0  0.13695177680E+03 -0.56318925190E+02 -0.31953831818E+03  0.36123447886E+03  0.80361691299E+02 0.  0.
          5    1    5    5  501    0  0.12993072032E+01 -0.16782195173E+02 -0.29690176764E+03  0.29741566855E+03  0.47000000000E+01 0. -1.
        -13    1    6    6    0    0  0.97056160373E+02  0.34625956127E+00 -0.21394854577E+03  0.23493402989E+03  0.00000000000E+00 0.  1.
         14    1    6    6    0    0  0.39895616428E+02 -0.56665184751E+02 -0.10558977241E+03  0.12630044897E+03  0.00000000000E+00 0. -1.
         -5    1    3    3    0  503  0.45729673549E+01  0.54119237726E+02 -0.25401522536E+03  0.25979920831E+03  0.47000000000E+01 0.  1.
         11    1    4    4    0    0 -0.37607741143E+02 -0.40144227450E+01 -0.28645969037E+02  0.47445224480E+02  0.00000000000E+00 0. -1.
        -12    1    4    4    0    0 -0.10521631022E+03  0.22996305382E+02 -0.37464922836E+03  0.38982219833E+03  0.00000000000E+00 0.  1.
</event>
<event>
12    1  0.8461994E-002  0.2390785E+03  0.7818608E-02  0.1120891E+00
         21   -1    0    0  501  502  0.00000000000E+00  0.00000000000E+00  0.55860263931E+03  0.55860263931E+03  0.00000000000E+00 0. -1.
         21   -1    0    0  502  503 -0.00000000000E+00 -0.00000000000E+00 -0.11271965464E+03  0.11271965464E+03  0.00000000000E+00 0.  1.
         -6    2    1    2    0  503  0.15468944588E+03 -0.50302319521E+02  0.11397389722E+03  0.26227199283E+03  0.17128164222E+03 0.  0.
        -24    2    3    3    0    0  0.75173230864E+02 -0.73946404365E+02  0.11914018331E+03  0.17902145704E+03  0.82068346172E+02 0.  0.
          6    2    1    2  501    0 -0.15468944588E+03  0.50302319521E+02  0.33190908745E+03  0.40905030111E+03  0.17521232403E+03 0.  0.
         24    2    5    5    0    0 -0.11573099688E+03  0.31163653033E+01  0.10882978849E+03  0.17768319315E+03  0.79523700194E+02 0.  0.
          5    1    5    5  501    0 -0.38958448998E+02  0.47185954218E+02  0.22307929896E+03  0.23136710796E+03  0.47000000000E+01 0. -1.
        -11    1    6    6    0    0 -0.33908608751E+02 -0.32372489017E+02  0.17529574691E+02  0.50050552259E+02  0.00000000000E+00 0.  1.
         12    1    6    6    0    0 -0.81822388128E+02  0.35488854321E+02  0.91300213802E+02  0.12763264089E+03  0.00000000000E+00 0. -1.
         -5    1    3    3    0  503  0.79516215013E+02  0.23644084844E+02 -0.51662860915E+01  0.83250535794E+02  0.47000000000E+01 0.  1.
         11    1    4    4    0    0  0.17187113604E+02 -0.21268908941E+02  0.92212750357E+02  0.96181883377E+02  0.00000000000E+00 0. -1.
        -12    1    4    4    0    0  0.57986117259E+02 -0.52677495424E+02  0.26927432958E+02  0.82839573663E+02  0.00000000000E+00 0.  1.
</event>
<event>
12    1  0.8461994E-002  0.2146896E+03  0.7818608E-02  0.1137906E+00
         21   -1    0    0  503  502  0.00000000000E+00  0.00000000000E+00  0.16458310164E+03  0.16458310164E+03  0.00000000000E+00 0. -1.
         21   -1    0    0  501  503 -0.00000000000E+00 -0.00000000000E+00 -0.30075412449E+03  0.30075412449E+03  0.00000000000E+00 0.  1.
          6    2    1    2  501    0 -0.30017764218E+02 -0.12360662525E+03 -0.12914149468E+03  0.25053774148E+03  0.17295077416E+03 0.  0.
         24    2    3    3    0    0  0.46490579194E+02 -0.39170550533E+02 -0.70393222546E+02  0.12225513625E+03  0.79343598210E+02 0.  0.
         -6    2    1    2    0  502  0.30017764218E+02  0.12360662525E+03 -0.70295281770E+01  0.21479948465E+03  0.17294432735E+03 0.  0.
        -24    2    5    5    0    0 -0.42730989792E+02  0.32006792133E+02  0.17927293247E+02  0.95100514006E+02  0.76631244867E+02 0.  0.
          5    1    3    3  501    0 -0.76508343412E+02 -0.84436074719E+02 -0.58748272129E+02  0.12828260523E+03  0.47000000000E+01 0. -1.
        -13    1    4    4    0    0  0.50775469764E+01 -0.49397530777E+02 -0.60855353361E+02  0.78544710598E+02  0.00000000000E+00 0.  1.
         14    1    4    4    0    0  0.41413032218E+02  0.10226980244E+02 -0.95378691852E+01  0.43710425656E+02  0.00000000000E+00 0. -1.
         -5    1    5    5    0  502  0.72748754009E+02  0.91599833119E+02 -0.24956821424E+02  0.11969897064E+03  0.47000000000E+01 0.  1.
         11    1    6    6    0    0 -0.54279270661E+01  0.40731344534E+02  0.34215846539E+02  0.53471758660E+02  0.00000000000E+00 0. -1.
        -12    1    6    6    0    0 -0.37303062725E+02 -0.87245524010E+01 -0.16288553292E+02  0.41628755346E+02  0.00000000000E+00 0.  1.
</event>
<event>
12    1  0.8461994E-002  0.3745732E+03  0.7818608E-02  0.1053228E+00
         21   -1    0    0  503  502  0.00000000000E+00  0.00000000000E+00  0.47587298629E+03  0.47587298629E+03  0.00000000000E+00 0. -1.
         21   -1    0    0  501  503 -0.00000000000E+00 -0.00000000000E+00 -0.29908568205E+03  0.29908568205E+03  0.00000000000E+00 0. -1.
          6    2    1    2  501    0 -0.19802574374E+03 -0.26758473232E+03  0.31638813937E+02  0.37590701132E+03  0.17172443757E+03 0.  0.
         24    2    3    3    0    0 -0.13443416298E+03 -0.81270792667E+02 -0.14064663779E+00  0.17643571673E+03  0.80324693823E+02 0.  0.
         -6    2    1    2    0  502  0.19802574374E+03  0.26758473232E+03  0.14514849030E+03  0.39905165701E+03  0.16540361717E+03 0.  0.
        -24    2    5    5    0    0  0.20142013966E+03  0.17716878203E+03  0.12313027138E+03  0.30581294212E+03  0.80010260899E+02 0.  0.
          5    1    3    3  501    0 -0.63591580756E+02 -0.18631393965E+03  0.31779460574E+02  0.19947129459E+03  0.47000000000E+01 0. -1.
        -13    1    4    4    0    0 -0.42715338065E+02 -0.15844399257E+02 -0.36148885296E+02  0.58158292633E+02  0.00000000000E+00 0.  1.
         14    1    4    4    0    0 -0.91718824919E+02 -0.65426393410E+02  0.36008238659E+02  0.11827742409E+03  0.00000000000E+00 0. -1.
         -5    1    5    5    0  502 -0.33943959229E+01  0.90415950288E+02  0.22018218924E+02  0.93238714893E+02  0.47000000000E+01 0.  1.
         13    1    6    6    0    0  0.22822761652E+02  0.65167754517E+02  0.27449571246E+02  0.74304734975E+02  0.00000000000E+00 0. -1.
        -14    1    6    6    0    0  0.17859737801E+03  0.11200102752E+03  0.95680700133E+02  0.23150820714E+03  0.00000000000E+00 0.  1.
</event>
<event>
12    1  0.8461994E-002  0.3033942E+03  0.7818608E-02  0.1083788E+00
         21   -1    0    0  501  502  0.00000000000E+00  0.00000000000E+00  0.89344196006E+02  0.89344196006E+02  0.00000000000E+00 0.  1.
         21   -1    0    0  502  503 -0.00000000000E+00 -0.00000000000E+00 -0.13188779987E+04  0.13188779987E+04  0.00000000000E+00 0. -1.
         -6    2    1    2    0  503  0.87205526383E+01  0.24292629443E+03 -0.28326008797E+03  0.41507147214E+03  0.18154563335E+03 0.  0.
        -24    2    3    3    0    0 -0.41505199590E+01  0.41653366064E+02 -0.14088756765E+03  0.16815350855E+03  0.81694957001E+02 0.  0.
          6    2    1    2  501    0 -0.87205526383E+01 -0.24292629443E+03 -0.94627371472E+03  0.99315072256E+03  0.17839613783E+03 0.  0.
         24    2    5    5    0    0 -0.11124035371E+02 -0.16225006511E+03 -0.84079759732E+03  0.86025327320E+03  0.81524637974E+02 0.  0.
          5    1    5    5  501    0  0.24034827323E+01 -0.80676229314E+02 -0.10547611740E+03  0.13289744936E+03  0.47000000000E+01 0. -1.
        -13    1    6    6    0    0  0.31261081782E+02 -0.49450921999E+02 -0.20729810075E+03  0.21539533769E+03  0.00000000000E+00 0.  1.
         14    1    6    6    0    0 -0.42385117152E+02 -0.11279914311E+03 -0.63349949657E+03  0.64485793552E+03  0.00000000000E+00 0. -1.
         -5    1    3    3    0  503  0.12871072597E+02  0.20127292836E+03 -0.14237252032E+03  0.24691796359E+03  0.47000000000E+01 0.  1.
         13    1    4    4    0    0  0.22452716312E+02 -0.50387999780E+01 -0.72668433435E+01  0.24131327920E+02  0.00000000000E+00 0. -1.
        -14    1    4    4    0    0 -0.26603236271E+02  0.46692166042E+02 -0.13362072431E+03  0.14402218063E+03  0.00000000000E+00 0.  1.
</event>
<event>
12    1  0.8461994E-002  0.1843557E+03  0.7818608E-02  0.1163925E+00
         21   -1    0    0  503  502  0.00000000000E+00  0.00000000000E+00  0.13786577832E+03  0.13786577832E+03  0.00000000000E+00 0.  1.
         21   -1    0    0  501  503 -0.00000000000E+00 -0.00000000000E+00 -0.30573174472E+03  0.30573174472E+03  0.00000000000E+00 0.  1.
          6    2    1    2  501    0  0.62871046925E+02  0.68443010933E+01  0.14727502869E+02  0.18494300952E+03  0.17316871666E+03 0.  0.
         24    2    3    3    0    0 -0.25065628944E+02 -0.31125323522E+02  0.99710103562E+01  0.88926002809E+02  0.78812063856E+02 0.  0.
         -6    2    1    2    0  502 -0.62871046925E+02 -0.68443010933E+01 -0.18259346926E+03  0.25865451352E+03  0.17193652709E+03 0.  0.
        -24    2    5    5    0    0 -0.63257145797E+01  0.32189068139E+02 -0.17052808614E+03  0.18873568921E+03  0.73926865519E+02 0.  0.
          5    1    3    3  501    0  0.87936675869E+02  0.37969624616E+02  0.47564925132E+01  0.96017006709E+02  0.47000000000E+01 0. -1.
        -11    1    4    4    0    0  0.19102268221E+02  0.10471113605E+02  0.17293709146E+02  0.27813903849E+02  0.00000000000E+00 0.  1.
         12    1    4    4    0    0 -0.44167897165E+02 -0.41596437128E+02 -0.73226987898E+01  0.61112098960E+02  0.00000000000E+00 0. -1.
         -5    1    5    5    0  502 -0.56545332346E+02 -0.39033369233E+02 -0.12065383124E+02  0.69918824316E+02  0.47000000000E+01 0.  1.
         11    1    6    6    0    0 -0.16938068463E+02  0.51340359755E+02 -0.87371102838E+02  0.10274453910E+03  0.00000000000E+00 0. -1.
        -12    1    6    6    0    0  0.10612353883E+02 -0.19151291616E+02 -0.83156983300E+02  0.85991150109E+02  0.00000000000E+00 0.  1.
</event>
<event>
12    1  0.8461994E-002  0.1734566E+03  0.7818608E-02  0.1174478E+00
         21   -1    0    0  501  502  0.00000000000E+00  0.00000000000E+00  0.11097841149E+04  0.11097841149E+04  0.00000000000E+00 0.  1.
         21   -1    0    0  502  503 -0.00000000000E+00 -0.00000000000E+00 -0.37281652908E+02  0.37281652908E+02  0.00000000000E+00 0.  1.
         -6    2    1    2    0  503 -0.15059196281E+02  0.81977553727E+01  0.23416492254E+03  0.29097171746E+03  0.17186432680E+03 0.  0.
        -24    2    3    3    0    0  0.32826056116E+02 -0.46533864975E+02  0.15557560497E+03  0.18379467468E+03  0.79584942215E+02 0.  0.
          6    2    1    2  501    0  0.15059196281E+02 -0.81977553727E+01  0.83833753946E+03  0.85609405036E+03  0.17260709837E+03 0.  0.
         24    2    5    5    0    0  0.61232971808E+02  0.33852785357E+02  0.61126610107E+03  0.62054406913E+03  0.80828259359E+02 0.  0.
          5    1    5    5  501    0 -0.46173775527E+02 -0.42050540729E+02  0.22707143840E+03  0.23554998123E+03  0.47000000000E+01 0. -1.
        -11    1    6    6    0    0  0.50842176448E+02 -0.32427258326E+01  0.50403375888E+03  0.50660188735E+03  0.00000000000E+00 0.  1.
         12    1    6    6    0    0  0.10390795360E+02  0.37095511189E+02  0.10723234219E+03  0.11394218178E+03  0.00000000000E+00 0. -1.
         -5    1    3    3    0  503 -0.47885252398E+02  0.54731620347E+02  0.78589317569E+02  0.10717704278E+03  0.47000000000E+01 0.  1.
         13    1    4    4    0    0  0.24673069462E+02 -0.53902106778E+02  0.49722383213E+02  0.77372558857E+02  0.00000000000E+00 0. -1.
        -14    1    4    4    0    0  0.81529866545E+01  0.73682418032E+01  0.10585322176E+03  0.10642211582E+03  0.00000000000E+00 0.  1.
</event>
<event>
12    1  0.8461994E-002  0.1825049E+03  0.7818608E-02  0.1165541E+00
         21   -1    0    0  503  502  0.00000000000E+00  0.00000000000E+00  0.49828386377E+03  0.49828386377E+03  0.00000000000E+00 0.  1.
         21   -1    0    0  501  503 -0.00000000000E+00 -0.00000000000E+00 -0.10825551917E+03  0.10825551917E+03  0.00000000000E+00 0.  1.
          6    2    1    2  501    0 -0.44337201927E+02  0.41335196503E+02  0.71542130534E+01  0.18264507517E+03  0.17214428476E+03 0.  0.
         24    2    3    3    0    0 -0.52619135347E+02 -0.35338352192E+02 -0.13540694439E+02  0.10265887207E+03  0.79611061215E+02 0.  0.
         -6    2    1    2    0  502  0.44337201927E+02 -0.41335196503E+02  0.38287413154E+03  0.42389430777E+03  0.17152083726E+03 0.  0.
        -24    2    5    5    0    0 -0.14559699169E+02 -0.68687475202E+02  0.16782523699E+03  0.19920539136E+03  0.81163561338E+02 0.  0.
          5    1    3    3  501    0  0.82819334197E+01  0.76673548695E+02  0.20694907492E+02  0.79986203103E+02  0.47000000000E+01 0. -1.
        -13    1    4    4    0    0 -0.39824555485E+02 -0.34320859010E+02  0.27730338749E+02  0.59438104528E+02  0.00000000000E+00 0.  1.
         14    1    4    4    0    0 -0.12794579862E+02 -0.10174931820E+01 -0.41271033187E+02  0.43220767538E+02  0.00000000000E+00 0. -1.
         -5    1    5    5    0  502  0.58896901097E+02  0.27352278699E+02  0.21504889455E+03  0.22468891641E+03  0.47000000000E+01 0.  1.
         11    1    6    6    0    0  0.18473681220E+02 -0.70443255432E+02  0.12955002241E+03  0.14861607396E+03  0.00000000000E+00 0. -1.
        -12    1    6    6    0    0 -0.33033380390E+02  0.17557802301E+01  0.38275214579E+02  0.50589317402E+02  0.00000000000E+00 0.  1.
</event>
<event>
12    1  0.8461994E-002  0.1892396E+03  0.7818608E-02  0.1159161E+00
         21   -1    0    0  501  502  0.00000000000E+00  0.00000000000E+00  0.33559212780E+02  0.33559212780E+02  0.00000000000E+00 0. -1.
         21   -1    0    0  502  503 -0.00000000000E+00 -0.00000000000E+00 -0.11752108470E+04  0.11752108470E+04  0.00000000000E+00 0.  1.
         -6    2    1    2    0  503 -0.26045778164E+02 -0.72753487807E+02 -0.38720589425E+03  0.43095260330E+03  0.17268552110E+03 0.  0.
        -24    2    3    3    0    0 -0.56745998194E+02 -0.60891519161E+02 -0.14140144470E+03  0.18291001173E+03  0.80832038277E+02 0.  0.
          6    2    1    2  501    0  0.26045778164E+02  0.72753487807E+02 -0.75444574002E+03  0.77781745653E+03  0.17274307080E+03 0.  0.
         24    2    5    5    0    0 -0.19995410481E+02 -0.12211759386E+02 -0.47959407430E+03  0.48643383924E+03  0.77836112062E+02 0.  0.
          5    1    5    5  501    0  0.46041188645E+02  0.84965247193E+02 -0.27485166571E+03  0.29138361730E+03  0.47000000000E+01 0. -1.
        -13    1    6    6    0    0 -0.10764428851E+02  0.31852291429E+02 -0.14635209166E+03  0.15016449690E+03  0.00000000000E+00 0.  1.
         14    1    6    6    0    0 -0.92309816303E+01 -0.44064050815E+02 -0.33324198265E+03  0.33626934233E+03  0.00000000000E+00 0. -1.
         -5    1    3    3    0  503  0.30700220029E+02 -0.11861968646E+02 -0.24580444956E+03  0.24804259157E+03  0.47000000000E+01 0.  1.
         13    1    4    4    0    0 -0.58633967971E+02 -0.75954116699E+01 -0.96610464680E+02  0.11326612187E+03  0.00000000000E+00 0. -1.
        -14    1    4    4    0    0  0.18879697770E+01 -0.53296107491E+02 -0.44790980017E+02  0.69643889858E+02  0.00000000000E+00 0.  1.
</event>
<event>
12    1  0.8461994E-002  0.2462273E+03  0.7818608E-02  0.1116475E+00
         21   -1    0    0  501  502  0.00000000000E+00  0.00000000000E+00  0.13242723489E+03  0.13242723489E+03  0.00000000000E+00 0. -1.
         21   -1    0    0  502  503 -0.00000000000E+00 -0.00000000000E+00 -0.45602805197E+03  0.45602805197E+03  0.00000000000E+00 0.  1.
         -6    2    1    2    0  503  0.26550757734E+02  0.17455473704E+03 -0.19639484926E+03  0.31131046475E+03  0.16483012373E+03 0.  0.
        -24    2    3    3    0    0 -0.16843195988E+02  0.93035797453E+02 -0.40366504683E+02  0.12993983030E+03  0.79470446951E+02 0.  0.
          6    2    1    2  501    0 -0.26550757734E+02 -0.17455473704E+03 -0.12720596782E+03  0.27714482212E+03  0.17162049766E+03 0.  0.
         24    2    5    5    0    0 -0.67072664431E+02 -0.16538731464E+03 -0.11983937084E+03  0.23468986590E+03  0.94160247435E+02 0.  0.
          5    1    5    5  501    0  0.40521906697E+02 -0.91674224044E+01 -0.73665969809E+01  0.42454956212E+02  0.47000000000E+01 0. -1.
        -13    1    6    6    0    0 -0.48265732062E+01  0.73900346187E+01 -0.28000015053E+02  0.29358291223E+02  0.00000000000E+00 0.  1.
         14    1    6    6    0    0 -0.62246091225E+02 -0.17277734926E+03 -0.91839355787E+02  0.20533157468E+03  0.00000000000E+00 0. -1.
         -5    1    3    3    0  503  0.43393953722E+02  0.81518939590E+02 -0.15602834458E+03  0.18137063446E+03  0.47000000000E+01 0.  1.
         11    1    4    4    0    0 -0.14798836211E+02  0.10764715168E+03 -0.37192610538E+02  0.11484861818E+03  0.00000000000E+00 0. -1.
        -12    1    4    4    0    0 -0.20443597766E+01 -0.14611354228E+02 -0.31738941454E+01  0.15091212122E+02  0.00000000000E+00 0.  1.
</event>
<event>
12    1  0.8461994E-002  0.1947212E+03  0.7818608E-02  0.1154646E+00
         21   -1    0    0  501  502  0.00000000000E+00  0.00000000000E+00  0.18840754628E+04  0.18840754628E+04  0.00000000000E+00 0. -1.
         21   -1    0    0  502  503 -0.00000000000E+00 -0.00000000000E+00 -0.28363467784E+02  0.28363467784E+02  0.00000000000E+00 0. -1.
         -6    2    1    2    0  503  0.32964520019E+02  0.81030395997E+02  0.40412884450E+03  0.44785366303E+03  0.17204707461E+03 0.  0.
        -24    2    3    3    0    0 -0.46967934875E+02  0.29600402763E+02  0.17311186514E+03  0.19800335524E+03  0.78456612762E+02 0.  0.
          6    2    1    2  501    0 -0.32964520019E+02 -0.81030395997E+02  0.14515831505E+04  0.14645852675E+04  0.17396487693E+03 0.  0.
         24    2    5    5    0    0 -0.37856784478E+02  0.77887637371E+01  0.10199341588E+04  0.10238407617E+04  0.80563118462E+02 0.  0.
          5    1    5    5  501    0  0.48922644594E+01 -0.88819159734E+02  0.43164899167E+03  0.44074450580E+03  0.47000000000E+01 0. -1.
        -13    1    6    6    0    0 -0.15901266265E+02  0.95305320729E+01  0.45150053013E+02  0.48807874339E+02  0.00000000000E+00 0.  1.
         14    1    6    6    0    0 -0.21955518213E+02 -0.17417683358E+01  0.97478410580E+03  0.97503288737E+03  0.00000000000E+00 0. -1.
         -5    1    3    3    0  503  0.79932454894E+02  0.51429993235E+02  0.23101697936E+03  0.24985030779E+03  0.47000000000E+01 0.  1.
         11    1    4    4    0    0 -0.28264445546E+02  0.32102227710E+02  0.26788741245E+02  0.50468490798E+02  0.00000000000E+00 0. -1.
        -12    1    4    4    0    0 -0.18703489330E+02 -0.25018249476E+01  0.14632312389E+03  0.14753486444E+03  0.00000000000E+00 0.  1.
</event>
<event>
12    1  0.8461994E-002  0.1746566E+03  0.7818608E-02  0.1173689E+00
         21   -1    0    0  503  502  0.00000000000E+00  0.00000000000E+00  0.24165756685E+03  0.24165756685E+03  0.00000000000E+00 0. -1.
         21   -1    0    0  501  503 -0.00000000000E+00 -0.00000000000E+00 -0.15076476688E+03  0.15076476688E+03  0.00000000000E+00 0. -1.
          6    2    1    2  501    0 -0.12480882034E+02  0.19639703476E+02 -0.36717683016E+02  0.17611382612E+03  0.17066458665E+03 0.  0.
         24    2    3    3    0    0 -0.36833923618E+02 -0.47042946931E+02 -0.35395934856E+02  0.10495566764E+03  0.78695890494E+02 0.  0.
         -6    2    1    2    0  502  0.12480882034E+02 -0.19639703476E+02  0.12761048298E+03  0.21630850761E+03  0.17309952261E+03 0.  0.
        -24    2    5    5    0    0 -0.35457252202E+02 -0.22486052740E+02  0.13922472698E+03  0.16667840503E+03  0.81457515306E+02 0.  0.
          5    1    3    3  501    0  0.24353041584E+02  0.66682650407E+02 -0.13217481600E+01  0.71158158477E+02  0.47000000000E+01 0. -1.
        -13    1    4    4    0    0 -0.59202883815E+02 -0.18949746979E+02 -0.16208392490E+02  0.64240068102E+02  0.00000000000E+00 0.  1.
         14    1    4    4    0    0  0.22368960197E+02 -0.28093199952E+02 -0.19187542366E+02  0.40715599540E+02  0.00000000000E+00 0. -1.
         -5    1    5    5    0  502  0.47938134236E+02  0.28463492642E+01 -0.11614243997E+02  0.49630102577E+02  0.47000000000E+01 0.  1.
         13    1    6    6    0    0  0.53570481534E+01 -0.43841711656E+02  0.82753900522E+02  0.93802994075E+02  0.00000000000E+00 0. -1.
        -14    1    6    6    0    0 -0.40814300356E+02  0.21355658917E+02  0.56470826457E+02  0.72875410956E+02  0.00000000000E+00 0.  1.
</event>
<event>
12    1  0.8461994E-002  0.2120221E+03  0.7818608E-02  0.1140204E+00
         21   -1    0    0  503  502  0.00000000000E+00  0.00000000000E+00  0.59323670463E+02  0.59323670463E+02  0.00000000000E+00 0. -1.
         21   -1    0    0  501  503 -0.00000000000E+00 -0.00000000000E+00 -0.18594482532E+04  0.18594482532E+04  0.00000000000E+00 0. -1.
          6    2    1    2  501    0  0.60141751882E+02 -0.10724599342E+03 -0.16409298115E+04  0.16545706396E+04  0.17272701503E+03 0.  0.
         24    2    3    3    0    0  0.23889028164E+02 -0.21021132972E+01 -0.10401216934E+04  0.10435371051E+04  0.80879219156E+02 0.  0.
         -6    2    1    2    0  502 -0.60141751882E+02  0.10724599342E+03 -0.15919477118E+03  0.26420128401E+03  0.17129100933E+03 0.  0.
        -24    2    5    5    0    0 -0.20424701052E+02  0.38608861467E+02 -0.55919578914E+01  0.91272355662E+02  0.79947234587E+02 0.  0.
          5    1    3    3  501    0  0.36252723717E+02 -0.10514388013E+03 -0.60080811810E+03  0.61103353449E+03  0.47000000000E+01 0. -1.
        -13    1    4    4    0    0  0.35165104104E+02  0.13452417172E+02 -0.22057349103E+03  0.22376375269E+03  0.00000000000E+00 0.  1.
         14    1    4    4    0    0 -0.11276075939E+02 -0.15554530469E+02 -0.81954820240E+03  0.81977335244E+03  0.00000000000E+00 0. -1.
         -5    1    5    5    0  502 -0.39717050830E+02  0.68637131955E+02 -0.15360281329E+03  0.17292892835E+03  0.47000000000E+01 0.  1.
         11    1    6    6    0    0  0.25331754440E+02  0.37584208327E+02 -0.34204687483E+01  0.45452943854E+02  0.00000000000E+00 0. -1.
        -12    1    6    6    0    0 -0.45756455492E+02  0.10246531408E+01 -0.21714891431E+01  0.45819411807E+02  0.00000000000E+00 0.  1.
</event>
<event>
12    1  0.8461994E-002  0.2386050E+03  0.7818608E-02  0.1120800E+00
         21   -1    0    0  501  502  0.00000000000E+00  0.00000000000E+00  0.24702676909E+03  0.24702676909E+03  0.00000000000E+00 0.  1.
         21   -1    0    0  502  503 -0.00000000000E+00 -0.00000000000E+00 -0.29046999185E+03  0.29046999185E+03  0.00000000000E+00 0.  1.
         -6    2    1    2    0  503 -0.15474340554E+03 -0.56717778055E+02 -0.14428471748E+03  0.27845749144E+03  0.17192459666E+03 0.  0.
        -24    2    3    3    0    0 -0.10348968361E+03  0.33211239181E+02 -0.81129526463E+02  0.15711153846E+03  0.79302802168E+02 0.  0.
          6    2    1    2  501    0  0.15474340554E+03  0.56717778055E+02  0.10084149472E+03  0.25903926949E+03  0.17253958437E+03 0.  0.
         24    2    5    5    0    0  0.48853943936E+02  0.45370029967E+02  0.10939253427E+03  0.15209741733E+03  0.81986281452E+02 0.  0.
          5    1    5    5  501    0  0.10588946161E+03  0.11347748088E+02 -0.85510395522E+01  0.10694185216E+03  0.47000000000E+01 0. -1.
        -11    1    6    6    0    0  0.58217676322E+02  0.62916319549E+02  0.86646836796E+02  0.12188287586E+03  0.00000000000E+00 0.  1.
         12    1    6    6    0    0 -0.93637323856E+01 -0.17546289583E+02  0.22745697477E+02  0.30214541466E+02  0.00000000000E+00 0. -1.
         -5    1    3    3    0  503 -0.51253721930E+02 -0.89929017236E+02 -0.63155191016E+02  0.12134595298E+03  0.47000000000E+01 0.  1.
         13    1    4    4    0    0  0.39270273745E+01  0.24316991553E+02 -0.26829822290E+02  0.36422204578E+02  0.00000000000E+00 0. -1.
        -14    1    4    4    0    0 -0.10741671099E+03  0.88942476280E+01 -0.54299704173E+02  0.12068933388E+03  0.00000000000E+00 0.  1.
</event>
<event>
12    1  0.8461994E-002  0.2608431E+03  0.7818608E-02  0.1106846E+00
         21   -1    0    0  501  502  0.00000000000E+00  0.00000000000E+00  0.20722979449E+03  0.20722979449E+03  0.00000000000E+00 0. -1.
         21   -1    0    0  502  503 -0.00000000000E+00 -0.00000000000E+00 -0.32673353417E+03  0.32673353417E+03  0.00000000000E+00 0.  1.
         -6    2    1    2    0  503  0.16356863187E+03 -0.10576932788E+03 -0.54133609439E+02  0.26640111507E+03  0.17348561435E+03 0.  0.
        -24    2    3    3    0    0  0.67551862977E+02 -0.70027253407E+02  0.33451049564E+02  0.13153125821E+03  0.81941617983E+02 0.  0.
          6    2    1    2  501    0 -0.16356863187E+03  0.10576932788E+03 -0.65370130240E+02  0.26756221359E+03  0.17138972011E+03 0.  0.
         24    2    5    5    0    0 -0.17971028238E+03  0.58781488286E+02 -0.30857263319E+02  0.20688571127E+03  0.78092751695E+02 0.  0.
          5    1    5    5  501    0  0.16141650512E+02  0.46987839594E+02 -0.34512866921E+02  0.60676502322E+02  0.47000000000E+01 0. -1.
        -13    1    6    6    0    0 -0.59093020327E+02  0.44309416828E+02 -0.41874911394E+02  0.84904756494E+02  0.00000000000E+00 0.  1.
         14    1    6    6    0    0 -0.12061726205E+03  0.14472071458E+02  0.11017648075E+02  0.12198095477E+03  0.00000000000E+00 0. -1.
         -5    1    3    3    0  503  0.96016768894E+02 -0.35742074472E+02 -0.87584659003E+02  0.13486985686E+03  0.47000000000E+01 0.  1.
         13    1    4    4    0    0  0.24577986842E+02 -0.76800683617E+02  0.77666755386E+01  0.81010762804E+02  0.00000000000E+00 0. -1.
        -14    1    4    4    0    0  0.42973876135E+02  0.67734302096E+01  0.25684374025E+02  0.50520495405E+02  0.00000000000E+00 0.  1.
</event>
<event>
12    1  0.8461994E-002  0.2006446E+03  0.7818608E-02  0.1149615E+00
         21   -1    0    0  503  502  0.00000000000E+00  0.00000000000E+00  0.14798559672E+04  0.14798559672E+04  0.00000000000E+00 0. -1.
         21   -1    0    0  501  503 -0.00000000000E+00 -0.00000000000E+00 -0.32594936525E+02  0.32594936525E+02  0.00000000000E+00 0. -1.
          6    2    1    2  501    0  0.57963268668E+02 -0.82217296487E+02  0.41150328199E+03  0.45781350741E+03  0.17360539198E+03 0.  0.
         24    2    3    3    0    0  0.10659976108E+03 -0.69051761152E+02  0.31655264366E+03  0.35021911428E+03  0.79474505435E+02 0.  0.
         -6    2    1    2    0  502 -0.57963268668E+02  0.82217296487E+02  0.10357577487E+04  0.10546373963E+04  0.17130819999E+03 0.  0.
        -24    2    5    5    0    0 -0.22356497477E+02  0.55186347605E+02  0.27455790030E+03  0.29211145345E+03  0.80010716032E+02 0.  0.
          5    1    3    3  501    0 -0.48636492417E+02 -0.13165535335E+02  0.94950638325E+02  0.10759439313E+03  0.47000000000E+01 0. -1.
        -13    1    4    4    0    0  0.37041903786E+02  0.51564572726E+01  0.36458747771E+02  0.52229608238E+02  0.00000000000E+00 0.  1.
         14    1    4    4    0    0  0.69557857299E+02 -0.74208218424E+02  0.28009389589E+03  0.29798950604E+03  0.00000000000E+00 0. -1.
         -5    1    5    5    0  502 -0.35606771191E+02  0.27030948881E+02  0.76119984838E+03  0.76252594286E+03  0.47000000000E+01 0.  1.
         13    1    6    6    0    0  0.58209508497E-01  0.15741596596E+02  0.22250894104E+03  0.22306508040E+03  0.00000000000E+00 0. -1.
        -14    1    6    6    0    0 -0.22414706986E+02  0.39444751010E+02  0.52048959256E+02  0.69046373048E+02  0.00000000000E+00 0.  1.
</event>
<event>
12    1  0.8461994E-002  0.1892008E+03  0.7818608E-02  0.1159464E+00
         21   -1    0    0  501  502  0.00000000000E+00  0.00000000000E+00  0.30988962978E+03  0.30988962978E+03  0.00000000000E+00 0. -1.
         21   -1    0    0  502  503 -0.00000000000E+00 -0.00000000000E+00 -0.15054985037E+03  0.15054985037E+03  0.00000000000E+00 0. -1.
         -6    2    1    2    0  503 -0.83412764125E+01  0.79785664838E+02  0.19171056767E+03  0.26848942687E+03  0.16999500399E+03 0.  0.
        -24    2    3    3    0    0 -0.39945421426E+02 -0.13419595250E+01  0.42028760459E+02  0.95263427592E+02  0.75572920961E+02 0.  0.
          6    2    1    2  501    0  0.83412764125E+01 -0.79785664838E+02 -0.32370788271E+02  0.19195005328E+03  0.17135234406E+03 0.  0.
         24    2    5    5    0    0 -0.21979018625E+02 -0.11878153682E+02 -0.68006753025E+02  0.10935003907E+03  0.81904485794E+02 0.  0.
          5    1    5    5  501    0  0.30320295038E+02 -0.67907511157E+02  0.35635964754E+02  0.82600014205E+02  0.47000000000E+01 0. -1.
        -11    1    6    6    0    0  0.22596718786E+02  0.19361325924E+02 -0.14806227676E+02  0.33236982706E+02  0.00000000000E+00 0.  1.
         12    1    6    6    0    0 -0.44575737411E+02 -0.31239479606E+02 -0.53200525349E+02  0.76113056365E+02  0.00000000000E+00 0. -1.
         -5    1    3    3    0  503  0.31604145014E+02  0.81127624363E+02  0.14968180721E+03  0.17322599928E+03  0.47000000000E+01 0.  1.
         11    1    4    4    0    0  0.20152984929E+02 -0.10691052259E+02  0.30313358445E+01  0.23013700201E+02  0.00000000000E+00 0. -1.
        -12    1    4    4    0    0 -0.60098406355E+02  0.93490927340E+01  0.38997424615E+02  0.72249727390E+02  0.00000000000E+00 0.  1.
</event>
<event>
12    1  0.8461994E-002  0.1956724E+03  0.7818608E-02  0.1153659E+00
         21   -1    0    0  501  502  0.00000000000E+00  0.00000000000E+00  0.25889583841E+03  0.25889583841E+03  0.00000000000E+00 0. -1.
         21   -1    0    0  502  503 -0.00000000000E+00 -0.00000000000E+00 -0.14723437475E+03  0.14723437475E+03  0.00000000000E+00 0. -1.
         -6    2    1    2    0  503 -0.90148587466E+02  0.21022305390E+02  0.50723121500E+02  0.20213982620E+03  0.17239190566E+03 0.  0.
        -24    2    3    3    0    0 -0.12920963918E+03  0.13313298675E+02  0.24495915511E+02  0.15423209322E+03  0.79467691080E+02 0.  0.
          6    2    1    2  501    0  0.90148587466E+02 -0.21022305390E+02  0.60938342158E+02  0.20399038696E+03  0.17125971879E+03 0.  0.
         24    2    5    5    0    0  0.53147372075E+01 -0.10428405566E+02 -0.24404772102E+02  0.83099733828E+02  0.78568281046E+02 0.  0.
          5    1    5    5  501    0  0.84833850258E+02 -0.10593899823E+02  0.85343114260E+02  0.12089065313E+03  0.47000000000E+01 0. -1.
        -11    1    6    6    0    0 -0.28958088420E+02  0.84285343472E+01 -0.31202101950E+02  0.43395647735E+02  0.00000000000E+00 0.  1.
         12    1    6    6    0    0  0.34272825628E+02 -0.18856939914E+02  0.67973298477E+01  0.39704086093E+02  0.00000000000E+00 0. -1.
         -5    1    3    3    0  503  0.39061051712E+02  0.77090067149E+01  0.26227205989E+02  0.47907732981E+02  0.47000000000E+01 0.  1.
         11    1    4    4    0    0 -0.64993719874E+02  0.18793703118E+01 -0.27717043682E+02  0.70682035669E+02  0.00000000000E+00 0. -1.
        -12    1    4    4    0    0 -0.64215919304E+02  0.11433928363E+02  0.52212959193E+02  0.83550057555E+02  0.00000000000E+00 0.  1.
</event>
<event>
12    1  0.8461994E-002  0.1743415E+03  0.7818608E-02  0.1173787E+00
         21   -1    0    0  501  502  0.00000000000E+00  0.00000000000E+00  0.28635550257E+03  0.28635550257E+03  0.00000000000E+00 0.  1.
         21   -1    0    0  502  503 -0.00000000000E+00 -0.00000000000E+00 -0.56898905308E+03  0.56898905308E+03  0.00000000000E+00 0.  1.
         -6    2    1    2    0  503  0.62967495236E+01 -0.22583458846E+02 -0.52731549345E+03  0.55490449908E+03  0.17119495263E+03 0.  0.
        -24    2    3    3    0    0 -0.43673592656E+02 -0.60885895857E+02 -0.33842769701E+03  0.35574425852E+03  0.80038717858E+02 0.  0.
          6    2    1    2  501    0 -0.62967495236E+01  0.22583458846E+02  0.24468194293E+03  0.30044005657E+03  0.17275795995E+03 0.  0.
         24    2    5    5    0    0 -0.69419291961E+02  0.44064096262E+00  0.16375708444E+03  0.19534161477E+03  0.80763429191E+02 0.  0.
          5    1    5    5  501    0  0.63122542437E+02  0.22142817884E+02  0.80924858491E+02  0.10509844180E+03  0.47000000000E+01 0. -1.
        -13    1    6    6    0    0 -0.62261777835E+02  0.29083056389E+02  0.14473668292E+03  0.16022191027E+03  0.00000000000E+00 0.  1.
         14    1    6    6    0    0 -0.71575141253E+01 -0.28642415426E+02  0.19020401519E+02  0.35119704495E+02  0.00000000000E+00 0. -1.
         -5    1    3    3    0  503  0.49970342180E+02  0.38302437011E+02 -0.18888779644E+03  0.19916024057E+03  0.47000000000E+01 0.  1.
         13    1    4    4    0    0 -0.33880444285E+02  0.25293566884E+01 -0.51274123060E+02  0.61508681061E+02  0.00000000000E+00 0. -1.
        -14    1    4    4    0    0 -0.97931483709E+01 -0.63415252546E+02 -0.28715357395E+03  0.29423557746E+03  0.00000000000E+00 0.  1.
</event>
<event>
12    1  0.8461994E-002  0.2276496E+03  0.7818608E-02  0.1129746E+00
         21   -1    0    0  501  502  0.00000000000E+00  0.00000000000E+00  0.23879887762E+03  0.23879887762E+03  0.00000000000E+00 0. -1.
         21   -1    0    0  502  503 -0.00000000000E+00 -0.00000000000E+00 -0.20955623661E+03  0.20955623661E+03  0.00000000000E+00 0. -1.
         -6    2    1    2    0  503  0.11018629437E+03  0.82591985501E+02  0.17420399928E+02  0.22831520566E+03  0.18127853505E+03 0.  0.
        -24    2    3    3    0    0  0.36125695750E+01  0.25523418125E+02  0.57295594478E+02  0.10093035045E+03  0.78991486649E+02 0.  0.
          6    2    1    2  501    0 -0.11018629437E+03 -0.82591985501E+02  0.11822241082E+02  0.22003990857E+03  0.17121723173E+03 0.  0.
         24    2    5    5    0    0 -0.14388754312E+03 -0.83987902191E+02  0.24012817981E+01  0.18470483782E+03  0.79702686143E+02 0.  0.
          5    1    5    5  501    0  0.33701248754E+02  0.13959166900E+01  0.94209592838E+01  0.35335070749E+02  0.47000000000E+01 0. -1.
        -13    1    6    6    0    0 -0.39802398079E+02 -0.28396235593E+02  0.37473634857E+02  0.61602357082E+02  0.00000000000E+00 0.  1.
         14    1    6    6    0    0 -0.10408514504E+03 -0.55591666598E+02 -0.35072353059E+02  0.12310248073E+03  0.00000000000E+00 0. -1.
         -5    1    3    3    0  503  0.10657372479E+03  0.57068567376E+02 -0.39875194550E+02  0.12738485522E+03  0.47000000000E+01 0.  1.
         13    1    4    4    0    0  0.39978179854E+02  0.56931480573E+01  0.19442084122E+02  0.44818092711E+02  0.00000000000E+00 0. -1.
        -14    1    4    4    0    0 -0.36365610279E+02  0.19830270067E+02  0.37853510356E+02  0.56112257736E+02  0.00000000000E+00 0.  1.
</event>
<event>
12    1  0.8461994E-002  0.1988256E+03  0.7818608E-02  0.1152541E+00
         21   -1    0    0  503  502  0.00000000000E+00  0.00000000000E+00  0.25970299520E+02  0.25970299520E+02  0.00000000000E+00 0.  1.
         21   -1    0    0  501  503 -0.00000000000E+00 -0.00000000000E+00 -0.15216889392E+04  0.15216889392E+04  0.00000000000E+00 0.  1.
          6    2    1    2  501    0 -0.91449852398E+02 -0.10190828755E+02 -0.60642563585E+03  0.63818780917E+03  0.17625180699E+03 0.  0.
         24    2    3    3    0    0 -0.92987712117E+02 -0.59354312551E+02 -0.53046257537E+03  0.54756833164E+03  0.79188919184E+02 0.  0.
         -6    2    1    2    0  502  0.91449852398E+02  0.10190828755E+02 -0.88929300383E+03  0.90947142955E+03  0.16682117972E+03 0.  0.
        -24    2    5    5    0    0  0.93644736652E+02 -0.31611755097E+02 -0.80646023476E+03  0.81654333280E+03  0.81217389292E+02 0.  0.
          5    1    3    3  501    0  0.15378597190E+01  0.49163483796E+02 -0.75963060482E+02  0.90619477538E+02  0.47000000000E+01 0. -1.
        -11    1    4    4    0    0 -0.10494247602E+02 -0.38085582911E+02 -0.28538492792E+03  0.28810622683E+03  0.00000000000E+00 0.  1.
         12    1    4    4    0    0 -0.82493464515E+02 -0.21268729640E+02 -0.24507764745E+03  0.25946210480E+03  0.00000000000E+00 0. -1.
         -5    1    5    5    0  502 -0.21948842536E+01  0.41802583852E+02 -0.82832769072E+02  0.92928096751E+02  0.47000000000E+01 0.  1.
         11    1    6    6    0    0  0.47400710655E+01  0.61237802499E+01 -0.34487896689E+03  0.34496589797E+03  0.00000000000E+00 0. -1.
        -12    1    6    6    0    0  0.88904665586E+02 -0.37735535346E+02 -0.46158126787E+03  0.47157743483E+03  0.00000000000E+00 0.  1.
</event>
<event>
12    1  0.8461994E-002  0.1796234E+03  0.7818608E-02  0.1168233E+00
         21   -1    0    0  503  502  0.00000000000E+00  0.00000000000E+00  0.14185074153E+03  0.14185074153E+03  0.00000000000E+00 0.  1.
         21   -1    0    0  501  503 -0.00000000000E+00 -0.00000000000E+00 -0.24177772885E+03  0.24177772885E+03  0.00000000000E+00 0.  1.
          6    2    1    2  501    0 -0.50977677506E+02  0.11352362623E+02 -0.97238081518E+02  0.20425431885E+03  0.17186326697E+03 0.  0.
         24    2    3    3    0    0 -0.53676909724E+02 -0.37035839171E+02 -0.92589113385E+01  0.10370021246E+03  0.80094585363E+02 0.  0.
         -6    2    1    2    0  502  0.50977677506E+02 -0.11352362623E+02 -0.26889058018E+01  0.17937415153E+03  0.17158163154E+03 0.  0.
        -24    2    5    5    0    0 -0.19537999446E+02 -0.17807536606E+02 -0.46028983657E+02  0.96220184002E+02  0.80254686409E+02 0.  0.
          5    1    3    3  501    0  0.26992322177E+01  0.48388201793E+02 -0.87979170179E+02  0.10055410639E+03  0.47000000000E+01 0. -1.
        -13    1    4    4    0    0 -0.33475656318E+02  0.16456731373E+02 -0.24370104892E+02  0.44557216990E+02  0.00000000000E+00 0.  1.
         14    1    4    4    0    0 -0.20201253406E+02 -0.53492570544E+02  0.15111193554E+02  0.59142995470E+02  0.00000000000E+00 0. -1.
         -5    1    5    5    0  502  0.70515676952E+02  0.64551739830E+01  0.43340077855E+02  0.83153967528E+02  0.47000000000E+01 0.  1.
         13    1    6    6    0    0 -0.39341191900E+01 -0.20777735245E+02 -0.66802550944E+02  0.70069768005E+02  0.00000000000E+00 0. -1.
        -14    1    6    6    0    0 -0.15603880256E+02  0.29701986392E+01  0.20773567287E+02  0.26150415997E+02  0.00000000000E+00 0.  1.
</event>
<event>
12    1  0.8461994E-002  0.1772117E+03  0.7818608E-02  0.1171056E+00
         21   -1    0    0  503  502  0.00000000000E+00  0.00000000000E+00  0.46829865242E+03  0.46829865242E+03  0.00000000000E+00 0. -1.
         21   -1    0    0  501  503 -0.00000000000E+00 -0.00000000000E+00 -0.97783234113E+02  0.97783234113E+02  0.00000000000E+00 0. -1.
          6    2    1    2  501    0 -0.33791635600E+01  0.42579499547E+02  0.23798939168E+02  0.17670249072E+03  0.16980267428E+03 0.  0.
         24    2    3    3    0    0  0.21352881704E+02 -0.33713108208E+02  0.34493447009E+02  0.95654982687E+02  0.79796983679E+02 0.  0.
         -6    2    1    2    0  502  0.33791635600E+01 -0.42579499547E+02  0.34671647914E+03  0.38937939581E+03  0.17198710547E+03 0.  0.
        -24    2    5    5    0    0  0.25598535852E+02 -0.75415688606E+02  0.32539235551E+03  0.34411656265E+03  0.78696966531E+02 0.  0.
          5    1    3    3  501    0 -0.24732045264E+02  0.76292607754E+02 -0.10694507841E+02  0.81047508036E+02  0.47000000000E+01 0. -1.
        -11    1    4    4    0    0  0.40133188599E+02 -0.45003287110E+01 -0.75903913137E+01  0.41091846222E+02  0.00000000000E+00 0.  1.
         12    1    4    4    0    0 -0.18780306895E+02 -0.29212779497E+02  0.42083838322E+02  0.54563136465E+02  0.00000000000E+00 0. -1.
         -5    1    5    5    0  502 -0.22219372292E+02  0.32836189059E+02  0.21324123631E+02  0.45262833159E+02  0.47000000000E+01 0.  1.
         11    1    6    6    0    0  0.47135177855E+02 -0.56218196882E+02  0.15730940865E+03  0.17357551873E+03  0.00000000000E+00 0. -1.
        -12    1    6    6    0    0 -0.21536642003E+02 -0.19197491724E+02  0.16808294686E+03  0.17054104392E+03  0.00000000000E+00 0.  1.
</event>
<event>
12    1  0.8461994E-002  0.2497998E+03  0.7818608E-02  0.1113628E+00
         21   -1    0    0  501  502  0.00000000000E+00  0.00000000000E+00  0.19142274980E+03  0.19142274980E+03  0.00000000000E+00 0. -1.
         21   -1    0    0  502  503 -0.00000000000E+00 -0.00000000000E+00 -0.33516160682E+03  0.33516160682E+03  0.00000000000E+00 0. -1.
         -6    2    1    2    0  503  0.17552047856E+03  0.38545342920E+02 -0.11896235322E+03  0.27555883232E+03  0.17171909251E+03 0.  0.
        -24    2    3    3    0    0  0.15177428156E+03  0.69594508612E+02 -0.41686804495E+02  0.18883206026E+03  0.77723414363E+02 0.  0.
          6    2    1    2  501    0 -0.17552047856E+03 -0.38545342920E+02 -0.24776503800E+02  0.25102552429E+03  0.17351298755E+03 0.  0.
         24    2    5    5    0    0 -0.93948247474E+02 -0.87406657705E+02  0.28440049529E+01  0.15189712538E+03  0.81230852018E+02 0.  0.
          5    1    5    5  501    0 -0.81572231086E+02  0.48861314786E+02 -0.27620508753E+02  0.99128398911E+02  0.47000000000E+01 0. -1.
        -11    1    6    6    0    0  0.27269959053E+01 -0.21229709618E+02  0.24738641898E+02  0.32712955845E+02  0.00000000000E+00 0.  1.
         12    1    6    6    0    0 -0.96675243380E+02 -0.66176948087E+02 -0.21894636945E+02  0.11918416953E+03  0.00000000000E+00 0. -1.
         -5    1    3    3    0  503  0.23746197001E+02 -0.31049165693E+02 -0.77275548723E+02  0.86726772064E+02  0.47000000000E+01 0.  1.
         11    1    4    4    0    0  0.68715912147E+02  0.36435772206E+01  0.12174958553E+02  0.69881198136E+02  0.00000000000E+00 0. -1.
        -12    1    4    4    0    0  0.83058369413E+02  0.65950931392E+02 -0.53861763048E+02  0.11895086212E+03  0.00000000000E+00 0.  1.
</event>
<event>
12    1  0.8461994E-002  0.2097274E+03  0.7818608E-02  0.1141912E+00
         21   -1    0    0  501  502  0.00000000000E+00  0.00000000000E+00  0.46057539215E+02  0.46057539215E+02  0.00000000000E+00 0.  1.
         21   -1    0    0  502  503 -0.00000000000E+00 -0.00000000000E+00 -0.95375847763E+03  0.95375847763E+03  0.00000000000E+00 0.  1.
         -6    2    1    2    0  503 -0.11262387635E+03 -0.37721136061E+02 -0.47438402766E+03  0.51841271337E+03  0.17205962355E+03 0.  0.
        -24    2    3    3    0    0 -0.71513833485E+02 -0.73957546677E+02 -0.20172425341E+03  0.24026067658E+03  0.80302996247E+02 0.  0.
          6    2    1    2  501    0  0.11262387635E+03  0.37721136061E+02 -0.43331691075E+03  0.48140330347E+03  0.17285419814E+03 0.  0.
         24    2    5    5    0    0  0.62115150638E+02 -0.42312300915E+02 -0.17994358077E+03  0.21089153523E+03  0.80292743291E+02 0.  0.
          5    1    5    5  501    0  0.50508725717E+02  0.80033436976E+02 -0.25337332998E+03  0.27051176823E+03  0.47000000000E+01 0. -1.
        -13    1    6    6    0    0  0.59781416870E+02 -0.20881294886E+02 -0.54314013966E+02  0.83425765757E+02  0.00000000000E+00 0.  1.
         14    1    6    6    0    0  0.23337337675E+01 -0.21431006030E+02 -0.12562956680E+03  0.12746576948E+03  0.00000000000E+00 0. -1.
         -5    1    3    3    0  503 -0.41110042870E+02  0.36236410616E+02 -0.27265977425E+03  0.27815203679E+03  0.47000000000E+01 0.  1.
         11    1    4    4    0    0  0.70768623045E+01  0.11919313140E+02 -0.17280254705E+02  0.22153085755E+02  0.00000000000E+00 0. -1.
        -12    1    4    4    0    0 -0.78590695789E+02 -0.85876859817E+02 -0.18444399871E+03  0.21810759082E+03  0.00000000000E+00 0.  1.
</event>
<event>
12    1  0.8461994E-002  0.1826559E+03  0.7818608E-02  0.1165586E+00
         21   -1    0    0  503  502  0.00000000000E+00  0.00000000000E+00  0.41129936157E+03  0.41129936157E+03  0.00000000000E+00 0. -1.
         21   -1    0    0  501  503 -0.00000000000E+00 -0.00000000000E+00 -0.83989113225E+02  0.83989113225E+02  0.00000000000E+00 0. -1.
          6    2    1    2  501    0  0.49274971884E+02  0.42790706309E+02  0.11380965337E+03  0.21521108832E+03  0.17059926124E+03 0.  0.
         24    2    3    3    0    0 -0.54782620867E+00 -0.26747952647E+02  0.95566328177E+02  0.12761630986E+03  0.80232452147E+02 0.  0.
         -6    2    1    2    0  502 -0.49274971884E+02 -0.42790706309E+02  0.21350059498E+03  0.28007738647E+03  0.16912058111E+03 0.  0.
        -24    2    5    5    0    0 -0.85828944360E+02 -0.95217706080E+01  0.93971884460E+02  0.15064702827E+03  0.80040866137E+02 0.  0.
          5    1    3    3  501    0  0.49822798093E+02  0.69538658957E+02  0.18243325191E+02  0.87594778459E+02  0.47000000000E+01 0. -1.
        -11    1    4    4    0    0 -0.60059198595E+01 -0.17101015279E+01  0.10118846325E+03  0.10138096771E+03  0.00000000000E+00 0.  1.
         12    1    4    4    0    0  0.54580936509E+01 -0.25037851119E+02 -0.56221350682E+01  0.26235342150E+02  0.00000000000E+00 0. -1.
         -5    1    5    5    0  502  0.36553972476E+02 -0.33268935701E+02  0.11952871052E+03  0.12943035820E+03  0.47000000000E+01 0.  1.
         11    1    6    6    0    0 -0.47799907458E+01 -0.33010974490E+02  0.27270572047E+02  0.43084299322E+02  0.00000000000E+00 0. -1.
        -12    1    6    6    0    0 -0.81048953615E+02  0.23489203882E+02  0.66701312413E+02  0.10756272895E+03  0.00000000000E+00 0.  1.
</event>
<event>
12    1  0.8461994E-002  0.2830174E+03  0.7818608E-02  0.1094064E+00
         21   -1    0    0  503  502  0.00000000000E+00  0.00000000000E+00  0.41564474484E+03  0.41564474484E+03  0.00000000000E+00 0. -1.
         21   -1    0    0  501  503 -0.00000000000E+00 -0.00000000000E+00 -0.35639267076E+03  0.35639267076E+03  0.00000000000E+00 0.  1.
          6    2    1    2  501    0 -0.22439172814E+03  0.13653581449E+02 -0.23202857844E+03  0.36590533125E+03  0.17178877228E+03 0.  0.
         24    2    3    3    0    0 -0.12856481938E+03  0.39112469629E+02 -0.60890256748E+02  0.16806355968E+03  0.80492475807E+02 0.  0.
         -6    2    1    2    0  502  0.22439172814E+03 -0.13653581449E+02  0.29128065251E+03  0.40613208435E+03  0.17193249683E+03 0.  0.
        -24    2    5    5    0    0  0.73349156852E+02 -0.33930026000E+02  0.60961692468E+02  0.12991856929E+03  0.81431942275E+02 0.  0.
          5    1    3    3  501    0 -0.95826908760E+02 -0.25458888179E+02 -0.17113832169E+03  0.19784177157E+03  0.47000000000E+01 0. -1.
        -13    1    4    4    0    0 -0.12631699107E+03  0.44395256393E+02 -0.74549596760E+02  0.15324674026E+03  0.00000000000E+00 0.  1.
         14    1    4    4    0    0 -0.22478283139E+01 -0.52827867643E+01  0.13659340012E+02  0.14816819419E+02  0.00000000000E+00 0. -1.
         -5    1    5    5    0  502  0.15104257129E+03  0.20276444551E+02  0.23031896004E+03  0.27621351506E+03  0.47000000000E+01 0.  1.
         11    1    6    6    0    0  0.46413224935E+02 -0.19956559984E+01  0.72922209711E+02  0.86462817216E+02  0.00000000000E+00 0. -1.
        -12    1    6    6    0    0  0.26935931917E+02 -0.31934370002E+02 -0.11960517243E+02  0.43455752075E+02  0.00000000000E+00 0.  1.
</event>
<event>
12    1  0.8461994E-002  0.2403155E+03  0.7818608E-02  0.1119727E+00
         21   -1    0    0  501  502  0.00000000000E+00  0.00000000000E+00  0.67932270887E+02  0.67932270887E+02  0.00000000000E+00 0. -1.
         21   -1    0    0  502  503 -0.00000000000E+00 -0.00000000000E+00 -0.10499615803E+04  0.10499615803E+04  0.00000000000E+00 0.  1.
         -6    2    1    2    0  503  0.53349727181E+02 -0.15849143468E+03 -0.73600147430E+03  0.77397344504E+03  0.17137968139E+03 0.  0.
        -24    2    3    3    0    0 -0.23211920316E+02 -0.41738995695E+02 -0.19852390655E+03  0.21863837167E+03  0.78166866947E+02 0.  0.
          6    2    1    2  501    0 -0.53349727181E+02  0.15849143468E+03 -0.24602783508E+03  0.34392040612E+03  0.17258569424E+03 0.  0.
         24    2    5    5    0    0 -0.31668859449E+02  0.50650449397E+02 -0.32702061633E+02  0.10385851046E+03  0.78414161199E+02 0.  0.
          5    1    5    5  501    0 -0.21680867732E+02  0.10784098528E+03 -0.21332577345E+03  0.24006189566E+03  0.47000000000E+01 0. -1.
        -13    1    6    6    0    0  0.80267238553E+01 -0.17417134978E+02 -0.11082452512E+02  0.22149619418E+02  0.00000000000E+00 0.  1.
         14    1    6    6    0    0 -0.39695583304E+02  0.68067584375E+02 -0.21619609121E+02  0.81708891040E+02  0.00000000000E+00 0. -1.
         -5    1    3    3    0  503  0.76561647497E+02 -0.11675243898E+03 -0.53747756776E+03  0.55533507337E+03  0.47000000000E+01 0.  1.
         13    1    4    4    0    0  0.48879239339E+01  0.21686503947E+02 -0.47893791024E+02  0.52801623768E+02  0.00000000000E+00 0. -1.
        -14    1    4    4    0    0 -0.28099844250E+02 -0.63425499641E+02 -0.15063011552E+03  0.16583674790E+03  0.00000000000E+00 0.  1.
</event>
<event>
12    1  0.8461994E-002  0.1779216E+03  0.7818608E-02  0.1169861E+00
         21   -1    0    0  503  502  0.00000000000E+00  0.00000000000E+00  0.20725446478E+04  0.20725446478E+04  0.00000000000E+00 0. -1.
         21   -1    0    0  501  503 -0.00000000000E+00 -0.00000000000E+00 -0.16183213812E+02  0.16183213812E+02  0.00000000000E+00 0. -1.
          6    2    1    2  501    0  0.26424429614E+02 -0.35290442190E+02  0.12768388830E+04  0.12891582909E+04  0.17224372252E+03 0.  0.
         24    2    3    3    0    0  0.13954580010E+02  0.44261729405E+02  0.85735204771E+03  0.86198696675E+03  0.76257236665E+02 0.  0.
         -6    2    1    2    0  502 -0.26424429614E+02  0.35290442190E+02  0.77952255096E+03  0.79956957073E+03  0.17237292476E+03 0.  0.
        -24    2    5    5    0    0 -0.48706215595E+01 -0.46111042826E+02  0.38085154442E+03  0.39207548505E+03  0.80779551050E+02 0.  0.
          5    1    3    3  501    0  0.12469849604E+02 -0.79552171595E+02  0.41948683530E+03  0.42717132411E+03  0.47000000000E+01 0. -1.
        -13    1    4    4    0    0 -0.26853953071E+02  0.41022144397E+01  0.42394640473E+03  0.42481586251E+03  0.00000000000E+00 0.  1.
         14    1    4    4    0    0  0.40808533082E+02  0.40159514966E+02  0.43340564298E+03  0.43717110424E+03  0.00000000000E+00 0. -1.
         -5    1    5    5    0  502 -0.21553808054E+02  0.81401485016E+02  0.39867100655E+03  0.40749408568E+03  0.47000000000E+01 0.  1.
         13    1    6    6    0    0 -0.28628059475E+02 -0.29026691776E+01  0.50990276436E+02  0.58549120990E+02  0.00000000000E+00 0. -1.
        -14    1    6    6    0    0  0.23757437915E+02 -0.43208373648E+02  0.32986126798E+03  0.33352636406E+03  0.00000000000E+00 0.  1.
</event>
<event>
12    1  0.8461994E-002  0.2037699E+03  0.7818608E-02  0.1146984E+00
         21   -1    0    0  503  502  0.00000000000E+00  0.00000000000E+00  0.11249694235E+03  0.11249694235E+03  0.00000000000E+00 0. -1.
         21   -1    0    0  501  503 -0.00000000000E+00 -0.00000000000E+00 -0.47425204329E+03  0.47425204329E+03  0.00000000000E+00 0.  1.
          6    2    1    2  501    0 -0.70207035828E+02  0.81260769694E+02 -0.32058142088E+03  0.37886092774E+03  0.17097021550E+03 0.  0.
         24    2    3    3    0    0 -0.45531347446E+02 -0.48004679248E+01 -0.77618755773E+02  0.11988530562E+03  0.79067484873E+02 0.  0.
         -6    2    1    2    0  502  0.70207035828E+02 -0.81260769694E+02 -0.41173680061E+02  0.20788805789E+03  0.17317572611E+03 0.  0.
        -24    2    5    5    0    0  0.11121934466E+02 -0.11074536849E+03 -0.41767363697E+02  0.14168508795E+03  0.77083833646E+02 0.  0.
          5    1    3    3  501    0 -0.24675688382E+02  0.86061237619E+02 -0.24296266510E+03  0.25897562212E+03  0.47000000000E+01 0. -1.
        -13    1    4    4    0    0 -0.63780629702E+02 -0.19880858414E+02 -0.64291151945E+02  0.92717686958E+02  0.00000000000E+00 0.  1.
         14    1    4    4    0    0  0.18249282256E+02  0.15080390490E+02 -0.13327603828E+02  0.27167618666E+02  0.00000000000E+00 0. -1.
         -5    1    5    5    0  502  0.59085101361E+02  0.29484598793E+02  0.59368363546E+00  0.66202969942E+02  0.47000000000E+01 0.  1.
         11    1    6    6    0    0  0.14806785138E+02 -0.10342019108E+03 -0.60858184878E+02  0.12090779742E+03  0.00000000000E+00 0. -1.
        -12    1    6    6    0    0 -0.36848506717E+01 -0.73251774033E+01  0.19090821181E+02  0.20777290531E+02  0.00000000000E+00 0.  1.
</event>
<event>
12    1  0.8461994E-002  0.3303366E+03  0.7818608E-02  0.1071025E+00
         21   -1    0    0  503  502  0.00000000000E+00  0.00000000000E+00  0.35568185884E+03  0.35568185884E+03  0.00000000000E+00 0. -1.
         21   -1    0    0  501  503 -0.00000000000E+00 -0.00000000000E+00 -0.33758374787E+03  0.33758374787E+03  0.00000000000E+00 0. -1.
          6    2    1    2  501    0 -0.25433359083E+02 -0.28090100399E+03 -0.96146990815E+02  0.34404433857E+03  0.17195939424E+03 0.  0.
         24    2    3    3    0    0 -0.76206718788E+02 -0.16736558895E+03 -0.90758538237E+02  0.21946765558E+03  0.78167993651E+02 0.  0.
         -6    2    1    2    0  502  0.25433359083E+02  0.28090100399E+03  0.11424510178E+03  0.34922126814E+03  0.17132227247E+03 0.  0.
        -24    2    5    5    0    0 -0.34959771431E+02  0.24172686938E+03  0.99288988894E+02  0.27554821778E+03  0.80090274132E+02 0.  0.
          5    1    3    3  501    0  0.50773359704E+02 -0.11353541504E+03 -0.53884525783E+01  0.12457668299E+03  0.47000000000E+01 0. -1.
        -13    1    4    4    0    0  0.74781562614E+01  0.36585496419E+01  0.47245900486E+00  0.83385264923E+01  0.00000000000E+00 0.  1.
         14    1    4    4    0    0 -0.83684875049E+02 -0.17102413859E+03 -0.91230997241E+02  0.21112912909E+03  0.00000000000E+00 0. -1.
         -5    1    5    5    0  502  0.60393130514E+02  0.39174134608E+02  0.14956112885E+02  0.73673050352E+02  0.47000000000E+01 0.  1.
         13    1    6    6    0    0  0.25045163214E+02  0.46788261131E+02  0.21070726126E+02  0.57099711729E+02  0.00000000000E+00 0. -1.
        -14    1    6    6    0    0 -0.60004934645E+02  0.19493860825E+03  0.78218262768E+02  0.21844850605E+03  0.00000000000E+00 0.  1.
</event>
<event>
12    1  0.8461994E-002  0.2096812E+03  0.7818608E-02  0.1142336E+00
         21   -1    0    0  501  502  0.00000000000E+00  0.00000000000E+00  0.21331160008E+03  0.21331160008E+03  0.00000000000E+00 0.  1.
         21   -1    0    0  502  503 -0.00000000000E+00 -0.00000000000E+00 -0.20581089876E+03  0.20581089876E+03  0.00000000000E+00 0.  1.
         -6    2    1    2    0  503 -0.11244753886E+03 -0.31841257343E+02 -0.18113682874E+02  0.20788256234E+03  0.17096414698E+03 0.  0.
        -24    2    3    3    0    0 -0.12756676351E+03  0.19905617888E+02 -0.20225433566E+02  0.15372649582E+03  0.80952174633E+02 0.  0.
          6    2    1    2  501    0  0.11244753886E+03  0.31841257343E+02  0.25614384188E+02  0.21123993650E+03  0.17409164090E+03 0.  0.
         24    2    5    5    0    0  0.44286735114E+02 -0.27047841947E+02  0.61460342480E+02  0.11417890463E+03  0.81034239083E+02 0.  0.
          5    1    5    5  501    0  0.68160803745E+02  0.58889099291E+02 -0.35845958292E+02  0.97061031873E+02  0.47000000000E+01 0. -1.
        -13    1    6    6    0    0  0.10578055997E+02  0.48074264783E+01 -0.18438768879E+02  0.21794375784E+02  0.00000000000E+00 0.  1.
         14    1    6    6    0    0  0.33708679117E+02 -0.31855268426E+02  0.79899111359E+02  0.92384528847E+02  0.00000000000E+00 0. -1.
         -5    1    3    3    0  503  0.15119224648E+02 -0.51746875231E+02  0.21117506927E+01  0.54156066522E+02  0.47000000000E+01 0.  1.
         13    1    4    4    0    0 -0.90982137217E+01  0.86945067219E+01 -0.31768315878E+02  0.34170130725E+02  0.00000000000E+00 0. -1.
        -14    1    4    4    0    0 -0.11846854978E+03  0.11211111166E+02  0.11542882311E+02  0.11955636509E+03  0.00000000000E+00 0.  1.
</event>
<event>
12    1  0.8461994E-002  0.1913040E+03  0.7818608E-02  0.1157351E+00
         21   -1    0    0  503  502  0.00000000000E+00  0.00000000000E+00  0.38932054490E+03  0.38932054490E+03  0.00000000000E+00 0.  1.
         21   -1    0    0  501  503 -0.00000000000E+00 -0.00000000000E+00 -0.99775420423E+02  0.99775420423E+02  0.00000000000E+00 0.  1.
          6    2    1    2  501    0 -0.82057436856E+02  0.30674571335E+01  0.85375354200E+02  0.20949025946E+03  0.17278421649E+03 0.  0.
         24    2    3    3    0    0 -0.13595092602E+02 -0.52967872938E+02  0.17735901809E+02  0.98026201056E+02  0.79398688742E+02 0.  0.
         -6    2    1    2    0  502  0.82057436856E+02 -0.30674571335E+01  0.20416977028E+03  0.27960570586E+03  0.17248542958E+03 0.  0.
        -24    2    5    5    0    0 -0.25655872843E+00  0.14510423335E+01  0.17506252407E+03  0.19205382131E+03  0.78965888840E+02 0.  0.
          5    1    3    3  501    0 -0.68462344254E+02  0.56035330071E+02  0.67639452391E+02  0.11146405841E+03  0.47000000000E+01 0. -1.
        -13    1    4    4    0    0  0.50193474925E+01 -0.42402291908E+02  0.45875435964E+02  0.62671395654E+02  0.00000000000E+00 0.  1.
         14    1    4    4    0    0 -0.18614440094E+02 -0.10565581030E+02 -0.28139534155E+02  0.35354805402E+02  0.00000000000E+00 0. -1.
         -5    1    5    5    0  502  0.82313995584E+02 -0.45184994671E+01  0.29107246208E+02  0.87551884550E+02  0.47000000000E+01 0.  1.
         13    1    6    6    0    0  0.30416609777E+02  0.91073611487E+01  0.14497350676E+03  0.14840967570E+03  0.00000000000E+00 0. -1.
        -14    1    6    6    0    0 -0.30673168506E+02 -0.76563188152E+01  0.30089017310E+02  0.43644145617E+02  0.00000000000E+00 0.  1.
</event>
<event>
12    1  0.8461994E-002  0.2931977E+03  0.7818608E-02  0.1088767E+00
         21   -1    0    0  503  502  0.00000000000E+00  0.00000000000E+00  0.67083246039E+02  0.67083246039E+02  0.00000000000E+00 0.  1.
         21   -1    0    0  501  503 -0.00000000000E+00 -0.00000000000E+00 -0.20089039496E+04  0.20089039496E+04  0.00000000000E+00 0. -1.
          6    2    1    2  501    0  0.16166222512E+03  0.17315711878E+03 -0.15960076371E+04  0.16226092322E+04  0.17176227777E+03 0.  0.
         24    2    3    3    0    0  0.99367249393E+02  0.18302143464E+03 -0.13643962933E+04  0.13825178469E+04  0.80047836296E+02 0.  0.
         -6    2    1    2    0  502 -0.16166222512E+03 -0.17315711878E+03 -0.34581306647E+03  0.45337796341E+03  0.17276237422E+03 0.  0.
        -24    2    5    5    0    0 -0.44259932149E+02 -0.37979184548E+02 -0.19180918915E+03  0.21716692106E+03  0.83482612002E+02 0.  0.
          5    1    3    3  501    0  0.62294975728E+02 -0.98643158642E+01 -0.23161134377E+03  0.24009138529E+03  0.47000000000E+01 0. -1.
        -11    1    4    4    0    0  0.35967907122E+02  0.29983980081E+02 -0.15771931419E+03  0.16452389332E+03  0.00000000000E+00 0.  1.
         12    1    4    4    0    0  0.63399342271E+02  0.15303745456E+03 -0.12066769791E+04  0.12179939536E+04  0.00000000000E+00 0. -1.
         -5    1    5    5    0  502 -0.11740229297E+03 -0.13517793423E+03 -0.15400387732E+03  0.23621104235E+03  0.47000000000E+01 0.  1.
         13    1    6    6    0    0 -0.16232220416E+02 -0.57489545295E+02 -0.15882995316E+03  0.16969232988E+03  0.00000000000E+00 0. -1.
        -14    1    6    6    0    0 -0.28027711733E+02  0.19510360747E+02 -0.32979235989E+02  0.47474591182E+02  0.00000000000E+00 0.  1.
</event>
<event>
12    1  0.8461994E-002  0.1955600E+03  0.7818608E-02  0.1154215E+00
         21   -1    0    0  503  502  0.00000000000E+00  0.00000000000E+00  0.12745940552E+03  0.12745940552E+03  0.00000000000E+00 0. -1.
         21   -1    0    0  501  503 -0.00000000000E+00 -0.00000000000E+00 -0.11820686777E+04  0.11820686777E+04  0.00000000000E+00 0. -1.
          6    2    1    2  501    0 -0.89202232369E+02  0.29436970845E+02 -0.10933537351E+04  0.11101669758E+04  0.16800223351E+03 0.  0.
         24    2    3    3    0    0 -0.74031083029E+02  0.54687016743E+02 -0.46066833184E+03  0.47677875507E+03  0.81433397763E+02 0.  0.
         -6    2    1    2    0  502  0.89202232369E+02 -0.29436970845E+02  0.38744462999E+02  0.19936110740E+03  0.17152301368E+03 0.  0.
        -24    2    5    5    0    0  0.67952383400E+02 -0.85715537300E+02  0.25142711894E+02  0.13750699876E+03  0.79443936215E+02 0.  0.
          5    1    3    3  501    0 -0.15171149340E+02 -0.25250045898E+02 -0.63268540329E+03  0.63338822071E+03  0.47000000000E+01 0. -1.
        -13    1    4    4    0    0  0.16536227019E+02  0.10195129423E+02 -0.11704350132E+03  0.11864471614E+03  0.00000000000E+00 0.  1.
         14    1    4    4    0    0 -0.90567310048E+02  0.44491887319E+02 -0.34362483052E+03  0.35813403893E+03  0.00000000000E+00 0. -1.
         -5    1    5    5    0  502  0.21249848969E+02  0.56278566455E+02  0.13601751105E+02  0.61854108648E+02  0.47000000000E+01 0.  1.
         11    1    6    6    0    0  0.61303823780E+02 -0.21785065386E+02  0.32653811785E+02  0.72794363161E+02  0.00000000000E+00 0. -1.
        -12    1    6    6    0    0  0.66485596203E+01 -0.63930471914E+02 -0.75110998910E+01  0.64712635596E+02  0.00000000000E+00 0.  1.
</event>
<event>
12    1  0.8461994E-002  0.2056084E+03  0.7818608E-02  0.1145316E+00
         21   -1    0    0  503  502  0.00000000000E+00  0.00000000000E+00  0.63626143865E+02  0.63626143865E+02  0.00000000000E+00 0. -1.
         21   -1    0    0  501  503 -0.00000000000E+00 -0.00000000000E+00 -0.74630610101E+03  0.74630610101E+03  0.00000000000E+00 0.  1.
          6    2    1    2  501    0 -0.95086391164E+02  0.52310348395E+02 -0.47754132261E+03  0.51949003827E+03  0.17333894752E+03 0.  0.
         24    2    3    3    0    0 -0.49604966590E+02  0.82541947442E+02 -0.42705954566E+03  0.44497152133E+03  0.79661618500E+02 0.  0.
         -6    2    1    2    0  502  0.95086391164E+02 -0.52310348395E+02 -0.20513863453E+03  0.29044220660E+03  0.17463396481E+03 0.  0.
        -24    2    5    5    0    0  0.19027486126E+02  0.46272248826E+01 -0.16968979678E+03  0.18892593015E+03  0.80715076126E+02 0.  0.
          5    1    3    3  501    0 -0.45481424573E+02 -0.30231599046E+02 -0.50481776955E+02  0.74518516938E+02  0.47000000000E+01 0. -1.
        -13    1    4    4    0    0  0.16742448144E+02 -0.26584479487E+01 -0.61925842792E+02  0.64204259367E+02  0.00000000000E+00 0.  1.
         14    1    4    4    0    0 -0.66347414734E+02  0.85200395390E+02 -0.36513370287E+03  0.38076726197E+03  0.00000000000E+00 0. -1.
         -5    1    5    5    0  502  0.76058905038E+02 -0.56937573278E+02 -0.35448837747E+02  0.10151627645E+03  0.47000000000E+01 0.  1.
         11    1    6    6    0    0 -0.82675895472E+01 -0.11247826039E+02  0.22247448381E+01  0.14135632888E+02  0.00000000000E+00 0. -1.
        -12    1    6    6    0    0  0.27295075673E+02  0.15875050922E+02 -0.17191454162E+03  0.17479029727E+03  0.00000000000E+00 0.  1.
</event>
<event>
12    1  0.8461994E-002  0.1759887E+03  0.7818608E-02  0.1172366E+00
         21   -1    0    0  503  502  0.00000000000E+00  0.00000000000E+00  0.10306018205E+04  0.10306018205E+04  0.00000000000E+00 0. -1.
         21   -1    0    0  501  503 -0.00000000000E+00 -0.00000000000E+00 -0.44338085846E+02  0.44338085846E+02  0.00000000000E+00 0. -1.
          6    2    1    2  501    0  0.20824479411E+01 -0.25167952779E+02  0.18123442951E+03  0.25089851518E+03  0.17165775264E+03 0.  0.
         24    2    3    3    0    0 -0.14102442655E+02 -0.80334322577E+02  0.87499830907E+02  0.14083696869E+03  0.74339417997E+02 0.  0.
         -6    2    1    2    0  502 -0.20824479411E+01  0.25167952779E+02  0.80502930516E+03  0.82404139119E+03  0.17416736141E+03 0.  0.
        -24    2    5    5    0    0 -0.60208310643E+02  0.13940614138E+02  0.31928270227E+03  0.33467800753E+03  0.79047728354E+02 0.  0.
          5    1    3    3  501    0  0.16184890596E+02  0.55166369799E+02  0.93734598599E+02  0.11006154649E+03  0.47000000000E+01 0. -1.
        -13    1    4    4    0    0 -0.24019995332E+02 -0.60949919634E+02  0.97024355720E+02  0.11707082678E+03  0.00000000000E+00 0.  1.
         14    1    4    4    0    0  0.99175526770E+01 -0.19384402943E+02 -0.95245248126E+01  0.23766141914E+02  0.00000000000E+00 0. -1.
         -5    1    5    5    0  502  0.58125862702E+02  0.11227338641E+02  0.48574660289E+03  0.48936338366E+03  0.47000000000E+01 0.  1.
         13    1    6    6    0    0 -0.25644518831E+02 -0.29151482988E+02  0.19260745549E+03  0.19648176052E+03  0.00000000000E+00 0. -1.
        -14    1    6    6    0    0 -0.34563791811E+02  0.43092097126E+02  0.12667524678E+03  0.13819624700E+03  0.00000000000E+00 0.  1.
</event>
<event>
12    1  0.8461994E-002  0.2045165E+03  0.7818608E-02  0.1145987E+00
         21   -1    0    0  503  502  0.00000000000E+00  0.00000000000E+00  0.22524931380E+03  0.22524931380E+03  0.00000000000E+00 0. -1.
         21   -1    0    0  501  503 -0.00000000000E+00 -0.00000000000E+00 -0.18785874980E+03  0.18785874980E+03  0.00000000000E+00 0. -1.
          6    2    1    2  501    0 -0.10801088227E+03  0.25020410514E+02  0.40953951177E+02  0.20856048542E+03  0.17183677816E+03 0.  0.
         24    2    3    3    0    0 -0.46939234896E+02  0.48038570845E+02  0.81212971943E+02  0.13173301265E+03  0.79038242325E+02 0.  0.
         -6    2    1    2    0  502  0.10801088227E+03 -0.25020410514E+02 -0.35633871708E+01  0.20454757818E+03  0.17185645865E+03 0.  0.
        -24    2    5    5    0    0  0.75465717937E+02  0.41309567761E+02  0.33369041352E+02  0.12181337718E+03  0.79520129312E+02 0.  0.
          5    1    3    3  501    0 -0.61071647377E+02 -0.23018160332E+02 -0.40259020766E+02  0.76827472765E+02  0.47000000000E+01 0. -1.
        -11    1    4    4    0    0  0.15693389279E+02 -0.45303693944E+01  0.32964805374E+02  0.36789741876E+02  0.00000000000E+00 0.  1.
         12    1    4    4    0    0 -0.62632624175E+02  0.52568940240E+02  0.48248166569E+02  0.94943270779E+02  0.00000000000E+00 0. -1.
         -5    1    5    5    0  502  0.32545164335E+02 -0.66329978274E+02 -0.36932428523E+02  0.82734201006E+02  0.47000000000E+01 0.  1.
         13    1    6    6    0    0  0.25968564954E+02  0.19272855550E+02  0.54732666889E+02  0.63572589624E+02  0.00000000000E+00 0. -1.
        -14    1    6    6    0    0  0.49497152984E+02  0.22036712211E+02 -0.21363625536E+02  0.58240787551E+02  0.00000000000E+00 0.  1.
</event>
<event>
12    1  0.8461994E-002  0.3406642E+03  0.7818608E-02  0.1066582E+00
         21   -1    0    0  503  502  0.00000000000E+00  0.00000000000E+00  0.50053279594E+02  0.50053279594E+02  0.00000000000E+00 0.  1.
         21   -1    0    0  501  503 -0.00000000000E+00 -0.00000000000E+00 -0.23209984073E+04  0.23209984073E+04  0.00000000000E+00 0.  1.
          6    2    1    2  501    0 -0.17523279591E+03 -0.23656439631E+03 -0.11985173983E+04  0.12458168934E+04  0.17013680223E+03 0.  0.
         24    2    3    3    0    0 -0.17872997230E+03 -0.23519468510E+03 -0.97164643642E+03  0.10188661725E+04  0.82039851565E+02 0.  0.
         -6    2    1    2    0  502  0.17523279591E+03  0.23656439631E+03 -0.10724277294E+04  0.11252347935E+04  0.17141429152E+03 0.  0.
        -24    2    5    5    0    0  0.49597531352E+02  0.13258105946E+03 -0.36722318840E+03  0.40140312197E+03  0.78955327815E+02 0.  0.
          5    1    3    3  501    0  0.34971763897E+01 -0.13697112137E+01 -0.22687096186E+03  0.22695072084E+03  0.47000000000E+01 0. -1.
        -11    1    4    4    0    0 -0.45166054458E+02 -0.12434355647E+03 -0.38608987349E+03  0.40812581752E+03  0.00000000000E+00 0.  1.
         12    1    4    4    0    0 -0.13356391784E+03 -0.11085112863E+03 -0.58555656293E+03  0.61074035503E+03  0.00000000000E+00 0. -1.
         -5    1    5    5    0  502  0.12563526456E+03  0.10398333685E+03 -0.70520454101E+03  0.72383167153E+03  0.47000000000E+01 0.  1.
         13    1    6    6    0    0  0.45647847577E+02  0.77081020489E+02 -0.13090588973E+03  0.15862396312E+03  0.00000000000E+00 0. -1.
        -14    1    6    6    0    0  0.39496837748E+01  0.55500038973E+02 -0.23631729866E+03  0.24277915886E+03  0.00000000000E+00 0.  1.
</event>
<event>
12    1  0.8461994E-002  0.2018200E+03  0.7818608E-02  0.1149178E+00
         21   -1    0    0  501  502  0.00000000000E+00  0.00000000000E+00  0.11007062525E+03  0.11007062525E+03  0.00000000000E+00 0.  1.
         21   -1    0    0  502  503 -0.00000000000E+00 -0.00000000000E+00 -0.70312559743E+03  0.70312559743E+03  0.00000000000E+00 0.  1.
         -6    2    1    2    0  503  0.80382050487E+02 -0.68996504541E+02 -0.57809983208E+03  0.61082286672E+03  0.16638319316E+03 0.  0.
        -24    2    3    3    0    0  0.93941839694E+02 -0.10095931399E+03 -0.50625938035E+03  0.53089396345E+03  0.80820714612E+02 0.  0.
          6    2    1    2  501    0 -0.80382050487E+02  0.68996504541E+02 -0.14955140097E+02  0.20237335596E+03  0.17178337320E+03 0.  0.
         24    2    5    5    0    0  0.99124378090E+01  0.74094349824E+02  0.66835058659E+01  0.10926372358E+03  0.79408204489E+02 0.  0.
          5    1    5    5  501    0 -0.90294488296E+02 -0.50978452827E+01 -0.21638645963E+02  0.93109632382E+02  0.47000000000E+01 0. -1.
        -11    1    6    6    0    0 -0.10244444673E+02  0.84905802404E+02  0.32172009644E+00  0.85522204323E+02  0.00000000000E+00 0.  1.
         12    1    6    6    0    0  0.20156882482E+02 -0.10811452580E+02  0.63617857695E+01  0.23741519253E+02  0.00000000000E+00 0. -1.
         -5    1    3    3    0  503 -0.13559789207E+02  0.31962809454E+02 -0.71840451733E+02  0.79928903263E+02  0.47000000000E+01 0.  1.
         13    1    4    4    0    0  0.15563608800E+00  0.79190114883E+01 -0.93499854861E+02  0.93834736769E+02  0.00000000000E+00 0. -1.
        -14    1    4    4    0    0  0.93786203606E+02 -0.10887832548E+03 -0.41275952549E+03  0.43705922668E+03  0.00000000000E+00 0.  1.
</event>
<event>
12    1  0.8461994E-002  0.2942669E+03  0.7818608E-02  0.1088255E+00
         21   -1    0    0  501  502  0.00000000000E+00  0.00000000000E+00  0.32840831040E+03  0.32840831040E+03  0.00000000000E+00 0. -1.
         21   -1    0    0  502  503 -0.00000000000E+00 -0.00000000000E+00 -0.38829269620E+03  0.38829269620E+03  0.00000000000E+00 0. -1.
         -6    2    1    2    0  503 -0.23758521580E+03  0.13405048699E+02 -0.23362319791E+03  0.37572969027E+03  0.17310855396E+03 0.  0.
        -24    2    3    3    0    0 -0.18528804959E+03 -0.52297116091E+02 -0.18471466222E+03  0.27843681841E+03  0.79629804314E+02 0.  0.
          6    2    1    2  501    0  0.23758521580E+03 -0.13405048699E+02  0.17373881211E+03  0.34097131632E+03  0.17160953827E+03 0.  0.
         24    2    5    5    0    0  0.63907528460E+02  0.36770546677E+02  0.89751202128E+02  0.14157839247E+03  0.80950093482E+02 0.  0.
          5    1    5    5  501    0  0.17367768734E+03 -0.50175595376E+02  0.83987609983E+02  0.19939292385E+03  0.47000000000E+01 0. -1.
        -13    1    6    6    0    0  0.71227700541E+02  0.17491794223E+02  0.31568605327E+02  0.79849389677E+02  0.00000000000E+00 0.  1.
         14    1    6    6    0    0 -0.73201720818E+01  0.19278752454E+02  0.58182596801E+02  0.61729002795E+02  0.00000000000E+00 0. -1.
         -5    1    3    3    0  503 -0.52297166211E+02  0.65702164790E+02 -0.48908535691E+02  0.97292871863E+02  0.47000000000E+01 0.  1.
         13    1    4    4    0    0 -0.57723107457E+00 -0.10279825167E+01 -0.35484840007E+02  0.35504419641E+02  0.00000000000E+00 0. -1.
        -14    1    4    4    0    0 -0.18471081851E+03 -0.51269133574E+02 -0.14922982222E+03  0.24293239877E+03  0.00000000000E+00 0.  1.
</event>
<event>
12    1  0.8461994E-002  0.1797365E+03  0.7818608E-02  0.1168182E+00
         21   -1    0    0  501  502  0.00000000000E+00  0.00000000000E+00  0.96415121060E+02  0.96415121060E+02  0.00000000000E+00 0. -1.
         21   -1    0    0  502  503 -0.00000000000E+00 -0.00000000000E+00 -0.33456546997E+03  0.33456546997E+03  0.00000000000E+00 0. -1.
         -6    2    1    2    0  503  0.32558777575E+02 -0.39123003596E+02 -0.12716745755E+03  0.22017444726E+03  0.17237906357E+03 0.  0.
        -24    2    3    3    0    0 -0.30302521094E+02 -0.12915708785E+02 -0.12491273671E+03  0.15186969678E+03  0.79850827725E+02 0.  0.
          6    2    1    2  501    0 -0.32558777575E+02  0.39123003596E+02 -0.11098289136E+03  0.21080614377E+03  0.17184686401E+03 0.  0.
         24    2    5    5    0    0 -0.17147744845E+02 -0.13460406535E+01  0.11156955057E+02  0.81131645297E+02  0.78498466505E+02 0.  0.
          5    1    5    5  501    0 -0.15411032730E+02  0.40469044249E+02 -0.12213984642E+03  0.12967449848E+03  0.47000000000E+01 0. -1.
        -11    1    6    6    0    0 -0.36724451795E+02 -0.16939953518E+02 -0.16635278134E+02  0.43730765639E+02  0.00000000000E+00 0.  1.
         12    1    6    6    0    0  0.19576706950E+02  0.15593912864E+02  0.27792233191E+02  0.37400879658E+02  0.00000000000E+00 0. -1.
         -5    1    3    3    0  503  0.62861298669E+02 -0.26207294811E+02 -0.22547208359E+01  0.68304750477E+02  0.47000000000E+01 0.  1.
         11    1    4    4    0    0 -0.35286919994E+02  0.36885710742E+01 -0.11731506968E+02  0.37368443036E+02  0.00000000000E+00 0. -1.
        -12    1    4    4    0    0  0.49843988994E+01 -0.16604279859E+02 -0.11318122975E+03  0.11450125374E+03  0.00000000000E+00 0.  1.
</event>
<event>
12    1  0.8461994E-002  0.3586441E+03  0.7818608E-02  0.1059313E+00
         21   -1    0    0  501  502  0.00000000000E+00  0.00000000000E+00  0.92984551432E+02  0.92984551432E+02  0.00000000000E+00 0. -1.
         21   -1    0    0  502  503 -0.00000000000E+00 -0.00000000000E+00 -0.13942389882E+04  0.13942389882E+04  0.00000000000E+00 0. -1.
         -6    2    1    2    0  503  0.29300416962E+03 -0.11431862733E+03 -0.56709716110E+03  0.67098791056E+03  0.17235252831E+03 0.  0.
        -24    2    3    3    0    0  0.26173468302E+03 -0.41221642893E+02 -0.44907765678E+03  0.52860938926E+03  0.86907286574E+02 0.  0.
          6    2    1    2  501    0 -0.29300416962E+03  0.11431862733E+03 -0.73415727568E+03  0.81623562909E+03  0.16832559162E+03 0.  0.
         24    2    5    5    0    0 -0.99059602069E+02  0.63931165520E+02 -0.42168035056E+03  0.44499809015E+03  0.79429109885E+02 0.  0.
          5    1    5    5  501    0 -0.19394456755E+03  0.50387461809E+02 -0.31247692511E+03  0.37123753894E+03  0.47000000000E+01 0. -1.
        -11    1    6    6    0    0 -0.14127572215E+02 -0.13027897795E+02 -0.13327577131E+03  0.13465417051E+03  0.00000000000E+00 0.  1.
         12    1    6    6    0    0 -0.84932029853E+02  0.76959063315E+02 -0.28840457926E+03  0.31034391964E+03  0.00000000000E+00 0. -1.
         -5    1    3    3    0  503  0.31269486602E+02 -0.73096984436E+02 -0.11801950432E+03  0.14237852130E+03  0.47000000000E+01 0.  1.
         13    1    4    4    0    0  0.14495394317E+03 -0.17670827874E+02 -0.16371400470E+03  0.21937679717E+03  0.00000000000E+00 0. -1.
        -14    1    4    4    0    0  0.11678073984E+03 -0.23550815019E+02 -0.28536365208E+03  0.30923259209E+03  0.00000000000E+00 0.  1.
</event>
<event>
12    1  0.8461994E-002  0.2234734E+03  0.7818608E-02  0.1131428E+00
         21   -1    0    0  501  502  0.00000000000E+00  0.00000000000E+00  0.30924597758E+03  0.30924597758E+03  0.00000000000E+00 0.  1.
         21   -1    0    0  502  503 -0.00000000000E+00 -0.00000000000E+00 -0.17157420275E+03  0.17157420275E+03  0.00000000000E+00 0.  1.
         -6    2    1    2    0  503  0.68669754421E+02 -0.12369696303E+03  0.12842557140E+03  0.25774697176E+03  0.17298526013E+03 0.  0.
        -24    2    3    3    0    0  0.70097942010E+02 -0.10271774230E+03  0.16132251462E+03  0.21842183609E+03  0.78857394720E+02 0.  0.
          6    2    1    2  501    0 -0.68669754421E+02  0.12369696303E+03  0.92462034230E+01  0.22307320858E+03  0.17221988930E+03 0.  0.
         24    2    5    5    0    0 -0.81077098290E+02  0.15266142504E+03  0.43697576835E+01  0.19084353337E+03  0.80766037941E+02 0.  0.
          5    1    5    5  501    0  0.12407343870E+02 -0.28964462004E+02  0.48764457395E+01  0.32229675210E+02  0.47000000000E+01 0. -1.
        -11    1    6    6    0    0 -0.21782510503E+02  0.12942077517E+02  0.27407121068E+02  0.37324595370E+02  0.00000000000E+00 0.  1.
         12    1    6    6    0    0 -0.59294587788E+02  0.13971934752E+03 -0.23037363385E+02  0.15351893800E+03  0.00000000000E+00 0. -1.
         -5    1    3    3    0  503 -0.14281875894E+01 -0.20979220730E+02 -0.32896943213E+02  0.39325135664E+02  0.47000000000E+01 0.  1.
         13    1    4    4    0    0  0.37252958562E+02  0.21931691671E+01  0.41416094300E+02  0.55748415042E+02  0.00000000000E+00 0. -1.
        -14    1    4    4    0    0  0.32844983448E+02 -0.10491091147E+03  0.11990642032E+03  0.16267342105E+03  0.00000000000E+00 0.  1.
</event>
<event>
12    1  0.8461994E-002  0.1746497E+03  0.7818608E-02  0.1173154E+00
         21   -1    0    0  501  502  0.00000000000E+00  0.00000000000E+00  0.22091865549E+02  0.22091865549E+02  0.00000000000E+00 0. -1.
         21   -1    0    0  502  503 -0.00000000000E+00 -0.00000000000E+00 -0.14123938813E+04  0.14123938813E+04  0.00000000000E+00 0. -1.
         -6    2    1    2    0  503  0.26284505629E+02 -0.13599036722E+02 -0.58353256983E+03  0.60902861825E+03  0.17184233690E+03 0.  0.
        -24    2    3    3    0    0 -0.24138698015E+02  0.36079970638E+02 -0.43612425487E+03  0.44543826230E+03  0.79538913835E+02 0.  0.
          6    2    1    2  501    0 -0.26284505629E+02  0.13599036722E+02 -0.80676944591E+03  0.82545712859E+03  0.17212415071E+03 0.  0.
         24    2    5    5    0    0 -0.17613962225E+02  0.59299903603E+02 -0.30331013239E+03  0.31983165660E+03  0.80427121805E+02 0.  0.
          5    1    5    5  501    0 -0.86705434037E+01 -0.45700866881E+02 -0.50345931352E+03  0.50562547199E+03  0.47000000000E+01 0. -1.
        -11    1    6    6    0    0  0.53860293473E+01  0.18025726596E+01 -0.19488635090E+03  0.19496909588E+03  0.00000000000E+00 0.  1.
         12    1    6    6    0    0 -0.22999991573E+02  0.57497330944E+02 -0.10842378149E+03  0.12486256072E+03  0.00000000000E+00 0. -1.
         -5    1    3    3    0  503  0.50423203645E+02 -0.49679007360E+02 -0.14740831497E+03  0.16359035595E+03  0.47000000000E+01 0.  1.
         13    1    4    4    0    0 -0.30881824044E+02 -0.16477769596E+02 -0.12389666788E+03  0.12874621648E+03  0.00000000000E+00 0. -1.
        -14    1    4    4    0    0  0.67431260290E+01  0.52557740234E+02 -0.31222758699E+03  0.31669204582E+03  0.00000000000E+00 0.  1.
</event>
<event>
12    1  0.8461994E-002  0.1840293E+03  0.7818608E-02  0.1164204E+00
         21   -1    0    0  503  502  0.00000000000E+00  0.00000000000E+00  0.66283447304E+02  0.66283447304E+02  0.00000000000E+00 0.  1.
         21   -1    0    0  501  503 -0.00000000000E+00 -0.00000000000E+00 -0.82759981477E+03  0.82759981477E+03  0.00000000000E+00 0.  1.
          6    2    1    2  501    0  0.58893145844E+02 -0.34770325417E+02 -0.10228487513E+03  0.20963967713E+03  0.16973279114E+03 0.  0.
         24    2    3    3    0    0  0.10320305358E+03 -0.39998343103E+02 -0.58571526586E+02  0.14700065627E+03  0.76992411953E+02 0.  0.
         -6    2    1    2    0  502 -0.58893145844E+02  0.34770325417E+02 -0.65903149233E+03  0.68424358494E+03  0.17084904885E+03 0.  0.
        -24    2    5    5    0    0 -0.57013071698E+02  0.87174427535E+02 -0.49247303597E+03  0.50956234959E+03  0.79210010763E+02 0.  0.
          5    1    3    3  501    0 -0.44309907739E+02  0.52280176862E+01 -0.43713348545E+02  0.62639020856E+02  0.47000000000E+01 0. -1.
        -11    1    4    4    0    0  0.43725823149E+02 -0.54251040636E+02 -0.13372135050E+02  0.70950243241E+02  0.00000000000E+00 0.  1.
         12    1    4    4    0    0  0.59477230434E+02  0.14252697534E+02 -0.45199391536E+02  0.76050413032E+02  0.00000000000E+00 0. -1.
         -5    1    5    5    0  502 -0.18800741456E+01 -0.52404102119E+02 -0.16655845636E+03  0.17468123535E+03  0.47000000000E+01 0.  1.
         13    1    6    6    0    0 -0.39336703089E+02  0.31629361221E+02 -0.37542710247E+03  0.37880509760E+03  0.00000000000E+00 0. -1.
        -14    1    6    6    0    0 -0.17676368609E+02  0.55545066314E+02 -0.11704593350E+03  0.13075725199E+03  0.00000000000E+00 0.  1.
</event>
<event>
12    1  0.8461994E-002  0.1886646E+03  0.7818608E-02  0.1161936E+00
         21   -1    0    0  503  502  0.00000000000E+00  0.00000000000E+00  0.49172781054E+03  0.49172781054E+03  0.00000000000E+00 0.  1.
         21   -1    0    0  501  503 -0.00000000000E+00 -0.00000000000E+00 -0.87244974242E+02  0.87244974242E+02  0.00000000000E+00 0.  1.
          6    2    1    2  501    0 -0.27069247170E+02 -0.32692679270E+02  0.64697380498E+02  0.19032319541E+03  0.17388390451E+03 0.  0.
         24    2    3    3    0    0  0.29923930659E+02 -0.59009748488E+02  0.43482222653E+01  0.10311699522E+03  0.78972245912E+02 0.  0.
         -6    2    1    2    0  502  0.27069247170E+02  0.32692679270E+02  0.33978545580E+03  0.38864958938E+03  0.18382815869E+03 0.  0.
        -24    2    5    5    0    0 -0.17724840285E+02 -0.13025558524E+02  0.30365516638E+03  0.31500072414E+03  0.80840342628E+02 0.  0.
          5    1    3    3  501    0 -0.56993177829E+02  0.26317069217E+02  0.60349158233E+02  0.87206200185E+02  0.47000000000E+01 0. -1.
        -11    1    4    4    0    0  0.98781150540E+01 -0.18436343872E+02  0.40243607154E+02  0.45354424802E+02  0.00000000000E+00 0.  1.
         12    1    4    4    0    0  0.20045815605E+02 -0.40573404616E+02 -0.35895384889E+02  0.57762570422E+02  0.00000000000E+00 0. -1.
         -5    1    5    5    0  502  0.44794087455E+02  0.45718237794E+02  0.36130289420E+02  0.73648865242E+02  0.47000000000E+01 0.  1.
         13    1    6    6    0    0 -0.63481064667E+01 -0.31491735416E+01  0.29920874307E+03  0.29929264555E+03  0.00000000000E+00 0. -1.
        -14    1    6    6    0    0 -0.11376733818E+02 -0.98763849819E+01  0.44464233168E+01  0.15708078590E+02  0.00000000000E+00 0.  1.
</event>
<event>
12    1  0.8461994E-002  0.1762267E+03  0.7818608E-02  0.1171917E+00
         21   -1    0    0  503  502  0.00000000000E+00  0.00000000000E+00  0.38438162126E+02  0.38438162126E+02  0.00000000000E+00 0. -1.
         21   -1    0    0  501  503 -0.00000000000E+00 -0.00000000000E+00 -0.87135588594E+03  0.87135588594E+03  0.00000000000E+00 0. -1.
          6    2    1    2  501    0  0.21352404853E+01  0.33839271911E+02 -0.54446278882E+03  0.57176725583E+03  0.17125539657E+03 0.  0.
         24    2    3    3    0    0  0.44331381875E+02  0.58376414220E+02 -0.24576899048E+03  0.26907490232E+03  0.81399196712E+02 0.  0.
         -6    2    1    2    0  502 -0.21352404853E+01 -0.33839271911E+02 -0.28845493500E+03  0.33802679224E+03  0.17293411223E+03 0.  0.
        -24    2    5    5    0    0  0.48570771890E+02 -0.54648911788E+02 -0.24471638194E+03  0.26774669672E+03  0.80352738430E+02 0.  0.
          5    1    3    3  501    0 -0.42196141390E+02 -0.24537142308E+02 -0.29869379834E+03  0.30269235351E+03  0.47000000000E+01 0. -1.
        -11    1    4    4    0    0 -0.20222224049E+00 -0.19169922647E+02 -0.58277339646E+02  0.61349614052E+02  0.00000000000E+00 0.  1.
         12    1    4    4    0    0  0.44533604115E+02  0.77546336867E+02 -0.18749165083E+03  0.20772528827E+03  0.00000000000E+00 0. -1.
         -5    1    5    5    0  502 -0.50706012375E+02  0.20809639877E+02 -0.43738553056E+02  0.70280095519E+02  0.47000000000E+01 0.  1.
         13    1    6    6    0    0  0.57739449359E+02 -0.49515080231E+02 -0.11670120540E+03  0.13930096383E+03  0.00000000000E+00 0. -1.
        -14    1    6    6    0    0 -0.91686774691E+01 -0.51338315575E+01 -0.12801517654E+03  0.12844573289E+03  0.00000000000E+00 0.  1.
</event>
<event>
12    1  0.8461994E-002  0.1789158E+03  0.7818608E-02  0.1169094E+00
         21   -1    0    0  501  502  0.00000000000E+00  0.00000000000E+00  0.52495037568E+03  0.52495037568E+03  0.00000000000E+00 0. -1.
         21   -1    0    0  502  503 -0.00000000000E+00 -0.00000000000E+00 -0.73647578556E+02  0.73647578556E+02  0.00000000000E+00 0.  1.
         -6    2    1    2    0  503 -0.44388104984E+02  0.89820331287E+01  0.35088958084E+03  0.39343054086E+03  0.17208460639E+03 0.  0.
        -24    2    3    3    0    0 -0.84086504977E+02  0.14282813855E+02  0.32425403113E+03  0.34510245641E+03  0.81734262249E+02 0.  0.
          6    2    1    2  501    0  0.44388104984E+02 -0.89820331287E+01  0.10041321628E+03  0.20516741337E+03  0.17308920453E+03 0.  0.
         24    2    5    5    0    0 -0.20967994934E+02  0.21959539908E+02  0.10152454468E+03  0.13269586179E+03  0.79869145218E+02 0.  0.
          5    1    5    5  501    0  0.65356099918E+02 -0.30941573036E+02 -0.11113284006E+01  0.72471551586E+02  0.47000000000E+01 0. -1.
        -13    1    6    6    0    0  0.16560609883E+01  0.25616697980E+02 -0.28564279894E+01  0.25828606898E+02  0.00000000000E+00 0.  1.
         14    1    6    6    0    0 -0.22624055923E+02 -0.36571580728E+01  0.10438097267E+03  0.10686725489E+03  0.00000000000E+00 0. -1.
         -5    1    3    3    0  503  0.39698399993E+02 -0.53007807266E+01  0.26635549709E+02  0.48328084450E+02  0.47000000000E+01 0.  1.
         11    1    4    4    0    0 -0.23615676429E+02  0.79507143352E+01  0.23951173213E+03  0.24080445150E+03  0.00000000000E+00 0. -1.
        -12    1    4    4    0    0 -0.60470828548E+02  0.63320995201E+01  0.84742299000E+02  0.10429800492E+03  0.00000000000E+00 0.  1.
</event>
<event>
12    1  0.8461994E-002  0.1947898E+03  0.7818608E-02  0.1154214E+00
         21   -1    0    0  501  502  0.00000000000E+00  0.00000000000E+00  0.23586695362E+03  0.23586695362E+03  0.00000000000E+00 0. -1.
         21   -1    0    0  502  503 -0.00000000000E+00 -0.00000000000E+00 -0.17222258368E+03  0.17222258368E+03  0.00000000000E+00 0. -1.
         -6    2    1    2    0  503  0.86270325991E+02  0.27675858112E+02  0.84246765098E+02  0.21221319616E+03  0.17241925915E+03 0.  0.
        -24    2    3    3    0    0  0.31315499150E+01  0.64622354726E+02  0.37504901998E+02  0.10982183195E+03  0.80426126120E+02 0.  0.
          6    2    1    2  501    0 -0.86270325991E+02 -0.27675858112E+02 -0.20602395164E+02  0.19587634114E+03  0.17243711915E+03 0.  0.
         24    2    5    5    0    0 -0.23314514039E+01  0.37026701666E+02 -0.83935114991E+01  0.89090093198E+02  0.80561661904E+02 0.  0.
          5    1    5    5  501    0 -0.83938874587E+02 -0.64702559778E+02 -0.12208883665E+02  0.10678624794E+03  0.47000000000E+01 0. -1.
        -11    1    6    6    0    0 -0.26210205355E+02  0.39630475037E+02  0.20300916065E+02  0.51668913376E+02  0.00000000000E+00 0.  1.
         12    1    6    6    0    0  0.23878753951E+02 -0.26037733713E+01 -0.28694427564E+02  0.37421179821E+02  0.00000000000E+00 0. -1.
         -5    1    3    3    0  503  0.83138776076E+02 -0.36946496614E+02  0.46741863100E+02  0.10239136421E+03  0.47000000000E+01 0.  1.
         13    1    4    4    0    0  0.20545268131E+02  0.43151947436E+02  0.58185597034E+02  0.75297824088E+02  0.00000000000E+00 0. -1.
        -14    1    4    4    0    0 -0.17413718216E+02  0.21470407290E+02 -0.20680695037E+02  0.34524007857E+02  0.00000000000E+00 0.  1.
</event>
<event>
12    1  0.8461994E-002  0.2098293E+03  0.7818608E-02  0.1141990E+00
         21   -1    0    0  501  502  0.00000000000E+00  0.00000000000E+00  0.12959447246E+03  0.12959447246E+03  0.00000000000E+00 0.  1.
         21   -1    0    0  502  503 -0.00000000000E+00 -0.00000000000E+00 -0.36638761033E+03  0.36638761033E+03  0.00000000000E+00 0.  1.
         -6    2    1    2    0  503  0.74957646705E+02 -0.94299900367E+02 -0.18777667436E+03  0.28050368978E+03  0.17003270431E+03 0.  0.
        -24    2    3    3    0    0 -0.26091029849E+01  0.70661431235E+01 -0.92702683672E+02  0.12127797221E+03  0.77832006177E+02 0.  0.
          6    2    1    2  501    0 -0.74957646705E+02  0.94299900367E+02 -0.49016463506E+02  0.21547839302E+03  0.17180571631E+03 0.  0.
         24    2    5    5    0    0 -0.50243309553E+02  0.11101890215E+03  0.13387135616E+02  0.14614858222E+03  0.79565104769E+02 0.  0.
          5    1    5    5  501    0 -0.24714337153E+02 -0.16719001783E+02 -0.62403599122E+02  0.69329810796E+02  0.47000000000E+01 0. -1.
        -11    1    6    6    0    0 -0.49040739082E+02  0.11676398865E+03 -0.51049362687E+01  0.12674732151E+03  0.00000000000E+00 0.  1.
         12    1    6    6    0    0 -0.12025704701E+01 -0.57450865034E+01  0.18492071885E+02  0.19401260713E+02  0.00000000000E+00 0. -1.
         -5    1    3    3    0  503  0.77566749690E+02 -0.10136604349E+03 -0.95073990691E+02  0.15922571757E+03  0.47000000000E+01 0.  1.
         11    1    4    4    0    0  0.32487049846E+02 -0.64688373348E+01 -0.18145447391E+02  0.37769187510E+02  0.00000000000E+00 0. -1.
        -12    1    4    4    0    0 -0.35096152831E+02  0.13534980458E+02 -0.74557236282E+02  0.83508784697E+02  0.00000000000E+00 0.  1.
</event>
<event>
12    1  0.8461994E-002  0.2075124E+03  0.7818608E-02  0.1144891E+00
         21   -1    0    0  501  502  0.00000000000E+00  0.00000000000E+00  0.14627892306E+04  0.14627892306E+04  0.00000000000E+00 0. -1.
         21   -1    0    0  502  503 -0.00000000000E+00 -0.00000000000E+00 -0.70761784469E+02  0.70761784469E+02  0.00000000000E+00 0. -1.
         -6    2    1    2    0  503 -0.34275582909E+02 -0.11073519864E+03  0.10807971634E+03  0.23397137538E+03  0.17211705207E+03 0.  0.
        -24    2    3    3    0    0 -0.41455380918E+02 -0.85645587690E+02  0.21805195183E+01  0.12480284528E+03  0.80729673770E+02 0.  0.
          6    2    1    2  501    0  0.34275582909E+02  0.11073519864E+03  0.12839477298E+04  0.12995796397E+04  0.16415957861E+03 0.  0.
         24    2    5    5    0    0  0.82218576413E+02  0.77285893103E+02  0.76379201883E+03  0.77612817077E+03  0.79143451092E+02 0.  0.
          5    1    5    5  501    0 -0.47942993504E+02  0.33449305538E+02  0.52015571095E+03  0.52345146891E+03  0.47000000000E+01 0. -1.
        -11    1    6    6    0    0  0.73165662412E+01  0.60049008161E+02  0.30472046937E+03  0.31066699209E+03  0.00000000000E+00 0.  1.
         12    1    6    6    0    0  0.74902010172E+02  0.17236884942E+02  0.45907154946E+03  0.46546117868E+03  0.00000000000E+00 0. -1.
         -5    1    3    3    0  503  0.71797980090E+01 -0.25089610951E+02  0.10589919682E+03  0.10916853010E+03  0.47000000000E+01 0.  1.
         11    1    4    4    0    0  0.10808685096E+02 -0.15106300393E+02 -0.26574092476E+02  0.32422374620E+02  0.00000000000E+00 0. -1.
        -12    1    4    4    0    0 -0.52264066014E+02 -0.70539287297E+02  0.28754611994E+02  0.92380470661E+02  0.00000000000E+00 0.  1.
</event>
<event>
12    1  0.8461994E-002  0.2842116E+03  0.7818608E-02  0.1094013E+00
         21   -1    0    0  501  502  0.00000000000E+00  0.00000000000E+00  0.36713946555E+02  0.36713946555E+02  0.00000000000E+00 0. -1.
         21   -1    0    0  502  503 -0.00000000000E+00 -0.00000000000E+00 -0.23268434145E+04  0.23268434145E+04  0.00000000000E+00 0.  1.
         -6    2    1    2    0  503  0.33698853519E+00  0.21983353202E+03 -0.14644105112E+04  0.14917353494E+04  0.18013692522E+03 0.  0.
        -24    2    3    3    0    0 -0.60295313038E+02  0.15541374095E+03 -0.76831076054E+03  0.79002092143E+03  0.77734650531E+02 0.  0.
          6    2    1    2  501    0 -0.33698853519E+00 -0.21983353202E+03 -0.82571895671E+03  0.87182201167E+03  0.17301713556E+03 0.  0.
         24    2    5    5    0    0  0.52452466926E+02 -0.20062899606E+03 -0.65359816264E+03  0.69070547857E+03  0.82947239731E+02 0.  0.
          5    1    5    5  501    0 -0.52789455461E+02 -0.19204535964E+02 -0.17212079407E+03  0.18111653309E+03  0.47000000000E+01 0. -1.
        -13    1    6    6    0    0  0.26761695094E+02 -0.12884281538E+03 -0.52466142182E+03  0.54091243926E+03  0.00000000000E+00 0.  1.
         14    1    6    6    0    0  0.25690771832E+02 -0.71786180677E+02 -0.12893674082E+03  0.14979303931E+03  0.00000000000E+00 0. -1.
         -5    1    3    3    0  503  0.60632301573E+02  0.64419791066E+02 -0.69609975069E+03  0.70171442794E+03  0.47000000000E+01 0.  1.
         13    1    4    4    0    0 -0.44016511259E+02  0.55160051137E+02 -0.18636992122E+03  0.19928329594E+03  0.00000000000E+00 0. -1.
        -14    1    4    4    0    0 -0.16278801779E+02  0.10025368982E+03 -0.58194083931E+03  0.59073762549E+03  0.00000000000E+00 0.  1.
</event>
<event>
12    1  0.8461994E-002  0.1963947E+03  0.7818608E-02  0.1153381E+00
         21   -1    0    0  501  502  0.00000000000E+00  0.00000000000E+00  0.47385168414E+03  0.47385168414E+03  0.00000000000E+00 0.  1.
         21   -1    0    0  502  503 -0.00000000000E+00 -0.00000000000E+00 -0.39277039115E+03  0.39277039115E+03  0.00000000000E+00 0.  1.
         -6    2    1    2    0  503 -0.32961961002E+01 -0.90281034910E+02 -0.34587269573E+03  0.39774210628E+03  0.17438271499E+03 0.  0.
        -24    2    3    3    0    0  0.60949891617E+02 -0.92118492671E+01 -0.14492639395E+03  0.17168618655E+03  0.68357439489E+02 0.  0.
          6    2    1    2  501    0  0.32961961002E+01  0.90281034910E+02  0.42695398872E+03  0.46887996900E+03  0.17145607799E+03 0.  0.
         24    2    5    5    0    0 -0.39916636827E+02  0.21067793223E+02  0.33755186438E+03  0.34774924792E+03  0.70363971436E+02 0.  0.
          5    1    5    5  501    0  0.43212832927E+02  0.69213241687E+02  0.89402124339E+02  0.12113072109E+03  0.47000000000E+01 0. -1.
        -13    1    6    6    0    0  0.12765566149E+01  0.16591647192E+02  0.25343356485E+03  0.25397929866E+03  0.00000000000E+00 0.  1.
         14    1    6    6    0    0 -0.41193193442E+02  0.44761460312E+01  0.84118299527E+02  0.93769949262E+02  0.00000000000E+00 0. -1.
         -5    1    3    3    0  503 -0.64246087718E+02 -0.81069185643E+02 -0.20094630178E+03  0.22605591973E+03  0.47000000000E+01 0.  1.
         13    1    4    4    0    0  0.68470637259E+02 -0.36935062111E+01 -0.76933730905E+02  0.10305663058E+03  0.00000000000E+00 0. -1.
        -14    1    4    4    0    0 -0.75207456415E+01 -0.55183430560E+01 -0.67992663047E+02  0.68629555975E+02  0.00000000000E+00 0.  1.
</event>
<event>
12    1  0.8461994E-002  0.1997345E+03  0.7818608E-02  0.1151602E+00
         21   -1    0    0  501  502  0.00000000000E+00  0.00000000000E+00  0.79629746907E+03  0.79629746907E+03  0.00000000000E+00 0.  1.
         21   -1    0    0  502  503 -0.00000000000E+00 -0.00000000000E+00 -0.55579136886E+02  0.55579136886E+02  0.00000000000E+00 0.  1.
         -6    2    1    2    0  503  0.82588244985E+02 -0.31749965540E+02  0.53163358045E+03  0.56791559209E+03  0.17906696333E+03 0.  0.
        -24    2    3    3    0    0  0.11863495276E+03 -0.21603709428E+02  0.27470373402E+03  0.30822857347E+03  0.70722978864E+02 0.  0.
          6    2    1    2  501    0 -0.82588244985E+02  0.31749965540E+02  0.20908475173E+03  0.28396101386E+03  0.17055364395E+03 0.  0.
         24    2    5    5    0    0 -0.23008626194E+02 -0.14745766848E+02  0.18577215838E+03  0.20473253972E+03  0.81592177761E+02 0.  0.
          5    1    5    5  501    0 -0.59579618791E+02  0.46495732388E+02  0.23312593345E+02  0.79228474137E+02  0.47000000000E+01 0. -1.
        -11    1    6    6    0    0 -0.35849223126E+02  0.20130296293E+02  0.54305706457E+02  0.68113914741E+02  0.00000000000E+00 0.  1.
         12    1    6    6    0    0  0.12840596932E+02 -0.34876063141E+02  0.13146645193E+03  0.13661862498E+03  0.00000000000E+00 0. -1.
         -5    1    3    3    0  503 -0.36046707777E+02 -0.10146256112E+02  0.25692984643E+03  0.25968701863E+03  0.47000000000E+01 0.  1.
         11    1    4    4    0    0  0.52098069785E+02 -0.23523711291E+02  0.57602036860E+02  0.81151515813E+02  0.00000000000E+00 0. -1.
        -12    1    4    4    0    0  0.66536882977E+02  0.19200018637E+01  0.21710169716E+03  0.22707705766E+03  0.00000000000E+00 0.  1.
</event>
<event>
12    1  0.8461994E-002  0.1670568E+03  0.7818608E-02  0.1182048E+00
         21   -1    0    0  501  502  0.00000000000E+00  0.00000000000E+00  0.48372651323E+02  0.48372651323E+02  0.00000000000E+00 0.  1.
         21   -1    0    0  502  503 -0.00000000000E+00 -0.00000000000E+00 -0.10145161818E+04  0.10145161818E+04  0.00000000000E+00 0.  1.
         -6    2    1    2    0  503 -0.23281241154E+01 -0.49445036748E+01 -0.83429596334E+03  0.85007020623E+03  0.16291019859E+03 0.  0.
        -24    2    3    3    0    0  0.27898436452E+02  0.44436651337E+02 -0.64730635672E+03  0.65426584873E+03  0.79406187585E+02 0.  0.
          6    2    1    2  501    0  0.23281241154E+01  0.49445036748E+01 -0.13184756717E+03  0.21281862692E+03  0.16696741813E+03 0.  0.
         24    2    5    5    0    0 -0.55000372173E+02  0.28454975251E+02 -0.60228237310E+02  0.11799923455E+03  0.80384402892E+02 0.  0.
          5    1    5    5  501    0  0.57328496289E+02 -0.23510471576E+02 -0.71619329863E+02  0.94819392375E+02  0.47000000000E+01 0. -1.
        -11    1    6    6    0    0 -0.17627082475E+02  0.38596296175E+02  0.43986683292E+01  0.42658368441E+02  0.00000000000E+00 0.  1.
         12    1    6    6    0    0 -0.37373289698E+02 -0.10141320924E+02 -0.64626905639E+02  0.75340866105E+02  0.00000000000E+00 0. -1.
         -5    1    3    3    0  503 -0.30226560568E+02 -0.49381155012E+02 -0.18698960661E+03  0.19580435750E+03  0.47000000000E+01 0.  1.
         11    1    4    4    0    0  0.48251141625E+02  0.92856907180E+01 -0.45935841878E+03  0.46197895366E+03  0.00000000000E+00 0. -1.
        -12    1    4    4    0    0 -0.20352705173E+02  0.35150960619E+02 -0.18794793795E+03  0.19228689508E+03  0.00000000000E+00 0.  1.
</event>
<event>
12    1  0.8461994E-002  0.1806833E+03  0.7818608E-02  0.1168156E+00
         21   -1    0    0  503  502  0.00000000000E+00  0.00000000000E+00  0.23561697743E+02  0.23561697743E+02  0.00000000000E+00 0. -1.
         21   -1    0    0  501  503 -0.00000000000E+00 -0.00000000000E+00 -0.15153374130E+04  0.15153374130E+04  0.00000000000E+00 0. -1.
          6    2    1    2  501    0 -0.78309796045E+01 -0.41622236795E+02 -0.10047603418E+04  0.10208769739E+04  0.17564941390E+03 0.  0.
         24    2    3    3    0    0 -0.21699020963E+02 -0.27613928686E+02 -0.23261191969E+03  0.24846268676E+03  0.79950140451E+02 0.  0.
         -6    2    1    2    0  502  0.78309796045E+01  0.41622236795E+02 -0.48701537351E+03  0.51802213687E+03  0.17137451798E+03 0.  0.
        -24    2    5    5    0    0 -0.46746977664E+02  0.74230487000E+02 -0.28411839158E+03  0.30534555922E+03  0.69406087514E+02 0.  0.
          5    1    3    3  501    0  0.13868041359E+02 -0.14008308110E+02 -0.77214842207E+03  0.77241428714E+03  0.47000000000E+01 0. -1.
        -11    1    4    4    0    0 -0.23126510767E+02  0.21026962598E+02 -0.14415093686E+03  0.14750071612E+03  0.00000000000E+00 0.  1.
         12    1    4    4    0    0  0.14274898039E+01 -0.48640891284E+02 -0.88460982832E+02  0.10096197064E+03  0.00000000000E+00 0. -1.
         -5    1    5    5    0  502  0.54577957269E+02 -0.32608250205E+02 -0.20289698194E+03  0.21267657765E+03  0.47000000000E+01 0.  1.
         11    1    6    6    0    0 -0.17170953185E+02  0.27707922267E+02 -0.26833708553E+02  0.42221067068E+02  0.00000000000E+00 0. -1.
        -12    1    6    6    0    0 -0.29576024480E+02  0.46522564733E+02 -0.25728468302E+03  0.26312449215E+03  0.00000000000E+00 0.  1.
</event>
<event>
12    1  0.8461994E-002  0.2553314E+03  0.7818608E-02  0.1109989E+00
         21   -1    0    0  501  502  0.00000000000E+00  0.00000000000E+00  0.16270192544E+03  0.16270192544E+03  0.00000000000E+00 0. -1.
         21   -1    0    0  502  503 -0.00000000000E+00 -0.00000000000E+00 -0.43194440305E+03  0.43194440305E+03  0.00000000000E+00 0. -1.
         -6    2    1    2    0  503 -0.21107982609E+02 -0.18740785182E+03 -0.54564631980E+02  0.26109658948E+03  0.17212460639E+03 0.  0.
        -24    2    3    3    0    0 -0.45142019354E+02 -0.11340349109E+03  0.27214171479E+02  0.14811808257E+03  0.79373808982E+02 0.  0.
          6    2    1    2  501    0  0.21107982609E+02  0.18740785182E+03 -0.21467784563E+03  0.33354973901E+03  0.17205115850E+03 0.  0.
         24    2    5    5    0    0  0.15680021777E+02  0.29158357252E+02 -0.12159626159E+03  0.14981450403E+03  0.81010258012E+02 0.  0.
          5    1    5    5  501    0  0.54279608319E+01  0.15824949456E+03 -0.93081584033E+02  0.18373523498E+03  0.47000000000E+01 0. -1.
        -13    1    6    6    0    0  0.10088380585E+02  0.48223253333E+02 -0.12019130239E+03  0.12989690819E+03  0.00000000000E+00 0.  1.
         14    1    6    6    0    0  0.55916411925E+01 -0.19064896081E+02 -0.14049591990E+01  0.19917595843E+02  0.00000000000E+00 0. -1.
         -5    1    3    3    0  503  0.24034036745E+02 -0.74004360727E+02 -0.81778803458E+02  0.11297850691E+03  0.47000000000E+01 0.  1.
         11    1    4    4    0    0  0.22008904313E+02 -0.42954847742E+02  0.83882301715E+01  0.48988500885E+02  0.00000000000E+00 0. -1.
        -12    1    4    4    0    0 -0.67150923667E+02 -0.70448643347E+02  0.18825941307E+02  0.99129581684E+02  0.00000000000E+00 0.  1.
</event>
<event>
12    1  0.8461994E-002  0.1839247E+03  0.7818608E-02  0.1164584E+00
         21   -1    0    0  501  502  0.00000000000E+00  0.00000000000E+00  0.45468887534E+03  0.45468887534E+03  0.00000000000E+00 0.  1.
         21   -1    0    0  502  503 -0.00000000000E+00 -0.00000000000E+00 -0.90964513231E+02  0.90964513231E+02  0.00000000000E+00 0.  1.
         -6    2    1    2    0  503 -0.46207322273E+02 -0.40016031924E+02  0.61434396090E+02  0.19180665475E+03  0.17111168382E+03 0.  0.
        -24    2    3    3    0    0  0.49632435385E+01 -0.41962178581E+02  0.95784154328E+02  0.12996645599E+03  0.77014396339E+02 0.  0.
          6    2    1    2  501    0  0.46207322273E+02  0.40016031924E+02  0.30228996601E+03  0.35384673382E+03  0.17347013586E+03 0.  0.
         24    2    5    5    0    0  0.94789031569E+02 -0.12116854012E+02  0.17092911670E+03  0.20432822992E+03  0.58322242330E+02 0.  0.
          5    1    5    5  501    0 -0.48581709295E+02  0.52132885936E+02  0.13136084932E+03  0.14951850390E+03  0.47000000000E+01 0. -1.
        -11    1    6    6    0    0  0.26270232673E+02 -0.16196099696E+02  0.15754670388E+02  0.34650373867E+02  0.00000000000E+00 0.  1.
         12    1    6    6    0    0  0.68518798896E+02  0.40792456841E+01  0.15517444631E+03  0.16967785605E+03  0.00000000000E+00 0. -1.
         -5    1    3    3    0  503 -0.51170565812E+02  0.19461466564E+01 -0.34349758238E+02  0.61840198765E+02  0.47000000000E+01 0.  1.
         11    1    4    4    0    0 -0.35186836609E+02 -0.21119362387E+02  0.57854993460E+02  0.70931947714E+02  0.00000000000E+00 0. -1.
        -12    1    4    4    0    0  0.40150080148E+02 -0.20842816193E+02  0.37929160868E+02  0.59034508271E+02  0.00000000000E+00 0.  1.
</event>
<event>
12    1  0.8461994E-002  0.2563037E+03  0.7818608E-02  0.1109597E+00
         21   -1    0    0  501  502  0.00000000000E+00  0.00000000000E+00  0.72771083168E+03  0.72771083168E+03  0.00000000000E+00 0.  1.
         21   -1    0    0  502  503 -0.00000000000E+00 -0.00000000000E+00 -0.91099864531E+02  0.91099864531E+02  0.00000000000E+00 0. -1.
         -6    2    1    2    0  503 -0.11012204137E+03 -0.15454998307E+03  0.26998224171E+03  0.37226605858E+03  0.17227607572E+03 0.  0.
        -24    2    3    3    0    0 -0.11449454343E+03 -0.18196327101E+03  0.23190373849E+03  0.32490922657E+03  0.74612526529E+02 0.  0.
          6    2    1    2  501    0  0.11012204137E+03  0.15454998307E+03  0.36662872543E+03  0.44654463763E+03  0.17021436433E+03 0.  0.
         24    2    5    5    0    0  0.13363163445E+03  0.11240036497E+03  0.21921593556E+03  0.29136115948E+03  0.79652012409E+02 0.  0.
          5    1    5    5  501    0 -0.23509593079E+02  0.42149618102E+02  0.14741278987E+03  0.15518347815E+03  0.47000000000E+01 0. -1.
        -13    1    6    6    0    0  0.38299789376E+02  0.60143666310E+01  0.92931617682E+02  0.10069425027E+03  0.00000000000E+00 0.  1.
         14    1    6    6    0    0  0.95331845073E+02  0.10638599834E+03  0.12628431788E+03  0.19066690922E+03  0.00000000000E+00 0. -1.
         -5    1    3    3    0  503  0.43725020572E+01  0.27413287938E+02  0.38078503224E+02  0.47356832005E+02  0.47000000000E+01 0.  1.
         13    1    4    4    0    0 -0.52325684305E+02 -0.55659707840E+02  0.38083617074E+02  0.85360073830E+02  0.00000000000E+00 0. -1.
        -14    1    4    4    0    0 -0.62168859123E+02 -0.12630356317E+03  0.19382012142E+03  0.23954915274E+03  0.00000000000E+00 0.  1.
</event>
<event>
12    1  0.8461994E-002  0.2089252E+03  0.7818608E-02  0.1145092E+00
         21   -1    0    0  503  502  0.00000000000E+00  0.00000000000E+00  0.21841183790E+03  0.21841183790E+03  0.00000000000E+00 0.  1.
         21   -1    0    0  501  503 -0.00000000000E+00 -0.00000000000E+00 -0.33607980418E+03  0.33607980418E+03  0.00000000000E+00 0.  1.
          6    2    1    2  501    0 -0.75382666926E+02 -0.58778405980E+02 -0.24408310411E+03  0.32128852363E+03  0.18577488049E+03 0.  0.
         24    2    3    3    0    0 -0.11461973982E+01 -0.32279918027E+02 -0.22213781451E+03  0.23933177280E+03  0.83013143290E+02 0.  0.
         -6    2    1    2    0  502  0.75382666926E+02  0.58778405980E+02  0.12641513783E+03  0.23320311845E+03  0.17107150522E+03 0.  0.
        -24    2    5    5    0    0  0.72529660612E+02  0.35651653147E+02  0.97164039753E+01  0.11410790098E+03  0.79966321153E+02 0.  0.
          5    1    3    3  501    0 -0.74236469528E+02 -0.26498487952E+02 -0.21945289606E+02  0.81956750836E+02  0.47000000000E+01 0. -1.
        -11    1    4    4    0    0 -0.40464120374E+02 -0.95306519112E+01 -0.80694556684E+02  0.90773288152E+02  0.00000000000E+00 0.  1.
         12    1    4    4    0    0  0.39317922975E+02 -0.22749266116E+02 -0.14144325782E+03  0.14855848464E+03  0.00000000000E+00 0. -1.
         -5    1    5    5    0  502  0.28530063147E+01  0.23126752832E+02  0.11669873385E+03  0.11909521747E+03  0.47000000000E+01 0.  1.
         13    1    6    6    0    0  0.15954411713E+02  0.29942333281E+02 -0.29560560789E+02  0.44999036985E+02  0.00000000000E+00 0. -1.
        -14    1    6    6    0    0  0.56575248898E+02  0.57093198662E+01  0.39276964765E+02  0.69108863993E+02  0.00000000000E+00 0.  1.
</event>
<event>
12    1  0.8461994E-002  0.2026079E+03  0.7818608E-02  0.1147561E+00
         21   -1    0    0  501  502  0.00000000000E+00  0.00000000000E+00  0.54541560431E+03  0.54541560431E+03  0.00000000000E+00 0. -1.
         21   -1    0    0  502  503 -0.00000000000E+00 -0.00000000000E+00 -0.12657870600E+03  0.12657870600E+03  0.00000000000E+00 0. -1.
         -6    2    1    2    0  503  0.82099339861E+02  0.69147754898E+02 -0.45322182964E+01  0.20264222884E+03  0.17181856213E+03 0.  0.
        -24    2    3    3    0    0  0.10870126004E+03  0.43792259838E+02 -0.44569835842E+02  0.14809258076E+03  0.78811269829E+02 0.  0.
          6    2    1    2  501    0 -0.82099339861E+02 -0.69147754898E+02  0.42336911660E+03  0.46935208147E+03  0.17183787091E+03 0.  0.
         24    2    5    5    0    0 -0.63617317070E+02 -0.24565152209E+02  0.40383057030E+03  0.41707361152E+03  0.78871149237E+02 0.  0.
          5    1    5    5  501    0 -0.18482022791E+02 -0.44582602689E+02  0.19538546299E+02  0.52278469951E+02  0.47000000000E+01 0. -1.
        -11    1    6    6    0    0 -0.10162821052E+02  0.93701555419E+01  0.75187043962E+01  0.15735744737E+02  0.00000000000E+00 0.  1.
         12    1    6    6    0    0 -0.53454496018E+02 -0.33935307750E+02  0.39631186591E+03  0.40133786678E+03  0.00000000000E+00 0. -1.
         -5    1    3    3    0  503 -0.26601920181E+02  0.25355495060E+02  0.40037617546E+02  0.54549648081E+02  0.47000000000E+01 0.  1.
         11    1    4    4    0    0 -0.10884118244E+02  0.30415978560E+01  0.50261974664E+01  0.12368427889E+02  0.00000000000E+00 0. -1.
        -12    1    4    4    0    0  0.11958537829E+03  0.40750661982E+02 -0.49596033308E+02  0.13572415287E+03  0.00000000000E+00 0.  1.
</event>
<event>
12    1  0.8461994E-002  0.2389212E+03  0.7818608E-02  0.1120832E+00
         21   -1    0    0  503  502  0.00000000000E+00  0.00000000000E+00  0.21243324826E+03  0.21243324826E+03  0.00000000000E+00 0.  1.
         21   -1    0    0  501  503 -0.00000000000E+00 -0.00000000000E+00 -0.44067959190E+03  0.44067959190E+03  0.00000000000E+00 0. -1.
          6    2    1    2  501    0  0.42082817530E+02 -0.15780097494E+03  0.91404222428E+02  0.25403914778E+03  0.17178197083E+03 0.  0.
         24    2    3    3    0    0 -0.42358038175E+01 -0.11535571291E+03  0.12067366589E+03  0.18457113159E+03  0.78609709603E+02 0.  0.
         -6    2    1    2    0  502 -0.42082817530E+02  0.15780097494E+03 -0.31965056607E+03  0.39907369238E+03  0.17438811982E+03 0.  0.
        -24    2    5    5    0    0 -0.56917619681E+02  0.40633750000E+02 -0.22209814790E+03  0.24581967369E+03  0.78797256294E+02 0.  0.
          5    1    3    3  501    0  0.46318621348E+02 -0.42445262027E+02 -0.29269443457E+02  0.69468016182E+02  0.47000000000E+01 0. -1.
        -11    1    4    4    0    0  0.55216629747E+01 -0.57868521835E+02  0.93188483679E+01  0.58873555322E+02  0.00000000000E+00 0.  1.
         12    1    4    4    0    0 -0.97574667922E+01 -0.57487191080E+02  0.11135481752E+03  0.12569757627E+03  0.00000000000E+00 0. -1.
         -5    1    5    5    0  502  0.14834802151E+02  0.11716722494E+03 -0.97552418168E+02  0.15325401869E+03  0.47000000000E+01 0.  1.
         13    1    6    6    0    0 -0.50754703176E+02  0.63479165658E+02 -0.16237702868E+03  0.18158178271E+03  0.00000000000E+00 0. -1.
        -14    1    6    6    0    0 -0.61629165049E+01 -0.22845415658E+02 -0.59721119220E+02  0.64237890978E+02  0.00000000000E+00 0.  1.
</event>
<event>
12    1  0.8461994E-002  0.1862132E+03  0.7818608E-02  0.1162444E+00
         21   -1    0    0  503  502  0.00000000000E+00  0.00000000000E+00  0.46554681593E+03  0.46554681593E+03  0.00000000000E+00 0.  1.
         21   -1    0    0  501  503 -0.00000000000E+00 -0.00000000000E+00 -0.87767278310E+02  0.87767278310E+02  0.00000000000E+00 0.  1.
          6    2    1    2  501    0  0.65714591987E+02 -0.21105636528E+02  0.78655672787E+02  0.20214370956E+03  0.17294944047E+03 0.  0.
         24    2    3    3    0    0  0.63026831193E+02  0.31279810648E+02 -0.74420874693E+00  0.10686574610E+03  0.80429632833E+02 0.  0.
         -6    2    1    2    0  502 -0.65714591987E+02  0.21105636528E+02  0.29912386483E+03  0.35117038468E+03  0.17053356582E+03 0.  0.
        -24    2    5    5    0    0 -0.73761879187E+02 -0.31254816842E+02  0.13206622403E+03  0.17585147167E+03  0.84051021186E+02 0.  0.
          5    1    3    3  501    0  0.26877607939E+01 -0.52385447177E+02  0.79399881534E+02  0.95277963462E+02  0.47000000000E+01 0. -1.
        -11    1    4    4    0    0  0.73876995079E+02  0.94587228102E+01 -0.18464194244E+02  0.76734635649E+02  0.00000000000E+00 0.  1.
         12    1    4    4    0    0 -0.10850163886E+02  0.21821087838E+02  0.17719985497E+02  0.30131110448E+02  0.00000000000E+00 0. -1.
         -5    1    5    5    0  502  0.80472871995E+01  0.52360453371E+02  0.16705764080E+03  0.17531891300E+03  0.47000000000E+01 0.  1.
         13    1    6    6    0    0 -0.17472542011E+02 -0.47411693044E+02  0.31699826597E+02  0.59649286399E+02  0.00000000000E+00 0. -1.
        -14    1    6    6    0    0 -0.56289337176E+02  0.16156876202E+02  0.10036639744E+03  0.11620218528E+03  0.00000000000E+00 0.  1.
</event>
<event>
12    1  0.8461994E-002  0.2679817E+03  0.7818608E-02  0.1102504E+00
         21   -1    0    0  501  502  0.00000000000E+00  0.00000000000E+00  0.73160741983E+03  0.73160741983E+03  0.00000000000E+00 0. -1.
         21   -1    0    0  502  503 -0.00000000000E+00 -0.00000000000E+00 -0.22732808688E+03  0.22732808688E+03  0.00000000000E+00 0.  1.
         -6    2    1    2    0  503  0.20460156069E+03 -0.16421196232E+01 -0.10959588518E+03  0.28911688739E+03  0.17237407384E+03 0.  0.
        -24    2    3    3    0    0  0.33095785139E+02 -0.21789337257E+02 -0.12856633555E+01  0.85221483872E+02  0.75438333564E+02 0.  0.
          6    2    1    2  501    0 -0.20460156069E+03  0.16421196232E+01  0.61387521814E+03  0.66981861932E+03  0.17305982824E+03 0.  0.
         24    2    5    5    0    0 -0.16891837514E+03 -0.40538514776E+02  0.33720441184E+03  0.38764611763E+03  0.79911879673E+02 0.  0.
          5    1    5    5  501    0 -0.35683185547E+02  0.42180634399E+02  0.27667080630E+03  0.28217250169E+03  0.47000000000E+01 0. -1.
        -13    1    6    6    0    0 -0.39538473822E+02 -0.16761315354E+02  0.27064370708E+02  0.50761331409E+02  0.00000000000E+00 0.  1.
         14    1    6    6    0    0 -0.12937990132E+03 -0.23777199422E+02  0.31014004113E+03  0.33688478622E+03  0.00000000000E+00 0. -1.
         -5    1    3    3    0  503  0.17150577555E+03  0.20147217634E+02 -0.10831022183E+03  0.20389540352E+03  0.47000000000E+01 0.  1.
         11    1    4    4    0    0  0.47054137938E+02 -0.24454027492E+02  0.22427210859E+02  0.57576654510E+02  0.00000000000E+00 0. -1.
        -12    1    4    4    0    0 -0.13958352799E+02  0.26646902345E+01 -0.23712874215E+02  0.27644829362E+02  0.00000000000E+00 0.  1.
</event>
<event>
12    1  0.8461994E-002  0.1853454E+03  0.7818608E-02  0.1163233E+00
         21   -1    0    0  501  502  0.00000000000E+00  0.00000000000E+00  0.10218076055E+03  0.10218076055E+03  0.00000000000E+00 0.  1.
         21   -1    0    0  502  503 -0.00000000000E+00 -0.00000000000E+00 -0.36972266452E+03  0.36972266452E+03  0.00000000000E+00 0.  1.
         -6    2    1    2    0  503 -0.49020089030E+02  0.46951935750E+02 -0.20813287221E+03  0.27726951197E+03  0.17015180391E+03 0.  0.
        -24    2    3    3    0    0 -0.81124677126E+02  0.27443896944E+02 -0.73807376944E+02  0.13771057520E+03  0.78627558223E+02 0.  0.
          6    2    1    2  501    0  0.49020089030E+02 -0.46951935750E+02 -0.59409031766E+02  0.19463391311E+03  0.17246876145E+03 0.  0.
         24    2    5    5    0    0  0.15220401954E+02 -0.75991053719E+02  0.87105397951E+01  0.11309830586E+03  0.81908805416E+02 0.  0.
          5    1    5    5  501    0  0.33799687076E+02  0.29039117969E+02 -0.68119571561E+02  0.81535607243E+02  0.47000000000E+01 0. -1.
        -11    1    6    6    0    0  0.39330833917E+02 -0.11194633640E+02  0.15270273823E+02  0.43651066214E+02  0.00000000000E+00 0.  1.
         12    1    6    6    0    0 -0.24110431963E+02 -0.64796420079E+02 -0.65597340281E+01  0.69447239650E+02  0.00000000000E+00 0. -1.
         -5    1    3    3    0  503  0.32104588096E+02  0.19508038805E+02 -0.13432549526E+03  0.13955893677E+03  0.47000000000E+01 0.  1.
         13    1    4    4    0    0 -0.13710890072E+02  0.53278752446E+01  0.16995065108E+02  0.22476810255E+02  0.00000000000E+00 0. -1.
        -14    1    4    4    0    0 -0.67413787053E+02  0.22116021700E+02 -0.90802442052E+02  0.11523376494E+03  0.00000000000E+00 0.  1.
</event>
<event>
12    1  0.8461994E-002  0.2421017E+03  0.7818608E-02  0.1119151E+00
         21   -1    0    0  501  502  0.00000000000E+00  0.00000000000E+00  0.39508109031E+03  0.39508109031E+03  0.00000000000E+00 0.  1.
         21   -1    0    0  502  503 -0.00000000000E+00 -0.00000000000E+00 -0.53130044550E+03  0.53130044550E+03  0.00000000000E+00 0. -1.
         -6    2    1    2    0  503 -0.15414964260E+03 -0.47581351924E+02 -0.46293011968E+03  0.52241507628E+03  0.18051902628E+03 0.  0.
        -24    2    3    3    0    0 -0.18684843901E+03 -0.37780094931E+02 -0.37690735821E+03  0.42974749071E+03  0.79272153768E+02 0.  0.
          6    2    1    2  501    0  0.15414964260E+03  0.47581351924E+02  0.32671076449E+03  0.40396645953E+03  0.17442155667E+03 0.  0.
         24    2    5    5    0    0  0.13753846001E+03  0.57959646203E+02  0.15085150140E+03  0.22695738973E+03  0.80481878141E+02 0.  0.
          5    1    5    5  501    0  0.16611182594E+02 -0.10378294279E+02  0.17585926309E+03  0.17700906980E+03  0.47000000000E+01 0. -1.
        -13    1    6    6    0    0  0.67948788000E+02  0.14979050600E+02  0.12158403247E+03  0.14008599751E+03  0.00000000000E+00 0.  1.
         14    1    6    6    0    0  0.69589672007E+02  0.42980595603E+02  0.29267468934E+02  0.86871392220E+02  0.00000000000E+00 0. -1.
         -5    1    3    3    0  503  0.32698796404E+02 -0.98012569938E+01 -0.86022761471E+02  0.92667585573E+02  0.47000000000E+01 0.  1.
         13    1    4    4    0    0 -0.87514742250E+02 -0.19335455760E+02 -0.26114916863E+03  0.27610066685E+03  0.00000000000E+00 0. -1.
        -14    1    4    4    0    0 -0.99333696755E+02 -0.18444639171E+02 -0.11575818958E+03  0.15364682385E+03  0.00000000000E+00 0.  1.
</event>
<event>
12    1  0.8461994E-002  0.1851313E+03  0.7818608E-02  0.1163088E+00
         21   -1    0    0  503  502  0.00000000000E+00  0.00000000000E+00  0.36672261648E+02  0.36672261648E+02  0.00000000000E+00 0. -1.
         21   -1    0    0  501  503 -0.00000000000E+00 -0.00000000000E+00 -0.10017651298E+04  0.10017651298E+04  0.00000000000E+00 0.  1.
          6    2    1    2  501    0 -0.11222742899E+02 -0.67735036891E+02 -0.34550334956E+03  0.39197726735E+03  0.17192913767E+03 0.  0.
         24    2    3    3    0    0 -0.60086958631E+02 -0.61900993993E+02 -0.17260016417E+03  0.21214582084E+03  0.88163807620E+02 0.  0.
         -6    2    1    2    0  502  0.11222742899E+02  0.67735036891E+02 -0.61958951861E+03  0.64646012412E+03  0.17118859577E+03 0.  0.
        -24    2    5    5    0    0 -0.13785998963E+02  0.41505888057E+02 -0.14986710802E+03  0.17531827878E+03  0.79771901674E+02 0.  0.
          5    1    3    3  501    0  0.48864215732E+02 -0.58340428977E+01 -0.17290318538E+03  0.17983144650E+03  0.47000000000E+01 0. -1.
        -11    1    4    4    0    0 -0.34440087302E+02 -0.73871151819E+01 -0.13852139432E+03  0.14292958325E+03  0.00000000000E+00 0.  1.
         12    1    4    4    0    0 -0.25646871329E+02 -0.54513878812E+02 -0.34078769858E+02  0.69216237597E+02  0.00000000000E+00 0. -1.
         -5    1    5    5    0  502  0.25008741861E+02  0.26229148835E+02 -0.46972241060E+03  0.47114184534E+03  0.47000000000E+01 0.  1.
         11    1    6    6    0    0 -0.30402020570E+02 -0.66964196575E+01 -0.96991535971E+02  0.10186502315E+03  0.00000000000E+00 0. -1.
        -12    1    6    6    0    0  0.16616021608E+02  0.48202307714E+02 -0.52875572046E+02  0.73453255627E+02  0.00000000000E+00 0.  1.
</event>
<event>
12    1  0.8461994E-002  0.1899831E+03  0.7818608E-02  0.1158499E+00
         21   -1    0    0  503  502  0.00000000000E+00  0.00000000000E+00  0.36674315432E+03  0.36674315432E+03  0.00000000000E+00 0. -1.
         21   -1    0    0  501  503 -0.00000000000E+00 -0.00000000000E+00 -0.10229756375E+03  0.10229756375E+03  0.00000000000E+00 0.  1.
          6    2    1    2  501    0  0.77883506950E+02 -0.30817780283E+02  0.86278002199E+02  0.20865632083E+03  0.17052269738E+03 0.  0.
         24    2    3    3    0    0  0.52220474077E+02 -0.12093631884E+02 -0.19852373701E+02  0.97773807881E+02  0.79324440881E+02 0.  0.
         -6    2    1    2    0  502 -0.77883506950E+02  0.30817780283E+02  0.17816758837E+03  0.26038439725E+03  0.17041352220E+03 0.  0.
        -24    2    5    5    0    0  0.35405670098E+01  0.62609173713E+02  0.78913440895E+02  0.12804374473E+03  0.78964708344E+02 0.  0.
          5    1    3    3  501    0  0.25663032873E+02 -0.18724148399E+02  0.10613037590E+03  0.11088251295E+03  0.47000000000E+01 0. -1.
        -11    1    4    4    0    0  0.30899527707E+02  0.27217273348E+02  0.11975812309E+02  0.42883340139E+02  0.00000000000E+00 0.  1.
         12    1    4    4    0    0  0.21320946370E+02 -0.39310905232E+02 -0.31828186010E+02  0.54890467742E+02  0.00000000000E+00 0. -1.
         -5    1    5    5    0  502 -0.81424073960E+02 -0.31791393430E+02  0.99254147474E+02  0.13234065251E+03  0.47000000000E+01 0.  1.
         11    1    6    6    0    0 -0.29785110735E+02  0.26975014579E+02  0.66502571821E+02  0.77700683986E+02  0.00000000000E+00 0. -1.
        -12    1    6    6    0    0  0.33325677744E+02  0.35634159135E+02  0.12410869073E+02  0.50343060748E+02  0.00000000000E+00 0.  1.
</event>
<event>
12    1  0.8461994E-002  0.4910566E+03  0.7818608E-02  0.1016151E+00
         21   -1    0    0  501  502  0.00000000000E+00  0.00000000000E+00  0.13257969591E+04  0.13257969591E+04  0.00000000000E+00 0. -1.
         21   -1    0    0  502  503 -0.00000000000E+00 -0.00000000000E+00 -0.22781481198E+03  0.22781481198E+03  0.00000000000E+00 0.  1.
         -6    2    1    2    0  503 -0.25132036271E+03  0.38604014425E+03  0.19986217284E+03  0.53001221177E+03  0.16964415348E+03 0.  0.
        -24    2    3    3    0    0 -0.19432063494E+03  0.19171606877E+03  0.14956446429E+03  0.32129526286E+03  0.79659003072E+02 0.  0.
          6    2    1    2  501    0  0.25132036271E+03 -0.38604014425E+03  0.89811997431E+03  0.10235995593E+04  0.17014009501E+03 0.  0.
         24    2    5    5    0    0  0.91691312930E+02 -0.10875726791E+03  0.21879303962E+03  0.27268385085E+03  0.79061040600E+02 0.  0.
          5    1    5    5  501    0  0.15962904978E+03 -0.27728287635E+03  0.67932693470E+03  0.75091570849E+03  0.47000000000E+01 0. -1.
        -11    1    6    6    0    0 -0.57221857625E+01 -0.38279076658E+02  0.81241990524E+02  0.89990511411E+02  0.00000000000E+00 0.  1.
         12    1    6    6    0    0  0.97413498692E+02 -0.70478191250E+02  0.13755104909E+03  0.18269333944E+03  0.00000000000E+00 0. -1.
         -5    1    3    3    0  503 -0.56999727764E+02  0.19432407548E+03  0.50297708552E+02  0.20871694891E+03  0.47000000000E+01 0.  1.
         13    1    4    4    0    0 -0.67279229926E+02  0.21274701663E+02  0.50468902469E+02  0.86753777017E+02  0.00000000000E+00 0. -1.
        -14    1    4    4    0    0 -0.12704140502E+03  0.17044136711E+03  0.99095561816E+02  0.23454148584E+03  0.00000000000E+00 0.  1.
</event>
<event>
12    1  0.8461994E-002  0.2662942E+03  0.7818608E-02  0.1103499E+00
         21   -1    0    0  503  502  0.00000000000E+00  0.00000000000E+00  0.15751149154E+03  0.15751149154E+03  0.00000000000E+00 0.  1.
         21   -1    0    0  501  503 -0.00000000000E+00 -0.00000000000E+00 -0.45017784094E+03  0.45017784094E+03  0.00000000000E+00 0. -1.
          6    2    1    2  501    0  0.13113312843E+03 -0.15566259184E+03 -0.13291538764E+03  0.29762245762E+03  0.17171455133E+03 0.  0.
         24    2    3    3    0    0  0.93221601200E+02 -0.22344499016E+02 -0.40411777688E+02  0.13091911145E+03  0.79480553592E+02 0.  0.
         -6    2    1    2    0  502 -0.13113312843E+03  0.15566259184E+03 -0.15975096175E+03  0.31006687486E+03  0.17086356320E+03 0.  0.
        -24    2    5    5    0    0 -0.18319265308E+01  0.38677402806E+02 -0.35078591570E+02  0.95661592376E+02  0.80133234222E+02 0.  0.
          5    1    3    3  501    0  0.37911527233E+02 -0.13331809283E+03 -0.92503609952E+02  0.16670334618E+03  0.47000000000E+01 0. -1.
        -13    1    4    4    0    0  0.86044113706E+02 -0.40884786984E+02 -0.11676324206E+02  0.95976517217E+02  0.00000000000E+00 0.  1.
         14    1    4    4    0    0  0.71774874946E+01  0.18540287968E+02 -0.28735453481E+02  0.34942594229E+02  0.00000000000E+00 0. -1.
         -5    1    5    5    0  502 -0.12930120190E+03  0.11698518904E+03 -0.12467237018E+03  0.21440528248E+03  0.47000000000E+01 0.  1.
         11    1    6    6    0    0  0.63859967030E+01  0.60597953122E+02 -0.10705613523E+02  0.61866816932E+02  0.00000000000E+00 0. -1.
        -12    1    6    6    0    0 -0.82179232339E+01 -0.21920550316E+02 -0.24372978047E+02  0.33794775444E+02  0.00000000000E+00 0.  1.
</event>
<event>
12    1  0.8461994E-002  0.3169456E+03  0.7818608E-02  0.1077423E+00
         21   -1    0    0  503  502  0.00000000000E+00  0.00000000000E+00  0.12553932696E+03  0.12553932696E+03  0.00000000000E+00 0.  1.
         21   -1    0    0  501  503 -0.00000000000E+00 -0.00000000000E+00 -0.84244505700E+03  0.84244505700E+03  0.00000000000E+00 0. -1.
          6    2    1    2  501    0 -0.12044766493E+03  0.23417402502E+03 -0.47471877688E+03  0.56909963847E+03  0.17079627455E+03 0.  0.
         24    2    3    3    0    0 -0.64534777288E+02  0.35726384496E+02 -0.15829975828E+03  0.19140822691E+03  0.78340180160E+02 0.  0.
         -6    2    1    2    0  502  0.12044766493E+03 -0.23417402502E+03 -0.24218695316E+03  0.39888474549E+03  0.17637858690E+03 0.  0.
        -24    2    5    5    0    0  0.53976047347E+02 -0.10660930591E+03 -0.20506640323E+03  0.25025346098E+03  0.79344862497E+02 0.  0.
          5    1    3    3  501    0 -0.55912887644E+02  0.19844764053E+03 -0.31641901860E+03  0.37769141156E+03  0.47000000000E+01 0. -1.
        -13    1    4    4    0    0 -0.31263355822E+02  0.46243484142E+02 -0.41635726090E+02  0.69637568380E+02  0.00000000000E+00 0.  1.
         14    1    4    4    0    0 -0.33271421466E+02 -0.10517099646E+02 -0.11666403219E+03  0.12177065853E+03  0.00000000000E+00 0. -1.
         -5    1    5    5    0  502  0.66471617585E+02 -0.12756471912E+03 -0.37120549931E+02  0.14863128451E+03  0.47000000000E+01 0.  1.
         11    1    6    6    0    0  0.52236246012E+02 -0.49653013360E+02 -0.16655005808E+03  0.18147443065E+03  0.00000000000E+00 0. -1.
        -12    1    6    6    0    0  0.17398013346E+01 -0.56956292546E+02 -0.38516345152E+02  0.68779030330E+02  0.00000000000E+00 0.  1.
</event>
<event>
12    1  0.8461994E-002  0.1738878E+03  0.7818608E-02  0.1173878E+00
         21   -1    0    0  503  502  0.00000000000E+00  0.00000000000E+00  0.10948934140E+04  0.10948934140E+04  0.00000000000E+00 0. -1.
         21   -1    0    0  501  503 -0.00000000000E+00 -0.00000000000E+00 -0.18450920403E+03  0.18450920403E+03  0.00000000000E+00 0. -1.
          6    2    1    2  501    0 -0.16652642325E+02  0.16610854439E+02 -0.13470626240E+03  0.21996081460E+03  0.17228973227E+03 0.  0.
         24    2    3    3    0    0  0.56524086391E+02  0.38851239562E+01 -0.55999490372E+02  0.11163896175E+03  0.78212839915E+02 0.  0.
         -6    2    1    2    0  502  0.16652642325E+02 -0.16610854439E+02  0.10450904723E+04  0.10594418034E+04  0.17219061657E+03 0.  0.
        -24    2    5    5    0    0 -0.53493719257E+02 -0.31695071411E+02  0.57320976178E+03  0.58211430509E+03  0.80134122809E+02 0.  0.
          5    1    3    3  501    0 -0.73176728716E+02  0.12725730483E+02 -0.78706772031E+02  0.10832185285E+03  0.47000000000E+01 0. -1.
        -13    1    4    4    0    0  0.36072964744E+02 -0.24938360216E+02  0.17996905953E+01  0.43890995454E+02  0.00000000000E+00 0.  1.
         14    1    4    4    0    0  0.20451121647E+02  0.28823484172E+02 -0.57799180967E+02  0.67747966293E+02  0.00000000000E+00 0. -1.
         -5    1    5    5    0  502  0.70146361582E+02  0.15084216972E+02  0.47188071056E+03  0.47732749831E+03  0.47000000000E+01 0.  1.
         13    1    6    6    0    0  0.10108758170E+02 -0.29454083794E+02  0.29893956472E+03  0.30055713833E+03  0.00000000000E+00 0. -1.
        -14    1    6    6    0    0 -0.63602477427E+02 -0.22409876171E+01  0.27427019705E+03  0.28155716676E+03  0.00000000000E+00 0.  1.
</event>
<event>
12    1  0.8461994E-002  0.2806261E+03  0.7818608E-02  0.1095571E+00
         21   -1    0    0  501  502  0.00000000000E+00  0.00000000000E+00  0.14611669496E+03  0.14611669496E+03  0.00000000000E+00 0. -1.
         21   -1    0    0  502  503 -0.00000000000E+00 -0.00000000000E+00 -0.57184737668E+03  0.57184737668E+03  0.00000000000E+00 0. -1.
         -6    2    1    2    0  503 -0.17331813749E+03  0.13676289840E+03 -0.12218034875E+03  0.30457105690E+03  0.17056442747E+03 0.  0.
        -24    2    3    3    0    0 -0.42313674884E+02  0.91363419744E+02 -0.10312500861E+03  0.16454078206E+03  0.79379972348E+02 0.  0.
          6    2    1    2  501    0  0.17331813749E+03 -0.13676289840E+03 -0.30355033297E+03  0.41339301475E+03  0.17322734437E+03 0.  0.
         24    2    5    5    0    0  0.12003473248E+03 -0.14519563493E+03 -0.16016751893E+03  0.26012542634E+03  0.80755766994E+02 0.  0.
          5    1    5    5  501    0  0.53283405003E+02  0.84327365370E+01 -0.14338281404E+03  0.15326758841E+03  0.47000000000E+01 0. -1.
        -11    1    6    6    0    0  0.10083729287E+02 -0.27415350114E+00  0.76261774548E+01  0.12645763680E+02  0.00000000000E+00 0.  1.
         12    1    6    6    0    0  0.10995100320E+03 -0.14492148143E+03 -0.16779369638E+03  0.24747966266E+03  0.00000000000E+00 0. -1.
         -5    1    3    3    0  503 -0.13100446260E+03  0.45399478652E+02 -0.19055340144E+02  0.14003027484E+03  0.47000000000E+01 0.  1.
         11    1    4    4    0    0 -0.11304072055E+02  0.95382284065E+02 -0.85809386309E+02  0.12879756573E+03  0.00000000000E+00 0. -1.
        -12    1    4    4    0    0 -0.31009602829E+02 -0.40188643206E+01 -0.17315622302E+02  0.35743216332E+02  0.00000000000E+00 0.  1.
</event>
<event>
12    1  0.8461994E-002  0.2572993E+03  0.7818608E-02  0.1108793E+00
         21   -1    0    0  503  502  0.00000000000E+00  0.00000000000E+00  0.27108393775E+03  0.27108393775E+03  0.00000000000E+00 0.  1.
         21   -1    0    0  501  503 -0.00000000000E+00 -0.00000000000E+00 -0.51035407782E+03  0.51035407782E+03  0.00000000000E+00 0. -1.
          6    2    1    2  501    0  0.18322815786E+03  0.55799312428E+02 -0.40185046202E+03  0.47716527373E+03  0.17180449219E+03 0.  0.
         24    2    3    3    0    0  0.81436133522E+02  0.61942941855E+02 -0.32343487396E+03  0.34843899495E+03  0.79566598626E+02 0.  0.
         -6    2    1    2    0  502 -0.18322815786E+03 -0.55799312428E+02  0.16258032195E+03  0.30427274184E+03  0.17164911664E+03 0.  0.
        -24    2    5    5    0    0 -0.14656191664E+03 -0.68425984354E+02  0.51464188288E+02  0.18649018265E+03  0.77249691288E+02 0.  0.
          5    1    3    3  501    0  0.10179202433E+03 -0.61436294270E+01 -0.78415588056E+02  0.12872627879E+03  0.47000000000E+01 0. -1.
        -13    1    4    4    0    0  0.20810415059E+01  0.19080944682E+01  0.47361598379E+01  0.55138705334E+01  0.00000000000E+00 0.  1.
         14    1    4    4    0    0  0.79355092016E+02  0.60034847387E+02 -0.32817103380E+03  0.34292512441E+03  0.00000000000E+00 0. -1.
         -5    1    5    5    0  502 -0.36666241211E+02  0.12626671926E+02  0.11111613366E+03  0.11778255919E+03  0.47000000000E+01 0.  1.
         13    1    6    6    0    0 -0.11773804338E+03 -0.15304505595E+02  0.31424574474E+02  0.12281684995E+03  0.00000000000E+00 0. -1.
        -14    1    6    6    0    0 -0.28823873261E+02 -0.53121478759E+02  0.20039613814E+02  0.63673332700E+02  0.00000000000E+00 0.  1.
</event>
<event>
12    1  0.8461994E-002  0.2838723E+03  0.7818608E-02  0.1093674E+00
         21   -1    0    0  503  502  0.00000000000E+00  0.00000000000E+00  0.54834645536E+03  0.54834645536E+03  0.00000000000E+00 0.  1.
         21   -1    0    0  501  503 -0.00000000000E+00 -0.00000000000E+00 -0.15883985826E+03  0.15883985826E+03  0.00000000000E+00 0. -1.
          6    2    1    2  501    0  0.16315786184E+03  0.15655470070E+03  0.96963993679E+02  0.29997581442E+03  0.17162054357E+03 0.  0.
         24    2    3    3    0    0  0.81044919365E+02  0.93197721744E+01  0.37803660644E+02  0.12125062172E+03  0.81347768265E+02 0.  0.
         -6    2    1    2    0  502 -0.16315786184E+03 -0.15655470070E+03  0.29254260343E+03  0.40721049920E+03  0.17061463491E+03 0.  0.
        -24    2    5    5    0    0 -0.27329582243E+02 -0.10859484405E+03  0.12062481003E+03  0.18287305900E+03  0.79702350616E+02 0.  0.
          5    1    3    3  501    0  0.82112942475E+02  0.14723492852E+03  0.59160333036E+02  0.17872519270E+03  0.47000000000E+01 0. -1.
        -11    1    4    4    0    0  0.82895938775E+02 -0.17823923454E+02  0.15778427366E+02  0.86246087928E+02  0.00000000000E+00 0.  1.
         12    1    4    4    0    0 -0.18510194102E+01  0.27143695628E+02  0.22025233278E+02  0.35004533795E+02  0.00000000000E+00 0. -1.
         -5    1    5    5    0  502 -0.13582827960E+03 -0.47959856651E+02  0.17191779340E+03  0.22433744020E+03  0.47000000000E+01 0.  1.
         11    1    6    6    0    0 -0.34275455162E+02 -0.90544126569E+02  0.48661176179E+02  0.10835569090E+03  0.00000000000E+00 0. -1.
        -12    1    6    6    0    0  0.69458729184E+01 -0.18050717479E+02  0.71963633847E+02  0.74517368100E+02  0.00000000000E+00 0.  1.
</event>
<event>
12    1  0.8461994E-002  0.2385147E+03  0.7818608E-02  0.1120829E+00
         21   -1    0    0  501  502  0.00000000000E+00  0.00000000000E+00  0.39094055865E+02  0.39094055865E+02  0.00000000000E+00 0.  1.
         21   -1    0    0  502  503 -0.00000000000E+00 -0.00000000000E+00 -0.18492754243E+04  0.18492754243E+04  0.00000000000E+00 0.  1.
         -6    2    1    2    0  503  0.14795756037E+03 -0.70699754385E+02 -0.13421939571E+04  0.13632218746E+04  0.17320324996E+03 0.  0.
        -24    2    3    3    0    0  0.17852360660E+03 -0.61019519590E+02 -0.11050270318E+04  0.11238513864E+04  0.79769278869E+02 0.  0.
          6    2    1    2  501    0 -0.14795756037E+03  0.70699754385E+02 -0.46798741134E+03  0.52514760564E+03  0.17285223629E+03 0.  0.
         24    2    5    5    0    0 -0.16355840942E+03  0.20376740788E+02 -0.38786283319E+03  0.42913807375E+03  0.80965079615E+02 0.  0.
          5    1    5    5  501    0  0.15600849053E+02  0.50323013596E+02 -0.80124578156E+02  0.96009531887E+02  0.47000000000E+01 0. -1.
        -13    1    6    6    0    0 -0.11564974649E+03  0.47298705311E+02 -0.30613808440E+03  0.33065474155E+03  0.00000000000E+00 0.  1.
         14    1    6    6    0    0 -0.47908662932E+02 -0.26921964522E+02 -0.81724748783E+02  0.98483332200E+02  0.00000000000E+00 0. -1.
         -5    1    3    3    0  503 -0.30566046230E+02 -0.96802347943E+01 -0.23716692530E+03  0.23937048813E+03  0.47000000000E+01 0.  1.
         13    1    4    4    0    0  0.10866785632E+03 -0.75877983983E+02 -0.76628956950E+03  0.77766694399E+03  0.00000000000E+00 0. -1.
        -14    1    4    4    0    0  0.69855750272E+02  0.14858464392E+02 -0.33873746233E+03  0.34618444246E+03  0.00000000000E+00 0.  1.
</event>
<event>
12    1  0.8461994E-002  0.2210382E+03  0.7818608E-02  0.1133544E+00
         21   -1    0    0  503  502  0.00000000000E+00  0.00000000000E+00  0.19747577681E+03  0.19747577681E+03  0.00000000000E+00 0.  1.
         21   -1    0    0  501  503 -0.00000000000E+00 -0.00000000000E+00 -0.24762344696E+03  0.24762344696E+03  0.00000000000E+00 0. -1.
          6    2    1    2  501    0  0.94405754410E+02 -0.98632301653E+02 -0.12645305018E+01  0.21872021926E+03  0.17086883239E+03 0.  0.
         24    2    3    3    0    0  0.20329227519E+02  0.45226707760E+01  0.42662707465E+02  0.84258431351E+02  0.69610664434E+02 0.  0.
         -6    2    1    2    0  502 -0.94405754410E+02  0.98632301653E+02 -0.48883139650E+02  0.22637900451E+03  0.17383070772E+03 0.  0.
        -24    2    5    5    0    0 -0.12383583365E+03  0.62030608968E+02 -0.14177431136E+01  0.15943972352E+03  0.78967748459E+02 0.  0.
          5    1    3    3  501    0  0.74076526891E+02 -0.10315497243E+03 -0.43927237967E+02  0.13446178791E+03  0.47000000000E+01 0. -1.
        -11    1    4    4    0    0  0.10527165211E+02  0.28246465378E+02 -0.45821340708E+01  0.30490653755E+02  0.00000000000E+00 0.  1.
         12    1    4    4    0    0  0.98020623082E+01 -0.23723794602E+02  0.47244841536E+02  0.53767777596E+02  0.00000000000E+00 0. -1.
         -5    1    5    5    0  502  0.29430079236E+02  0.36601692685E+02 -0.47465396536E+02  0.66939280991E+02  0.47000000000E+01 0.  1.
         13    1    6    6    0    0 -0.34146618505E+02  0.24993625141E+02 -0.36875209040E+02  0.56128904272E+02  0.00000000000E+00 0. -1.
        -14    1    6    6    0    0 -0.89689215141E+02  0.37036983827E+02  0.35457465927E+02  0.10331081925E+03  0.00000000000E+00 0.  1.
</event>
<event>
12    1  0.8461994E-002  0.2302143E+03  0.7818608E-02  0.1127367E+00
         21   -1    0    0  501  502  0.00000000000E+00  0.00000000000E+00  0.58344154934E+03  0.58344154934E+03  0.00000000000E+00 0.  1.
         21   -1    0    0  502  503 -0.00000000000E+00 -0.00000000000E+00 -0.95326237629E+02  0.95326237629E+02  0.00000000000E+00 0.  1.
         -6    2    1    2    0  503  0.10927457091E+03 -0.10688573855E+03  0.15841610465E+03  0.27945353434E+03  0.17214273929E+03 0.  0.
        -24    2    3    3    0    0  0.69219524553E+02  0.10399890432E+02  0.80356698996E+02  0.13290768379E+03  0.79421363847E+02 0.  0.
          6    2    1    2  501    0 -0.10927457091E+03  0.10688573855E+03  0.32969920706E+03  0.39931425263E+03  0.16548357097E+03 0.  0.
         24    2    5    5    0    0 -0.12466467821E+03  0.12829011321E+03  0.26750395356E+03  0.33159909764E+03  0.79999757777E+02 0.  0.
          5    1    5    5  501    0  0.15390107292E+02 -0.21404374661E+02  0.62195253497E+02  0.67715154985E+02  0.47000000000E+01 0. -1.
        -11    1    6    6    0    0 -0.86217839853E+02  0.41503677901E+02  0.95784880661E+02  0.13539133854E+03  0.00000000000E+00 0.  1.
         12    1    6    6    0    0 -0.38446838352E+02  0.86786435310E+02  0.17171907290E+03  0.19620775910E+03  0.00000000000E+00 0. -1.
         -5    1    3    3    0  503  0.40055046361E+02 -0.11728562898E+03  0.78059405650E+02  0.14654585056E+03  0.47000000000E+01 0.  1.
         13    1    4    4    0    0 -0.16140293680E+02  0.11236272134E+02  0.21969229378E+02  0.29485758104E+02  0.00000000000E+00 0. -1.
        -14    1    4    4    0    0  0.85359818232E+02 -0.83638170224E+00  0.58387469619E+02  0.10342192568E+03  0.00000000000E+00 0.  1.
</event>
<event>
12    1  0.8461994E-002  0.1983752E+03  0.7818608E-02  0.1151232E+00
         21   -1    0    0  503  502  0.00000000000E+00  0.00000000000E+00  0.18492038762E+03  0.18492038762E+03  0.00000000000E+00 0. -1.
         21   -1    0    0  501  503 -0.00000000000E+00 -0.00000000000E+00 -0.26427658895E+03  0.26427658895E+03  0.00000000000E+00 0. -1.
          6    2    1    2  501    0 -0.51492284823E+02  0.84145914285E+02 -0.13939201546E+03  0.24245176870E+03  0.17210675724E+03 0.  0.
         24    2    3    3    0    0  0.12762933045E+02 -0.10529615020E+02 -0.69988327857E+02  0.10854452198E+03  0.81300565580E+02 0.  0.
         -6    2    1    2    0  502  0.51492284823E+02 -0.84145914285E+02  0.60035814122E+02  0.20674520787E+03  0.17148554374E+03 0.  0.
        -24    2    5    5    0    0 -0.16562422473E+02 -0.37299572859E+02  0.82192852842E+02  0.12107696839E+03  0.78983512480E+02 0.  0.
          5    1    3    3  501    0 -0.64255217868E+02  0.94675529305E+02 -0.69403687599E+02  0.13390724672E+03  0.47000000000E+01 0. -1.
        -13    1    4    4    0    0 -0.22436527811E+02 -0.33853727921E+02 -0.37324320924E+02  0.55159564962E+02  0.00000000000E+00 0.  1.
         14    1    4    4    0    0  0.35199460856E+02  0.23324112901E+02 -0.32664006933E+02  0.53384957020E+02  0.00000000000E+00 0. -1.
         -5    1    5    5    0  502  0.68054707296E+02 -0.46846341426E+02 -0.22157038720E+02  0.85668239476E+02  0.47000000000E+01 0.  1.
         11    1    6    6    0    0 -0.12609263705E+02 -0.37429579776E+02  0.97537450771E+02  0.10523080004E+03  0.00000000000E+00 0. -1.
        -12    1    6    6    0    0 -0.39531587682E+01  0.13000691642E+00 -0.15344597929E+02  0.15846168358E+02  0.00000000000E+00 0.  1.
</event>
<event>
12    1  0.8461994E-002  0.3624775E+03  0.7818608E-02  0.1057845E+00
         21   -1    0    0  501  502  0.00000000000E+00  0.00000000000E+00  0.36282881753E+03  0.36282881753E+03  0.00000000000E+00 0. -1.
         21   -1    0    0  502  503 -0.00000000000E+00 -0.00000000000E+00 -0.39638485418E+03  0.39638485418E+03  0.00000000000E+00 0.  1.
         -6    2    1    2    0  503 -0.21146680290E+03 -0.23547265535E+03  0.98723490331E+02  0.37335382882E+03  0.17170082646E+03 0.  0.
        -24    2    3    3    0    0 -0.50685045996E+02 -0.15009771302E+03  0.41365875117E+02  0.18243070252E+03  0.80445809453E+02 0.  0.
          6    2    1    2  501    0  0.21146680290E+03  0.23547265535E+03 -0.13227952699E+03  0.38585984289E+03  0.17670417355E+03 0.  0.
         24    2    5    5    0    0  0.23671748572E+03  0.21323283071E+03 -0.11824214127E+03  0.34909919844E+03  0.79910188607E+02 0.  0.
          5    1    5    5  501    0 -0.25250682816E+02  0.22239824638E+02 -0.14037385712E+02  0.36760644447E+02  0.47000000000E+01 0. -1.
        -11    1    6    6    0    0  0.86260855306E+02  0.12956602649E+03 -0.67163580718E+02  0.16952650812E+03  0.00000000000E+00 0.  1.
         12    1    6    6    0    0  0.15045663041E+03  0.83666804218E+02 -0.51078560555E+02  0.17957269033E+03  0.00000000000E+00 0. -1.
         -5    1    3    3    0  503 -0.16078175690E+03 -0.85374942328E+02  0.57357615214E+02  0.19092312629E+03  0.47000000000E+01 0.  1.
         11    1    4    4    0    0 -0.61573180084E+02 -0.68163026475E+02  0.38860910922E+02  0.99737781615E+02  0.00000000000E+00 0. -1.
        -12    1    4    4    0    0  0.10888134088E+02 -0.81934686544E+02  0.25049641948E+01  0.82692920910E+02  0.00000000000E+00 0.  1.
</event>
<event>
12    1  0.8461994E-002  0.2152298E+03  0.7818608E-02  0.1138398E+00
         21   -1    0    0  501  502  0.00000000000E+00  0.00000000000E+00  0.29325503938E+03  0.29325503938E+03  0.00000000000E+00 0. -1.
         21   -1    0    0  502  503 -0.00000000000E+00 -0.00000000000E+00 -0.37017536610E+03  0.37017536610E+03  0.00000000000E+00 0.  1.
         -6    2    1    2    0  503  0.11865877676E+03  0.44370677800E+02 -0.29144692978E+03  0.35954629693E+03  0.16817718160E+03 0.  0.
        -24    2    3    3    0    0  0.10502192356E+03  0.84960343838E+02 -0.17051774643E+03  0.23117401745E+03  0.78212914806E+02 0.  0.
          6    2    1    2  501    0 -0.11865877676E+03 -0.44370677800E+02  0.21452660306E+03  0.30388410855E+03  0.17399777487E+03 0.  0.
         24    2    5    5    0    0 -0.40055893603E+02 -0.51413222884E+02  0.19757338795E+03  0.22302922506E+03  0.80367888534E+02 0.  0.
          5    1    5    5  501    0 -0.78602883155E+02  0.70425450841E+01  0.16953215112E+02  0.80854883490E+02  0.47000000000E+01 0. -1.
        -11    1    6    6    0    0 -0.59599179071E+02 -0.32767849185E+02  0.94211947601E+02  0.11619675192E+03  0.00000000000E+00 0.  1.
         12    1    6    6    0    0  0.19543285467E+02 -0.18645373699E+02  0.10336144035E+03  0.10683247314E+03  0.00000000000E+00 0. -1.
         -5    1    3    3    0  503  0.13636853196E+02 -0.40589666038E+02 -0.12092918334E+03  0.12837227948E+03  0.47000000000E+01 0.  1.
         13    1    4    4    0    0 -0.64569420544E+01 -0.52437173774E+01 -0.27154533754E+02  0.28399953803E+02  0.00000000000E+00 0. -1.
        -14    1    4    4    0    0  0.11147886562E+03  0.90204061215E+02 -0.14336321268E+03  0.20277406365E+03  0.00000000000E+00 0.  1.
</event>
<event>
12    1  0.8461994E-002  0.2507061E+03  0.7818608E-02  0.1114213E+00
         21   -1    0    0  503  502  0.00000000000E+00  0.00000000000E+00  0.52266083308E+03  0.52266083308E+03  0.00000000000E+00 0. -1.
         21   -1    0    0  501  503 -0.00000000000E+00 -0.00000000000E+00 -0.18488380659E+03  0.18488380659E+03  0.00000000000E+00 0.  1.
          6    2    1    2  501    0  0.34817182426E+02  0.16718423663E+03 -0.44835835755E+02  0.25468371723E+03  0.18355037043E+03 0.  0.
         24    2    3    3    0    0 -0.46366229588E+02  0.46731252601E+02 -0.32085976358E+02  0.10879226216E+03  0.80452527688E+02 0.  0.
         -6    2    1    2    0  502 -0.34817182426E+02 -0.16718423663E+03  0.38261286224E+03  0.45286092244E+03  0.17183599026E+03 0.  0.
        -24    2    5    5    0    0 -0.78632471407E+01 -0.16947127324E+03  0.38229796929E+03  0.42540305797E+03  0.77676774508E+02 0.  0.
          5    1    3    3  501    0  0.81183412014E+02  0.12045298403E+03 -0.12749859397E+02  0.14589145507E+03  0.47000000000E+01 0. -1.
        -13    1    4    4    0    0 -0.62594622864E+01  0.55534066523E+02 -0.37607492262E+02  0.67361241727E+02  0.00000000000E+00 0.  1.
         14    1    4    4    0    0 -0.40106767302E+02 -0.88028139224E+01  0.55215159044E+01  0.41431020434E+02  0.00000000000E+00 0. -1.
         -5    1    5    5    0  502 -0.26953935286E+02  0.22870366041E+01  0.31489295561E+00  0.27457864472E+02  0.47000000000E+01 0.  1.
         11    1    6    6    0    0  0.51148131206E+00 -0.20668817117E+02  0.13570137625E+03  0.13726734910E+03  0.00000000000E+00 0. -1.
        -12    1    6    6    0    0 -0.83747284528E+01 -0.14880245612E+03  0.24659659304E+03  0.28813570887E+03  0.00000000000E+00 0.  1.
</event>
<event>
12    1  0.8461994E-002  0.2369285E+03  0.7818608E-02  0.1121990E+00
         21   -1    0    0  503  502  0.00000000000E+00  0.00000000000E+00  0.22373940876E+03  0.22373940876E+03  0.00000000000E+00 0.  1.
         21   -1    0    0  501  503 -0.00000000000E+00 -0.00000000000E+00 -0.26884012460E+03  0.26884012460E+03  0.00000000000E+00 0. -1.
          6    2    1    2  501    0 -0.16281919684E+03 -0.40396545674E+01 -0.87609848577E+02  0.25186781757E+03  0.17098392407E+03 0.  0.
         24    2    3    3    0    0 -0.46350476486E+02 -0.51742721175E+02 -0.12546818133E+02  0.10524894455E+03  0.78065625083E+02 0.  0.
         -6    2    1    2    0  502  0.16281919684E+03  0.40396545674E+01  0.42509132735E+02  0.24071171580E+03  0.17207177018E+03 0.  0.
        -24    2    5    5    0    0  0.11450206855E+03  0.45630197828E+02 -0.25756462145E+02  0.14718845870E+03  0.76211602638E+02 0.  0.
          5    1    3    3  501    0 -0.11646872035E+03  0.47703066607E+02 -0.75063030444E+02  0.14661887301E+03  0.47000000000E+01 0. -1.
        -11    1    4    4    0    0 -0.65350112207E+01  0.20603451918E+02  0.63740038832E+00  0.21624404774E+02  0.00000000000E+00 0.  1.
         12    1    4    4    0    0 -0.39815465266E+02 -0.72346173093E+02 -0.13184218522E+02  0.83624539781E+02  0.00000000000E+00 0. -1.
         -5    1    5    5    0  502  0.48317128286E+02 -0.41590543261E+02  0.68265594880E+02  0.93523257101E+02  0.47000000000E+01 0.  1.
         13    1    6    6    0    0  0.40019309255E+01  0.25768055794E+02 -0.23176483059E+02  0.34887784646E+02  0.00000000000E+00 0. -1.
        -14    1    6    6    0    0  0.11050013762E+03  0.19862142034E+02 -0.25799790857E+01  0.11230067405E+03  0.00000000000E+00 0.  1.
</event>
<event>
12    1  0.8461994E-002  0.1908082E+03  0.7818608E-02  0.1157910E+00
         21   -1    0    0  501  502  0.00000000000E+00  0.00000000000E+00  0.50016000269E+03  0.50016000269E+03  0.00000000000E+00 0. -1.
         21   -1    0    0  502  503 -0.00000000000E+00 -0.00000000000E+00 -0.12433605619E+03  0.12433605619E+03  0.00000000000E+00 0. -1.
         -6    2    1    2    0  503  0.49375823730E+02  0.66553702577E+02 -0.13485441046E+02  0.19128413169E+03  0.17187319343E+03 0.  0.
        -24    2    3    3    0    0  0.61583545326E+02  0.11790236092E+02 -0.59548289574E+02  0.11853839819E+03  0.81079037564E+02 0.  0.
          6    2    1    2  501    0 -0.49375823730E+02 -0.66553702577E+02  0.38930938755E+03  0.43321192718E+03  0.17100703882E+03 0.  0.
         24    2    5    5    0    0 -0.81474704627E+02 -0.90492639495E+02  0.33832469161E+03  0.36821238814E+03  0.79307758341E+02 0.  0.
          5    1    5    5  501    0  0.32098880897E+02  0.23938936917E+02  0.50984695937E+02  0.64999539040E+02  0.47000000000E+01 0. -1.
        -11    1    6    6    0    0 -0.45454751663E+02 -0.98278398743E+02  0.24415832442E+03  0.26709186714E+03  0.00000000000E+00 0.  1.
         12    1    6    6    0    0 -0.36019952964E+02  0.77857592480E+01  0.94166367187E+02  0.10112052100E+03  0.00000000000E+00 0. -1.
         -5    1    3    3    0  503 -0.12207721596E+02  0.54763466486E+02  0.46062848529E+02  0.72745733501E+02  0.47000000000E+01 0.  1.
         13    1    4    4    0    0  0.48392561177E+02  0.44419628737E+02 -0.28495052424E+02  0.71602453918E+02  0.00000000000E+00 0. -1.
        -14    1    4    4    0    0  0.13190984149E+02 -0.32629392645E+02 -0.31053237150E+02  0.46935944272E+02  0.00000000000E+00 0.  1.
</event>
<event>
12    1  0.8461994E-002  0.2134849E+03  0.7818608E-02  0.1140373E+00
         21   -1    0    0  501  502  0.00000000000E+00  0.00000000000E+00  0.60425771884E+02  0.60425771884E+02  0.00000000000E+00 0.  1.
         21   -1    0    0  502  503 -0.00000000000E+00 -0.00000000000E+00 -0.10692257294E+04  0.10692257294E+04  0.00000000000E+00 0.  1.
         -6    2    1    2    0  503 -0.12289774580E+03  0.27825550843E+02 -0.83026918636E+03  0.85727634096E+03  0.17233016494E+03 0.  0.
        -24    2    3    3    0    0 -0.58972288208E+02 -0.48806940306E+02 -0.50599871366E+03  0.51796463723E+03  0.79955106087E+02 0.  0.
          6    2    1    2  501    0  0.12289774580E+03 -0.27825550843E+02 -0.17853077114E+03  0.27237516031E+03  0.16259420195E+03 0.  0.
         24    2    5    5    0    0  0.14260580666E+03 -0.47993249178E+02 -0.12462800402E+03  0.21136088310E+03  0.80631975425E+02 0.  0.
          5    1    5    5  501    0 -0.19708060862E+02  0.20167698335E+02 -0.53902767125E+02  0.61014277205E+02  0.47000000000E+01 0. -1.
        -11    1    6    6    0    0  0.11589244938E+02 -0.34695272207E+02 -0.42872939988E+02  0.56357444007E+02  0.00000000000E+00 0.  1.
         12    1    6    6    0    0  0.13101656173E+03 -0.13297976971E+02 -0.81755064029E+02  0.15500343910E+03  0.00000000000E+00 0. -1.
         -5    1    3    3    0  503 -0.63925457594E+02  0.76632491149E+02 -0.32427047270E+03  0.33931170374E+03  0.47000000000E+01 0.  1.
         11    1    4    4    0    0 -0.49754875933E+02 -0.34028437527E+01 -0.13199291203E+03  0.14110016247E+03  0.00000000000E+00 0. -1.
        -12    1    4    4    0    0 -0.92174122746E+01 -0.45404096554E+02 -0.37400580164E+03  0.37686447475E+03  0.00000000000E+00 0.  1.
</event>
<event>
12    1  0.8461994E-002  0.1935581E+03  0.7818608E-02  0.1155322E+00
         21   -1    0    0  501  502  0.00000000000E+00  0.00000000000E+00  0.33178581658E+03  0.33178581658E+03  0.00000000000E+00 0.  1.
         21   -1    0    0  502  503 -0.00000000000E+00 -0.00000000000E+00 -0.18805711763E+04  0.18805711763E+04  0.00000000000E+00 0.  1.
         -6    2    1    2    0  503 -0.64880553273E+02  0.60886971368E+02 -0.18468890646E+04  0.18570040221E+04  0.17189535145E+03 0.  0.
        -24    2    3    3    0    0  0.11318482598E+02  0.99665781088E+01 -0.46833656204E+03  0.47540050745E+03  0.80243793583E+02 0.  0.
          6    2    1    2  501    0  0.64880553273E+02 -0.60886971368E+02  0.29810370485E+03  0.35535297077E+03  0.17173585972E+03 0.  0.
         24    2    5    5    0    0  0.10307543595E+02 -0.11523301624E+02  0.25945574148E+03  0.27210190261E+03  0.80517896671E+02 0.  0.
          5    1    5    5  501    0  0.54573009678E+02 -0.49363669744E+02  0.38647963369E+02  0.83251068152E+02  0.47000000000E+01 0. -1.
        -11    1    6    6    0    0  0.37565327049E+02 -0.30820949882E+02  0.15419204931E+03  0.16166716679E+03  0.00000000000E+00 0.  1.
         12    1    6    6    0    0 -0.27257783453E+02  0.19297648258E+02  0.10526369217E+03  0.11043473582E+03  0.00000000000E+00 0. -1.
         -5    1    3    3    0  503 -0.76199035871E+02  0.50920393259E+02 -0.13785525025E+04  0.13816035147E+04  0.47000000000E+01 0.  1.
         11    1    4    4    0    0 -0.10872969752E+02 -0.18785108649E+02 -0.39851289620E+02  0.45378707149E+02  0.00000000000E+00 0. -1.
        -12    1    4    4    0    0  0.22191452350E+02  0.28751686758E+02 -0.42848527242E+03  0.43002180030E+03  0.00000000000E+00 0.  1.
</event>
<event>
12    1  0.8461994E-002  0.2441882E+03  0.7818608E-02  0.1117037E+00
         21   -1    0    0  503  502  0.00000000000E+00  0.00000000000E+00  0.39682330418E+02  0.39682330418E+02  0.00000000000E+00 0.  1.
         21   -1    0    0  501  503 -0.00000000000E+00 -0.00000000000E+00 -0.15828694392E+04  0.15828694392E+04  0.00000000000E+00 0.  1.
          6    2    1    2  501    0 -0.84132937133E+01  0.17352633724E+03 -0.95437500556E+03  0.98511348804E+03  0.17156561382E+03 0.  0.
         24    2    3    3    0    0 -0.16789839060E+02  0.17367532058E+03 -0.55988305471E+03  0.59050459560E+03  0.69149307978E+02 0.  0.
         -6    2    1    2    0  502  0.84132937133E+01 -0.17352633724E+03 -0.58881210325E+03  0.63743828161E+03  0.17159748454E+03 0.  0.
        -24    2    5    5    0    0  0.64400337831E+02 -0.67463822500E+02 -0.34000304718E+03  0.36119229969E+03  0.78479515845E+02 0.  0.
          5    1    3    3  501    0  0.83765453466E+01 -0.14898333713E+00 -0.39449195085E+03  0.39460889244E+03  0.47000000000E+01 0. -1.
        -13    1    4    4    0    0 -0.25638947304E+02  0.19140119063E+02 -0.11956323912E+03  0.12377022229E+03  0.00000000000E+00 0.  1.
         14    1    4    4    0    0  0.88491082436E+01  0.15453520152E+03 -0.44031981559E+03  0.46673437331E+03  0.00000000000E+00 0. -1.
         -5    1    5    5    0  502 -0.55987044117E+02 -0.10606251474E+03 -0.24880905607E+03  0.27624598192E+03  0.47000000000E+01 0.  1.
         11    1    6    6    0    0  0.32632614411E+02  0.12560311456E+02 -0.11823733145E+03  0.12329929236E+03  0.00000000000E+00 0. -1.
        -12    1    6    6    0    0  0.31767723420E+02 -0.80024133956E+02 -0.22176571573E+03  0.23789300733E+03  0.00000000000E+00 0.  1.
</event>
<event>
12    1  0.8461994E-002  0.2296338E+03  0.7818608E-02  0.1127440E+00
         21   -1    0    0  501  502  0.00000000000E+00  0.00000000000E+00  0.93265040679E+02  0.93265040679E+02  0.00000000000E+00 0. -1.
         21   -1    0    0  502  503 -0.00000000000E+00 -0.00000000000E+00 -0.13670155508E+04  0.13670155508E+04  0.00000000000E+00 0. -1.
         -6    2    1    2    0  503  0.12145501472E+03 -0.90039474161E+02 -0.12003309096E+04  0.12220990060E+04  0.17283882758E+03 0.  0.
        -24    2    3    3    0    0  0.49080350554E+02 -0.55676338689E+02 -0.31006516670E+03  0.32822311967E+03  0.77982518492E+02 0.  0.
          6    2    1    2  501    0 -0.12145501472E+03  0.90039474161E+02 -0.73419600535E+02  0.23818158553E+03  0.16876493249E+03 0.  0.
         24    2    5    5    0    0 -0.61740303102E+02  0.89247637172E+02  0.10180685325E+02  0.13533426381E+03  0.80216649397E+02 0.  0.
          5    1    5    5  501    0 -0.59714711617E+02  0.79183698867E+00 -0.83600285860E+02  0.10284732172E+03  0.47000000000E+01 0. -1.
        -11    1    6    6    0    0 -0.12212483005E+02  0.26836362475E+02  0.40490776882E+02  0.50088303071E+02  0.00000000000E+00 0.  1.
         12    1    6    6    0    0 -0.49527820097E+02  0.62411274697E+02 -0.30310091557E+02  0.85245960743E+02  0.00000000000E+00 0. -1.
         -5    1    3    3    0  503  0.72374664164E+02 -0.34363135472E+02 -0.89026574293E+03  0.89387588631E+03  0.47000000000E+01 0.  1.
         13    1    4    4    0    0  0.65918339999E+01 -0.13846556488E+01 -0.18732977272E+03  0.18745082901E+03  0.00000000000E+00 0. -1.
        -14    1    4    4    0    0  0.42488516554E+02 -0.54291683040E+02 -0.12273539397E+03  0.14077229067E+03  0.00000000000E+00 0.  1.
</event>
<event>
12    1  0.8461994E-002  0.2157548E+03  0.7818608E-02  0.1137122E+00
         21   -1    0    0  501  502  0.00000000000E+00  0.00000000000E+00  0.25902290974E+03  0.25902290974E+03  0.00000000000E+00 0. -1.
         21   -1    0    0  502  503 -0.00000000000E+00 -0.00000000000E+00 -0.26052354796E+03  0.26052354796E+03  0.00000000000E+00 0.  1.
         -6    2    1    2    0  503 -0.33298101981E+02 -0.12555886941E+03 -0.14556072882E+03  0.26011739165E+03  0.17204458254E+03 0.  0.
        -24    2    3    3    0    0  0.83665971393E+01 -0.27681396379E+02 -0.30741849022E+00  0.80015861834E+02  0.74606862860E+02 0.  0.
          6    2    1    2  501    0  0.33298101981E+02  0.12555886941E+03  0.14406009059E+03  0.25942906606E+03  0.17226821335E+03 0.  0.
         24    2    5    5    0    0  0.82674889351E+02  0.10430922383E+03  0.11603427062E+03  0.19862486264E+03  0.90952364425E+02 0.  0.
          5    1    5    5  501    0 -0.49376787370E+02  0.21249645581E+02  0.28025819972E+02  0.60804203419E+02  0.47000000000E+01 0. -1.
        -11    1    6    6    0    0  0.19126810036E+02  0.80898180562E+01 -0.13833037060E+02  0.24952613743E+02  0.00000000000E+00 0.  1.
         12    1    6    6    0    0  0.63548079315E+02  0.96219405770E+02  0.12986730768E+03  0.17367224890E+03  0.00000000000E+00 0. -1.
         -5    1    3    3    0  503 -0.41664699120E+02 -0.97877473029E+02 -0.14525331033E+03  0.18010152981E+03  0.47000000000E+01 0.  1.
         11    1    4    4    0    0  0.36932940195E+02 -0.20486589636E+02 -0.17714300739E+02  0.45798896024E+02  0.00000000000E+00 0. -1.
        -12    1    4    4    0    0 -0.28566343056E+02 -0.71948067427E+01  0.17406882248E+02  0.34216965810E+02  0.00000000000E+00 0.  1.
</event>
<event>
12    1  0.8461994E-002  0.1825992E+03  0.7818608E-02  0.1165905E+00
         21   -1    0    0  503  502  0.00000000000E+00  0.00000000000E+00  0.45167649857E+02  0.45167649857E+02  0.00000000000E+00 0. -1.
         21   -1    0    0  501  503 -0.00000000000E+00 -0.00000000000E+00 -0.78433086817E+03  0.78433086817E+03  0.00000000000E+00 0.  1.
          6    2    1    2  501    0 -0.39178354565E+02 -0.45963300416E+02 -0.48289397856E+03  0.51626453287E+03  0.17232209642E+03 0.  0.
         24    2    3    3    0    0 -0.83583165323E+02 -0.40957933868E+02 -0.24322821072E+03  0.27242316807E+03  0.79941992325E+02 0.  0.
         -6    2    1    2    0  502  0.39178354565E+02  0.45963300416E+02 -0.25626923975E+03  0.31323398516E+03  0.16968806017E+03 0.  0.
        -24    2    5    5    0    0 -0.34944905724E+02  0.52378044613E+01 -0.80871715977E+02  0.11845409636E+03  0.79009856769E+02 0.  0.
          5    1    3    3  501    0  0.44404810758E+02 -0.50053665483E+01 -0.23966576784E+03  0.24384136480E+03  0.47000000000E+01 0. -1.
        -13    1    4    4    0    0 -0.35337302714E+02 -0.13044825394E+02 -0.19533754436E+03  0.19893629300E+03  0.00000000000E+00 0.  1.
         14    1    4    4    0    0 -0.48245862609E+02 -0.27913108474E+02 -0.47890666356E+02  0.73486875070E+02  0.00000000000E+00 0. -1.
         -5    1    5    5    0  502  0.74123260288E+02  0.40725495955E+02 -0.17539752377E+03  0.19477988880E+03  0.47000000000E+01 0.  1.
         11    1    6    6    0    0 -0.11704577494E+02  0.15986490321E+02  0.11288150250E+02  0.22803230981E+02  0.00000000000E+00 0. -1.
        -12    1    6    6    0    0 -0.23240328230E+02 -0.10748685860E+02 -0.92159866227E+02  0.95650865374E+02  0.00000000000E+00 0.  1.
</event>
<event>
12    1  0.8461994E-002  0.1745645E+03  0.7818608E-02  0.1173347E+00
         21   -1    0    0  501  502  0.00000000000E+00  0.00000000000E+00  0.19932447267E+03  0.19932447267E+03  0.00000000000E+00 0. -1.
         21   -1    0    0  502  503 -0.00000000000E+00 -0.00000000000E+00 -0.15363988610E+03  0.15363988610E+03  0.00000000000E+00 0. -1.
         -6    2    1    2    0  503  0.17785320636E+02  0.25072024841E+02  0.39485819736E+02  0.17828987449E+03  0.17112342133E+03 0.  0.
        -24    2    3    3    0    0  0.64815339356E+02 -0.14167594880E+02  0.51903945073E+02  0.11561715113E+03  0.79193163601E+02 0.  0.
          6    2    1    2  501    0 -0.17785320636E+02 -0.25072024841E+02  0.61987668409E+01  0.17467448428E+03  0.17183662790E+03 0.  0.
         24    2    5    5    0    0 -0.11131469964E+02  0.52674043870E+02 -0.37729813692E+01  0.95869340466E+02  0.79235285901E+02 0.  0.
          5    1    5    5  501    0 -0.66538506718E+01 -0.77746068711E+02  0.99717482101E+01  0.78805143811E+02  0.47000000000E+01 0. -1.
        -11    1    6    6    0    0 -0.12243480787E+02  0.33302641455E+02  0.36661731147E+02  0.51020106628E+02  0.00000000000E+00 0.  1.
         12    1    6    6    0    0  0.11120108231E+01  0.19371402415E+02 -0.40434712516E+02  0.44849233838E+02  0.00000000000E+00 0. -1.
         -5    1    3    3    0  503 -0.47030018720E+02  0.39239619721E+02 -0.12418125337E+02  0.62672723361E+02  0.47000000000E+01 0.  1.
         11    1    4    4    0    0  0.21171109620E+02 -0.30733045889E+02  0.57553757378E+02  0.68594248888E+02  0.00000000000E+00 0. -1.
        -12    1    4    4    0    0  0.43644229736E+02  0.16565451009E+02 -0.56498123047E+01  0.47022902244E+02  0.00000000000E+00 0.  1.
</event>
<event>
12    1  0.8461994E-002  0.1928468E+03  0.7818608E-02  0.1156324E+00
         21   -1    0    0  501  502  0.00000000000E+00  0.00000000000E+00  0.69629130834E+02  0.69629130834E+02  0.00000000000E+00 0.  1.
         21   -1    0    0  502  503 -0.00000000000E+00 -0.00000000000E+00 -0.53004277497E+03  0.53004277497E+03  0.00000000000E+00 0. -1.
         -6    2    1    2    0  503  0.86207936331E+02 -0.42790609684E+01 -0.21849965161E+03  0.29143095011E+03  0.17245226086E+03 0.  0.
        -24    2    3    3    0    0  0.72880976479E+02 -0.66664741139E+02 -0.16449027896E+03  0.20771307099E+03  0.79572881972E+02 0.  0.
          6    2    1    2  501    0 -0.86207936331E+02  0.42790609684E+01 -0.24191399253E+03  0.30824095570E+03  0.17041123302E+03 0.  0.
         24    2    5    5    0    0 -0.10755719459E+03 -0.31919636658E+02 -0.13586539272E+03  0.19407208052E+03  0.81345892265E+02 0.  0.
          5    1    5    5  501    0  0.21349258254E+02  0.36198697626E+02 -0.10604859981E+03  0.11416887518E+03  0.47000000000E+01 0. -1.
        -13    1    6    6    0    0 -0.63957998544E+02  0.20178641166E+02 -0.45603838884E+02  0.81101869633E+02  0.00000000000E+00 0.  1.
         14    1    6    6    0    0 -0.43599196041E+02 -0.52098277824E+02 -0.90261553836E+02  0.11297021089E+03  0.00000000000E+00 0. -1.
         -5    1    3    3    0  503  0.13326959852E+02  0.62385680170E+02 -0.54009372654E+02  0.83717879116E+02  0.47000000000E+01 0.  1.
         11    1    4    4    0    0 -0.11923733339E+02 -0.21073174201E+02 -0.11164444238E+02  0.26662687464E+02  0.00000000000E+00 0. -1.
        -12    1    4    4    0    0  0.84804709818E+02 -0.45591566938E+02 -0.15332583472E+03  0.18105038353E+03  0.00000000000E+00 0.  1.
</event>
<event>
12    1  0.8461994E-002  0.1766742E+03  0.7818608E-02  0.1171093E+00
         21   -1    0    0  501  502  0.00000000000E+00  0.00000000000E+00  0.86273765397E+02  0.86273765397E+02  0.00000000000E+00 0.  1.
         21   -1    0    0  502  503 -0.00000000000E+00 -0.00000000000E+00 -0.45707889660E+03  0.45707889660E+03  0.00000000000E+00 0.  1.
         -6    2    1    2    0  503 -0.34244144604E+02 -0.39717452736E+01 -0.30966357530E+03  0.35651832285E+03  0.17327824001E+03 0.  0.
        -24    2    3    3    0    0  0.45774871991E+02 -0.85239813532E+01 -0.12647152750E+03  0.15650536765E+03  0.79566862900E+02 0.  0.
          6    2    1    2  501    0  0.34244144604E+02  0.39717452736E+01 -0.61141555905E+02  0.18683433915E+03  0.17314833013E+03 0.  0.
         24    2    5    5    0    0 -0.47278085301E+02 -0.11134267863E+02 -0.34133816225E+02  0.99509808780E+02  0.79861726520E+02 0.  0.
          5    1    5    5  501    0  0.81522229905E+02  0.15106013136E+02 -0.27007739680E+02  0.87324530369E+02  0.47000000000E+01 0. -1.
        -13    1    6    6    0    0  0.67281575414E+01  0.15117709466E+02  0.14682390543E+02  0.22122066709E+02  0.00000000000E+00 0.  1.
         14    1    6    6    0    0 -0.54006242842E+02 -0.26251977329E+02 -0.48816206768E+02  0.77387742071E+02  0.00000000000E+00 0. -1.
         -5    1    3    3    0  503 -0.80019016595E+02  0.45522360796E+01 -0.18319204780E+03  0.20001295520E+03  0.47000000000E+01 0.  1.
         11    1    4    4    0    0  0.80946106952E+01 -0.17139926644E+02  0.48894541437E+01  0.19575662683E+02  0.00000000000E+00 0. -1.
        -12    1    4    4    0    0  0.37680261296E+02  0.86159452905E+01 -0.13136098164E+03  0.13692970497E+03  0.00000000000E+00 0.  1.
</event>
<event>
12    1  0.8461994E-002  0.2706166E+03  0.7818608E-02  0.1100970E+00
         21   -1    0    0  501  502  0.00000000000E+00  0.00000000000E+00  0.20876361917E+04  0.20876361917E+04  0.00000000000E+00 0. -1.
         21   -1    0    0  502  503 -0.00000000000E+00 -0.00000000000E+00 -0.35513551115E+02  0.35513551115E+02  0.00000000000E+00 0. -1.
         -6    2    1    2    0  503 -0.19554534645E+03 -0.72385805868E+02  0.90299584395E+03  0.94258811221E+03  0.17202664813E+03 0.  0.
        -24    2    3    3    0    0 -0.12345495678E+03 -0.11471341322E+03  0.61727618305E+03  0.64485254958E+03  0.80028938587E+02 0.  0.
          6    2    1    2  501    0  0.19554534645E+03  0.72385805868E+02  0.11491267966E+04  0.11805616306E+04  0.17249835222E+03 0.  0.
         24    2    5    5    0    0  0.15455011339E+03  0.94183736961E+02  0.10721540890E+04  0.10905469282E+04  0.83796766820E+02 0.  0.
          5    1    5    5  501    0  0.40995233064E+02 -0.21797931093E+02  0.76972707600E+02  0.90014702405E+02  0.47000000000E+01 0. -1.
        -13    1    6    6    0    0  0.28505686790E+02  0.60307152633E+02  0.28956133620E+03  0.29714524102E+03  0.00000000000E+00 0.  1.
         14    1    6    6    0    0  0.12604442660E+03  0.33876584328E+02  0.78259275285E+03  0.79340168720E+03  0.00000000000E+00 0. -1.
         -5    1    3    3    0  503 -0.72090389677E+02  0.42327607348E+02  0.28571966090E+03  0.29773556263E+03  0.47000000000E+01 0.  1.
         13    1    4    4    0    0 -0.78832799072E+02 -0.69660483149E+02  0.50560796916E+03  0.51643645456E+03  0.00000000000E+00 0. -1.
        -14    1    4    4    0    0 -0.44622157706E+02 -0.45052930066E+02  0.11166821389E+03  0.12841609502E+03  0.00000000000E+00 0.  1.
</event>
<event>
12    1  0.8461994E-002  0.1906248E+03  0.7818608E-02  0.1158299E+00
         21   -1    0    0  501  502  0.00000000000E+00  0.00000000000E+00  0.80247729592E+02  0.80247729592E+02  0.00000000000E+00 0. -1.
         21   -1    0    0  502  503 -0.00000000000E+00 -0.00000000000E+00 -0.45931445361E+03  0.45931445361E+03  0.00000000000E+00 0. -1.
         -6    2    1    2    0  503  0.81200221013E+02  0.54324185719E+01 -0.23157351854E+03  0.29994014892E+03  0.17237984621E+03 0.  0.
        -24    2    3    3    0    0  0.71118964381E+02  0.63719598864E+02 -0.19699317614E+03  0.23126033236E+03  0.74544855654E+02 0.  0.
          6    2    1    2  501    0 -0.81200221013E+02 -0.54324185719E+01 -0.14749320548E+03  0.23962203429E+03  0.17041562894E+03 0.  0.
         24    2    5    5    0    0 -0.61988333740E+02  0.61136505768E+02 -0.10175185644E+03  0.15646628095E+03  0.80919904405E+02 0.  0.
          5    1    5    5  501    0 -0.19211887272E+02 -0.66568924340E+02 -0.45741349037E+02  0.83155753331E+02  0.47000000000E+01 0. -1.
        -11    1    6    6    0    0 -0.32881047632E+02  0.61340591633E+02 -0.10624741674E+03  0.12701316876E+03  0.00000000000E+00 0.  1.
         12    1    6    6    0    0 -0.29107286108E+02 -0.20408586498E+00  0.44955602935E+01  0.29453112195E+02  0.00000000000E+00 0. -1.
         -5    1    3    3    0  503  0.10081256632E+02 -0.58287180293E+02 -0.34580342403E+02  0.68679816558E+02  0.47000000000E+01 0.  1.
         13    1    4    4    0    0  0.29655094620E+02 -0.78366919795E+00 -0.11597196383E+03  0.11970603648E+03  0.00000000000E+00 0. -1.
        -14    1    4    4    0    0  0.41463869761E+02  0.64503268062E+02 -0.81021212307E+02  0.11155429588E+03  0.00000000000E+00 0.  1.
</event>
<event>
12    1  0.8461994E-002  0.1871733E+03  0.7818608E-02  0.1161118E+00
         21   -1    0    0  503  502  0.00000000000E+00  0.00000000000E+00  0.99986352357E+02  0.99986352357E+02  0.00000000000E+00 0.  1.
         21   -1    0    0  501  503 -0.00000000000E+00 -0.00000000000E+00 -0.10616047436E+04  0.10616047436E+04  0.00000000000E+00 0.  1.
          6    2    1    2  501    0  0.42143291944E+02 -0.60190323712E+02 -0.95626376038E+03  0.97434121280E+03  0.17175997036E+03 0.  0.
         24    2    3    3    0    0 -0.27876007082E+02 -0.69986002944E+02 -0.55001832814E+03  0.56196262608E+03  0.87216509006E+02 0.  0.
         -6    2    1    2    0  502 -0.42143291944E+02  0.60190323712E+02 -0.53546308279E+01  0.18724988312E+03  0.17214794374E+03 0.  0.
        -24    2    5    5    0    0 -0.86685167696E+02  0.67413832997E+02 -0.24706939161E+02  0.13792687004E+03  0.79714775660E+02 0.  0.
          5    1    3    3  501    0  0.70019299026E+02  0.97956792321E+01 -0.40624543224E+03  0.41237858672E+03  0.47000000000E+01 0. -1.
        -13    1    4    4    0    0 -0.22031602889E+02  0.54326519316E+01 -0.37048411394E+02  0.43445253132E+02  0.00000000000E+00 0.  1.
         14    1    4    4    0    0 -0.58444041926E+01 -0.75418654876E+02 -0.51296991674E+03  0.51851737295E+03  0.00000000000E+00 0. -1.
         -5    1    5    5    0  502  0.44541875752E+02 -0.72235092850E+01  0.19352308333E+02  0.49323013084E+02  0.47000000000E+01 0.  1.
         13    1    6    6    0    0 -0.80122694147E+02  0.85065693145E+02 -0.21709029625E+02  0.11885747867E+03  0.00000000000E+00 0. -1.
        -14    1    6    6    0    0 -0.65624735482E+01 -0.17651860148E+02 -0.29979095363E+01  0.19069391373E+02  0.00000000000E+00 0.  1.
</event>
<event>
12    1  0.8461994E-002  0.4691863E+03  0.7818608E-02  0.1022173E+00
         21   -1    0    0  501  502  0.00000000000E+00  0.00000000000E+00  0.60031622440E+03  0.60031622440E+03  0.00000000000E+00 0. -1.
         21   -1    0    0  502  503 -0.00000000000E+00 -0.00000000000E+00 -0.36962104206E+03  0.36962104206E+03  0.00000000000E+00 0.  1.
         -6    2    1    2    0  503  0.43575117448E+03  0.84545004026E+01  0.70365138548E+02  0.47411317499E+03  0.17286261983E+03 0.  0.
        -24    2    3    3    0    0  0.37868090728E+03 -0.35799772611E+02  0.90271666254E+02  0.39905442518E+03  0.80091243364E+02 0.  0.
          6    2    1    2  501    0 -0.43575117448E+03 -0.84545004026E+01  0.16033004380E+03  0.49582409147E+03  0.17373900570E+03 0.  0.
         24    2    5    5    0    0 -0.44377324995E+03 -0.18894299592E+02  0.14199980345E+03  0.47277130828E+03  0.77827204925E+02 0.  0.
          5    1    5    5  501    0  0.80220754656E+01  0.10439799189E+02  0.18330240341E+02  0.23052783191E+02  0.47000000000E+01 0. -1.
        -13    1    6    6    0    0 -0.17353416078E+03 -0.17382874758E-01  0.16813052277E+02  0.17434673495E+03  0.00000000000E+00 0.  1.
         14    1    6    6    0    0 -0.27023908916E+03 -0.18876916717E+02  0.12518675118E+03  0.29842457333E+03  0.00000000000E+00 0. -1.
         -5    1    3    3    0  503  0.57070267197E+02  0.44254273014E+02 -0.19906527706E+02  0.75058749811E+02  0.47000000000E+01 0.  1.
         13    1    4    4    0    0  0.43021153658E+02 -0.16730830163E+02  0.35918297449E+02  0.58488156337E+02  0.00000000000E+00 0. -1.
        -14    1    4    4    0    0  0.33565975363E+03 -0.19068942448E+02  0.54353368804E+02  0.34056626884E+03  0.00000000000E+00 0.  1.
</event>
<event>
12    1  0.8461994E-002  0.2368309E+03  0.7818608E-02  0.1122103E+00
         21   -1    0    0  503  502  0.00000000000E+00  0.00000000000E+00  0.53869879468E+03  0.53869879468E+03  0.00000000000E+00 0. -1.
         21   -1    0    0  501  503 -0.00000000000E+00 -0.00000000000E+00 -0.17916107444E+03  0.17916107444E+03  0.00000000000E+00 0. -1.
          6    2    1    2  501    0  0.42549370745E+02 -0.15599553073E+03 -0.53014480449E+02  0.24269197934E+03  0.17304278991E+03 0.  0.
         24    2    3    3    0    0 -0.25450608485E+02 -0.11862342822E+03 -0.45833257356E+01  0.15110410914E+03  0.89956621376E+02 0.  0.
         -6    2    1    2    0  502 -0.42549370745E+02  0.15599553073E+03  0.41255220069E+03  0.47516788977E+03  0.17158132361E+03 0.  0.
        -24    2    5    5    0    0 -0.14211334295E+02  0.44892606724E+02  0.30199456840E+03  0.31581926539E+03  0.79522203744E+02 0.  0.
          5    1    3    3  501    0  0.67999979230E+02 -0.37372102517E+02 -0.48431154713E+02  0.91587870205E+02  0.47000000000E+01 0. -1.
        -13    1    4    4    0    0 -0.27489859821E+02 -0.65935100322E+00 -0.17224620501E+02  0.32447106006E+02  0.00000000000E+00 0.  1.
         14    1    4    4    0    0  0.20392513365E+01 -0.11796407721E+03  0.12641294766E+02  0.11865700313E+03  0.00000000000E+00 0. -1.
         -5    1    5    5    0  502 -0.28338036451E+02  0.11110292401E+03  0.11055763230E+03  0.15934862438E+03  0.47000000000E+01 0.  1.
         11    1    6    6    0    0 -0.31106232647E+02 -0.79320744936E+01  0.16370885366E+03  0.16682656947E+03  0.00000000000E+00 0. -1.
        -12    1    6    6    0    0  0.16894898352E+02  0.52824681217E+02  0.13828571474E+03  0.14899269591E+03  0.00000000000E+00 0.  1.
</event>
<event>
12    1  0.8461994E-002  0.1733833E+03  0.7818608E-02  0.1175043E+00
         21   -1    0    0  501  502  0.00000000000E+00  0.00000000000E+00  0.34446948273E+02  0.34446948273E+02  0.00000000000E+00 0. -1.
         21   -1    0    0  502  503 -0.00000000000E+00 -0.00000000000E+00 -0.30471485547E+04  0.30471485547E+04  0.00000000000E+00 0. -1.
         -6    2    1    2    0  503 -0.94156275518E+01 -0.24456785246E+02 -0.28151615087E+04  0.28204957156E+04  0.17139128766E+03 0.  0.
        -24    2    3    3    0    0 -0.17067515133E+02 -0.12086912533E+02 -0.64527322884E+03  0.65055359609E+03  0.80031543759E+02 0.  0.
          6    2    1    2  501    0  0.94156275518E+01  0.24456785246E+02 -0.19754009777E+03  0.26109978737E+03  0.16871342671E+03 0.  0.
         24    2    5    5    0    0 -0.31640130254E+02  0.66379076495E+02 -0.10117665249E+03  0.14817920759E+03  0.79454911204E+02 0.  0.
          5    1    5    5  501    0  0.41055757806E+02 -0.41922291249E+02 -0.96363445279E+02  0.11292057978E+03  0.47000000000E+01 0. -1.
        -11    1    6    6    0    0  0.61276603919E+01  0.61646335885E+02 -0.88564495612E+02  0.10808093649E+03  0.00000000000E+00 0.  1.
         12    1    6    6    0    0 -0.37767790646E+02  0.47327406109E+01 -0.12612156875E+02  0.40098271098E+02  0.00000000000E+00 0. -1.
         -5    1    3    3    0  503  0.76518875817E+01 -0.12369872713E+02 -0.21698882799E+04  0.21699421195E+04  0.47000000000E+01 0.  1.
         11    1    4    4    0    0  0.27236789437E+02 -0.20057222392E+02 -0.37856479303E+03  0.38007293694E+03  0.00000000000E+00 0. -1.
        -12    1    4    4    0    0 -0.44304304570E+02  0.79703098584E+01 -0.26670843581E+03  0.27048065915E+03  0.00000000000E+00 0.  1.
</event>
<event>
12    1  0.8461994E-002  0.2692297E+03  0.7818608E-02  0.1101946E+00
         21   -1    0    0  503  502  0.00000000000E+00  0.00000000000E+00  0.17345216264E+04  0.17345216264E+04  0.00000000000E+00 0.  1.
         21   -1    0    0  501  503 -0.00000000000E+00 -0.00000000000E+00 -0.49228594218E+02  0.49228594218E+02  0.00000000000E+00 0.  1.
          6    2    1    2  501    0 -0.20011555869E+03 -0.53466722018E+02  0.49242558624E+03  0.56121974762E+03  0.17198755752E+03 0.  0.
         24    2    3    3    0    0 -0.17871954404E+03  0.11081609222E+02  0.31236623368E+03  0.36868991369E+03  0.79348037331E+02 0.  0.
         -6    2    1    2    0  502  0.20011555869E+03  0.53466722018E+02  0.11928674460E+04  0.12225304730E+04  0.16953786193E+03 0.  0.
        -24    2    5    5    0    0  0.42717105633E+02 -0.17375758569E+01  0.26336092042E+03  0.27816494074E+03  0.78670131365E+02 0.  0.
          5    1    3    3  501    0 -0.21396014651E+02 -0.64548331240E+02  0.18005935256E+03  0.19252983393E+03  0.47000000000E+01 0. -1.
        -11    1    4    4    0    0 -0.68036231813E+02  0.15863474059E+02  0.56431099879E+02  0.89805610526E+02  0.00000000000E+00 0.  1.
         12    1    4    4    0    0 -0.11068331223E+03 -0.47818648368E+01  0.25593513380E+03  0.27888430317E+03  0.00000000000E+00 0. -1.
         -5    1    5    5    0  502  0.15739845306E+03  0.55204297875E+02  0.92950652554E+03  0.94436553227E+03  0.47000000000E+01 0.  1.
         11    1    6    6    0    0 -0.11245871329E+02  0.14100591741E+02  0.15531449816E+03  0.15635820941E+03  0.00000000000E+00 0. -1.
        -12    1    6    6    0    0  0.53962976962E+02 -0.15838167598E+02  0.10804642226E+03  0.12180673133E+03  0.00000000000E+00 0.  1.
</event>
<event>
12    1  0.8461994E-002  0.2479194E+03  0.7818608E-02  0.1114660E+00
         21   -1    0    0  503  502  0.00000000000E+00  0.00000000000E+00  0.15668502600E+03  0.15668502600E+03  0.00000000000E+00 0. -1.
         21   -1    0    0  501  503 -0.00000000000E+00 -0.00000000000E+00 -0.98773563891E+03  0.98773563891E+03  0.00000000000E+00 0.  1.
          6    2    1    2  501    0  0.15895428451E+03 -0.79953990277E+02 -0.86000267438E+03  0.89502438454E+03  0.17264108391E+03 0.  0.
         24    2    3    3    0    0  0.26205844322E+02 -0.89497281890E-01 -0.39926800908E+03  0.40891842137E+03  0.84336101284E+02 0.  0.
         -6    2    1    2    0  502 -0.15895428451E+03  0.79953990277E+02  0.28952061472E+02  0.24939628037E+03  0.17234029614E+03 0.  0.
        -24    2    5    5    0    0 -0.11947468960E+03  0.11805106360E+03  0.46628749107E+02  0.19156393046E+03  0.79449632708E+02 0.  0.
          5    1    3    3  501    0  0.13274844019E+03 -0.79864492995E+02 -0.46073466530E+03  0.48610596317E+03  0.47000000000E+01 0. -1.
        -11    1    4    4    0    0  0.13872378715E+02 -0.25625321893E+02 -0.35596728498E+03  0.35715795944E+03  0.00000000000E+00 0.  1.
         12    1    4    4    0    0  0.12333465607E+02  0.25535824611E+02 -0.43300724092E+02  0.51760461931E+02  0.00000000000E+00 0. -1.
         -5    1    5    5    0  502 -0.39479594918E+02 -0.38097073327E+02 -0.17676687635E+02  0.57832349915E+02  0.47000000000E+01 0.  1.
         13    1    6    6    0    0 -0.13085993675E+03  0.10264049833E+03  0.45235422432E+02  0.17235323724E+03  0.00000000000E+00 0. -1.
        -14    1    6    6    0    0  0.11385247154E+02  0.15410565275E+02  0.13933266751E+01  0.19210693222E+02  0.00000000000E+00 0.  1.
</event>
<event>
12    1  0.8461994E-002  0.4073817E+03  0.7818608E-02  0.1041408E+00
         21   -1    0    0  503  502  0.00000000000E+00  0.00000000000E+00  0.15474315117E+03  0.15474315117E+03  0.00000000000E+00 0. -1.
         21   -1    0    0  501  503 -0.00000000000E+00 -0.00000000000E+00 -0.18865650632E+04  0.18865650632E+04  0.00000000000E+00 0. -1.
          6    2    1    2  501    0 -0.32460441665E+03 -0.17694058731E+03 -0.15372479465E+04  0.15898451717E+04  0.16673458643E+03 0.  0.
         24    2    3    3    0    0 -0.13384851488E+03 -0.39268033840E+02 -0.44748023185E+03  0.47496521948E+03  0.76785404868E+02 0.  0.
         -6    2    1    2    0  502  0.32460441665E+03  0.17694058731E+03 -0.19457396553E+03  0.45146304263E+03  0.17112525255E+03 0.  0.
        -24    2    5    5    0    0  0.31533591400E+03  0.19572357042E+03 -0.16251825873E+03  0.41288372261E+03  0.79475337669E+02 0.  0.
          5    1    3    3  501    0 -0.19075590176E+03 -0.13767255347E+03 -0.10897677147E+04  0.11148799523E+04  0.47000000000E+01 0. -1.
        -13    1    4    4    0    0 -0.13839166348E+03 -0.26501088980E+02 -0.43196213807E+03  0.45436312456E+03  0.00000000000E+00 0.  1.
         14    1    4    4    0    0  0.45431486025E+01 -0.12766944861E+02 -0.15518093785E+02  0.20602094918E+02  0.00000000000E+00 0. -1.
         -5    1    5    5    0  502  0.92685026458E+01 -0.18782983104E+02 -0.32055706797E+02  0.38579320028E+02  0.47000000000E+01 0.  1.
         13    1    6    6    0    0  0.97888078388E+02  0.53228566087E+02 -0.89298367386E+02  0.14279199752E+03  0.00000000000E+00 0. -1.
        -14    1    6    6    0    0  0.21744783561E+03  0.14249500433E+03 -0.73219891344E+02  0.27009172508E+03  0.00000000000E+00 0.  1.
</event>
<event>
12    1  0.8461994E-002  0.2293069E+03  0.7818608E-02  0.1127162E+00
         21   -1    0    0  503  502  0.00000000000E+00  0.00000000000E+00  0.28348313456E+03  0.28348313456E+03  0.00000000000E+00 0. -1.
         21   -1    0    0  501  503 -0.00000000000E+00 -0.00000000000E+00 -0.22963789034E+03  0.22963789034E+03  0.00000000000E+00 0.  1.
          6    2    1    2  501    0 -0.10873363434E+03 -0.10643370912E+03  0.13962700362E+03  0.26847223309E+03  0.17155320495E+03 0.  0.
         24    2    3    3    0    0 -0.91716184927E+02 -0.62385340583E+02  0.16495371273E+03  0.21468204300E+03  0.81085528593E+02 0.  0.
         -6    2    1    2    0  502  0.10873363434E+03  0.10643370912E+03 -0.85781759393E+02  0.24464879181E+03  0.17129910512E+03 0.  0.
        -24    2    5    5    0    0  0.12572443749E+03  0.31319927807E+02 -0.58182590401E+02  0.16270630183E+03  0.79376033977E+02 0.  0.
          5    1    3    3  501    0 -0.17017449416E+02 -0.44048368533E+02 -0.25326709113E+02  0.53790190086E+02  0.47000000000E+01 0. -1.
        -13    1    4    4    0    0 -0.72236810699E+02 -0.36607262174E+01  0.11156977114E+03  0.13296379797E+03  0.00000000000E+00 0.  1.
         14    1    4    4    0    0 -0.19479374228E+02 -0.58724614366E+02  0.53383941590E+02  0.81718245040E+02  0.00000000000E+00 0. -1.
         -5    1    5    5    0  502 -0.16990803149E+02  0.75113781309E+02 -0.27599168992E+02  0.81942489975E+02  0.47000000000E+01 0.  1.
         13    1    6    6    0    0  0.50803928330E+02  0.18757645727E+02  0.16058210640E+02  0.56486764254E+02  0.00000000000E+00 0. -1.
        -14    1    6    6    0    0  0.74920509162E+02  0.12562282079E+02 -0.74240801041E+02  0.10621953758E+03  0.00000000000E+00 0.  1.
</event>
<event>
12    1  0.8461994E-002  0.2024559E+03  0.7818608E-02  0.1148033E+00
         21   -1    0    0  501  502  0.00000000000E+00  0.00000000000E+00  0.17792365610E+04  0.17792365610E+04  0.00000000000E+00 0.  1.
         21   -1    0    0  502  503 -0.00000000000E+00 -0.00000000000E+00 -0.26186263251E+02  0.26186263251E+02  0.00000000000E+00 0.  1.
         -6    2    1    2    0  503 -0.50524687226E+02 -0.92570718312E+02  0.55096344946E+03  0.58640634903E+03  0.17084964628E+03 0.  0.
        -24    2    3    3    0    0  0.26591880774E+02 -0.17910116468E+02  0.16811173953E+03  0.18876493730E+03  0.79641347243E+02 0.  0.
          6    2    1    2  501    0  0.50524687226E+02  0.92570718312E+02  0.12020868483E+04  0.12190164752E+04  0.17281867412E+03 0.  0.
         24    2    5    5    0    0  0.93007346443E+02  0.10124083323E+03  0.97684106444E+03  0.98958740041E+03  0.78515508462E+02 0.  0.
          5    1    5    5  501    0 -0.42482659217E+02 -0.86701149200E+01  0.22524578387E+03  0.22942907483E+03  0.47000000000E+01 0. -1.
        -11    1    6    6    0    0  0.35630751782E+02  0.86220259960E+02  0.46079029565E+03  0.47013953276E+03  0.00000000000E+00 0.  1.
         12    1    6    6    0    0  0.57376594660E+02  0.15020573272E+02  0.51605076878E+03  0.51944786764E+03  0.00000000000E+00 0. -1.
         -5    1    3    3    0  503 -0.77116568000E+02 -0.74660601844E+02  0.38285170993E+03  0.39764141174E+03  0.47000000000E+01 0.  1.
         11    1    4    4    0    0  0.10561472666E+02  0.14445561790E+02  0.14453914467E+03  0.14564265619E+03  0.00000000000E+00 0. -1.
        -12    1    4    4    0    0  0.16030408107E+02 -0.32355678257E+02  0.23572594860E+02  0.43122281109E+02  0.00000000000E+00 0.  1.
</event>
<event>
12    1  0.8461994E-002  0.1797387E+03  0.7818608E-02  0.1168662E+00
         21   -1    0    0  503  502  0.00000000000E+00  0.00000000000E+00  0.70708770145E+03  0.70708770145E+03  0.00000000000E+00 0.  1.
         21   -1    0    0  501  503 -0.00000000000E+00 -0.00000000000E+00 -0.10563814463E+03  0.10563814463E+03  0.00000000000E+00 0.  1.
          6    2    1    2  501    0  0.50395422333E+02  0.14493912629E+02 -0.61042764341E+01  0.17984231405E+03  0.17191923579E+03 0.  0.
         24    2    3    3    0    0  0.31842091616E+02  0.23905639138E+02 -0.67927298889E+02  0.11444366894E+03  0.83053218145E+02 0.  0.
         -6    2    1    2    0  502 -0.50395422333E+02 -0.14493912629E+02  0.60755383325E+03  0.63288353203E+03  0.16932257000E+03 0.  0.
        -24    2    5    5    0    0 -0.85774343341E+02  0.25566819287E+02  0.35175561842E+03  0.37151913696E+03  0.79268870411E+02 0.  0.
          5    1    3    3  501    0  0.18553330717E+02 -0.94117265084E+01  0.61823022455E+02  0.65398645109E+02  0.47000000000E+01 0. -1.
        -13    1    4    4    0    0  0.44608132358E+02 -0.16579950885E+02 -0.23788493534E+02  0.53204066277E+02  0.00000000000E+00 0.  1.
         14    1    4    4    0    0 -0.12766040742E+02  0.40485590023E+02 -0.44138805356E+02  0.61239602660E+02  0.00000000000E+00 0. -1.
         -5    1    5    5    0  502  0.35378921007E+02 -0.40060731917E+02  0.25579821484E+03  0.26136439506E+03  0.47000000000E+01 0.  1.
         13    1    6    6    0    0 -0.22607475303E+02  0.46048210665E+02  0.18634886984E+03  0.19328072055E+03  0.00000000000E+00 0. -1.
        -14    1    6    6    0    0 -0.63166868038E+02 -0.20481391378E+02  0.16540674858E+03  0.17823841641E+03  0.00000000000E+00 0.  1.
</event>
<event>
12    1  0.8461994E-002  0.1781889E+03  0.7818608E-02  0.1169935E+00
         21   -1    0    0  503  502  0.00000000000E+00  0.00000000000E+00  0.13199950157E+03  0.13199950157E+03  0.00000000000E+00 0.  1.
         21   -1    0    0  501  503 -0.00000000000E+00 -0.00000000000E+00 -0.27411780078E+03  0.27411780078E+03  0.00000000000E+00 0.  1.
          6    2    1    2  501    0 -0.48018040050E+02  0.10194646576E+02 -0.14448328805E+03  0.22940511661E+03  0.17129396958E+03 0.  0.
         24    2    3    3    0    0 -0.11710920019E+02 -0.59895153942E+01 -0.25732272517E+01  0.81957873781E+02  0.80854509050E+02 0.  0.
         -6    2    1    2    0  502  0.48018040050E+02 -0.10194646576E+02  0.23649888344E+01  0.17671218574E+03  0.16974080366E+03 0.  0.
        -24    2    5    5    0    0  0.12942559284E+02  0.59138544642E+02  0.28887642650E+02  0.94475199407E+02  0.66529618231E+02 0.  0.
          5    1    3    3  501    0 -0.36307120031E+02  0.16184161970E+02 -0.14191006079E+03  0.14744724283E+03  0.47000000000E+01 0. -1.
        -11    1    4    4    0    0 -0.21025218654E+02  0.15249817361E+02 -0.34071517272E+02  0.42842561061E+02  0.00000000000E+00 0.  1.
         12    1    4    4    0    0  0.93142986342E+01 -0.21239332756E+02  0.31498290021E+02  0.39115312720E+02  0.00000000000E+00 0. -1.
         -5    1    5    5    0  502  0.35075480767E+02 -0.69333191219E+02 -0.26522653815E+02  0.82236986332E+02  0.47000000000E+01 0.  1.
         13    1    6    6    0    0 -0.17073571352E+02 -0.61040000657E+01  0.55510840572E+01  0.18962599762E+02  0.00000000000E+00 0. -1.
        -14    1    6    6    0    0  0.30016130635E+02  0.65242544708E+02  0.23336558592E+02  0.75512599646E+02  0.00000000000E+00 0.  1.
</event>
<event>
12    1  0.8461994E-002  0.2059600E+03  0.7818608E-02  0.1144855E+00
         21   -1    0    0  503  502  0.00000000000E+00  0.00000000000E+00  0.16334171532E+03  0.16334171532E+03  0.00000000000E+00 0.  1.
         21   -1    0    0  501  503 -0.00000000000E+00 -0.00000000000E+00 -0.29250269761E+03  0.29250269761E+03  0.00000000000E+00 0.  1.
          6    2    1    2  501    0 -0.91720865066E+00  0.11267056904E+03 -0.14130053534E+03  0.24977066097E+03  0.17240662225E+03 0.  0.
         24    2    3    3    0    0 -0.27371851614E+02  0.73357766546E+02 -0.16353702375E+03  0.19721691714E+03  0.77585914281E+02 0.  0.
         -6    2    1    2    0  502  0.91720865066E+00 -0.11267056904E+03  0.12139553057E+02  0.20607375196E+03  0.17211485729E+03 0.  0.
        -24    2    5    5    0    0  0.42935561656E+02 -0.18147452689E+02 -0.24590987890E+02  0.96203900996E+02  0.80484044305E+02 0.  0.
          5    1    3    3  501    0  0.26454642963E+02  0.39312802492E+02  0.22236488408E+02  0.52553743832E+02  0.47000000000E+01 0. -1.
        -13    1    4    4    0    0  0.17097000054E+02  0.41347909203E+02 -0.32846169019E+02  0.55505205392E+02  0.00000000000E+00 0.  1.
         14    1    4    4    0    0 -0.44468851668E+02  0.32009857342E+02 -0.13069085473E+03  0.14171171174E+03  0.00000000000E+00 0. -1.
         -5    1    5    5    0  502 -0.42018353005E+02 -0.94523116348E+02  0.36730540947E+02  0.10986985097E+03  0.47000000000E+01 0.  1.
         11    1    6    6    0    0  0.46223769449E+02 -0.45503100007E+02 -0.22162685036E+02  0.68544537203E+02  0.00000000000E+00 0. -1.
        -12    1    6    6    0    0 -0.32882077932E+01  0.27355647318E+02 -0.24283028539E+01  0.27659363793E+02  0.00000000000E+00 0.  1.
</event>
<event>
12    1  0.8461994E-002  0.2012586E+03  0.7818608E-02  0.1149105E+00
         21   -1    0    0  503  502  0.00000000000E+00  0.00000000000E+00  0.12387777716E+04  0.12387777716E+04  0.00000000000E+00 0. -1.
         21   -1    0    0  501  503 -0.00000000000E+00 -0.00000000000E+00 -0.65280409306E+02  0.65280409306E+02  0.00000000000E+00 0. -1.
          6    2    1    2  501    0 -0.90324433038E+01 -0.10731658677E+03  0.12234198925E+03  0.23380930382E+03  0.16763291261E+03 0.  0.
         24    2    3    3    0    0  0.15488181786E+02 -0.99680382205E+02  0.22956219947E+02  0.13105136586E+03  0.80445074970E+02 0.  0.
         -6    2    1    2    0  502  0.90324433038E+01  0.10731658677E+03  0.10511553731E+04  0.10702488771E+04  0.17001942769E+03 0.  0.
        -24    2    5    5    0    0  0.24953404393E+02  0.94924595549E+02  0.10378026775E+04  0.10456029256E+04  0.81349427567E+02 0.  0.
          5    1    3    3  501    0 -0.24520625090E+02 -0.76362045649E+01  0.99385769299E+02  0.10275793796E+03  0.47000000000E+01 0. -1.
        -13    1    4    4    0    0 -0.42756174805E+01  0.12978320262E+02 -0.24554927109E+01  0.13883340596E+02  0.00000000000E+00 0.  1.
         14    1    4    4    0    0  0.19763799267E+02 -0.11265870247E+03  0.25411712658E+02  0.11716802526E+03  0.00000000000E+00 0. -1.
         -5    1    5    5    0  502 -0.15920961089E+02  0.12391991221E+02  0.13352695640E+02  0.24645951579E+02  0.47000000000E+01 0.  1.
         11    1    6    6    0    0 -0.50118627218E+01  0.86747184267E+01  0.50028793925E+03  0.50038824094E+03  0.00000000000E+00 0. -1.
        -12    1    6    6    0    0  0.29965267114E+02  0.86249877123E+02  0.53751473820E+03  0.54521468461E+03  0.00000000000E+00 0.  1.
</event>
<event>
12    1  0.8461994E-002  0.1932314E+03  0.7818608E-02  0.1155732E+00
         21   -1    0    0  501  502  0.00000000000E+00  0.00000000000E+00  0.24887208360E+03  0.24887208360E+03  0.00000000000E+00 0. -1.
         21   -1    0    0  502  503 -0.00000000000E+00 -0.00000000000E+00 -0.24611438112E+03  0.24611438112E+03  0.00000000000E+00 0.  1.
         -6    2    1    2    0  503  0.85749266138E+02 -0.13189479051E+02 -0.15369438424E+03  0.24635896838E+03  0.17188332832E+03 0.  0.
        -24    2    3    3    0    0  0.10131326257E+03 -0.41395363648E+02 -0.16339531031E+03  0.21238827694E+03  0.80204734570E+02 0.  0.
          6    2    1    2  501    0 -0.85749266138E+02  0.13189479051E+02  0.15645208673E+03  0.24862749634E+03  0.17266000548E+03 0.  0.
         24    2    5    5    0    0 -0.65247922291E+02 -0.85831618452E+01  0.18057719222E+02  0.10696083142E+03  0.82362468422E+02 0.  0.
          5    1    5    5  501    0 -0.20501343847E+02  0.21772640896E+02  0.13839436751E+03  0.14166666492E+03  0.47000000000E+01 0. -1.
        -11    1    6    6    0    0  0.14590711343E+02  0.16219156630E+02  0.42308711835E+01  0.22222739935E+02  0.00000000000E+00 0.  1.
         12    1    6    6    0    0 -0.79838633633E+02 -0.24802318475E+02  0.13826848039E+02  0.84738091487E+02  0.00000000000E+00 0. -1.
         -5    1    3    3    0  503 -0.15563996429E+02  0.28205884597E+02  0.97009260610E+01  0.33970691444E+02  0.47000000000E+01 0.  1.
         11    1    4    4    0    0  0.24630226894E+02 -0.49357129084E+02 -0.92238050068E+02  0.10747386728E+03  0.00000000000E+00 0. -1.
        -12    1    4    4    0    0  0.76683035674E+02  0.79617654358E+01 -0.71157260237E+02  0.10491440966E+03  0.00000000000E+00 0.  1.
</event>
<event>
12    1  0.8461994E-002  0.1830647E+03  0.7818608E-02  0.1164916E+00
         21   -1    0    0  501  502  0.00000000000E+00  0.00000000000E+00  0.73892100305E+02  0.73892100305E+02  0.00000000000E+00 0. -1.
         21   -1    0    0  502  503 -0.00000000000E+00 -0.00000000000E+00 -0.75199478088E+03  0.75199478088E+03  0.00000000000E+00 0. -1.
         -6    2    1    2    0  503  0.43307719635E+02 -0.47444981050E+02 -0.59930462465E+03  0.62658357285E+03  0.17121435636E+03 0.  0.
        -24    2    3    3    0    0 -0.11305328091E+02 -0.64084708896E+02 -0.23443143875E+03  0.25724091716E+03  0.83547170063E+02 0.  0.
          6    2    1    2  501    0 -0.43307719635E+02  0.47444981050E+02 -0.78798055919E+02  0.19930330833E+03  0.17142371566E+03 0.  0.
         24    2    5    5    0    0  0.35174718656E+02  0.80666935240E+01 -0.67898443592E+02  0.11069724648E+03  0.79632589803E+02 0.  0.
          5    1    5    5  501    0 -0.78482438291E+02  0.39378287526E+02 -0.10899612326E+02  0.88606061855E+02  0.47000000000E+01 0. -1.
        -11    1    6    6    0    0 -0.89551729803E+01 -0.83339843114E+01 -0.62063998084E+02  0.63258124188E+02  0.00000000000E+00 0.  1.
         12    1    6    6    0    0  0.44129891636E+02  0.16400677835E+02 -0.58344455078E+01  0.47439122290E+02  0.00000000000E+00 0. -1.
         -5    1    3    3    0  503  0.54613047726E+02  0.16639727846E+02 -0.36487318590E+03  0.36934265569E+03  0.47000000000E+01 0.  1.
         13    1    4    4    0    0  0.32652289787E+02 -0.70732983258E+01 -0.86342538524E+02  0.92580978264E+02  0.00000000000E+00 0. -1.
        -14    1    4    4    0    0 -0.43957617877E+02 -0.57011410570E+02 -0.14808890023E+03  0.16465993889E+03  0.00000000000E+00 0.  1.
</event>
<event>
12    1  0.8461994E-002  0.2202762E+03  0.7818608E-02  0.1133700E+00
         21   -1    0    0  503  502  0.00000000000E+00  0.00000000000E+00  0.12981816304E+03  0.12981816304E+03  0.00000000000E+00 0.  1.
         21   -1    0    0  501  503 -0.00000000000E+00 -0.00000000000E+00 -0.65956782683E+03  0.65956782683E+03  0.00000000000E+00 0. -1.
          6    2    1    2  501    0 -0.94208471269E+02 -0.99898263826E+02 -0.52474138490E+03  0.56905281953E+03  0.17208338448E+03 0.  0.
         24    2    3    3    0    0 -0.11335281713E+03 -0.51534783017E+02 -0.25712115056E+03  0.29638413397E+03  0.78914978274E+02 0.  0.
         -6    2    1    2    0  502  0.94208471269E+02  0.99898263826E+02 -0.50082788950E+01  0.22033317033E+03  0.17224030863E+03 0.  0.
        -24    2    5    5    0    0  0.11171474695E+03  0.24270468603E+02 -0.11842140709E+02  0.14226381165E+03  0.83842205821E+02 0.  0.
          5    1    3    3  501    0  0.19144345859E+02 -0.48363480808E+02 -0.26762023434E+03  0.27266868555E+03  0.47000000000E+01 0. -1.
        -13    1    4    4    0    0 -0.87433800802E+02 -0.71501243495E+02 -0.21681336330E+03  0.24446908158E+03  0.00000000000E+00 0.  1.
         14    1    4    4    0    0 -0.25919016326E+02  0.19966460477E+02 -0.40307787259E+02  0.51915052394E+02  0.00000000000E+00 0. -1.
         -5    1    5    5    0  502 -0.17506275677E+02  0.75627795223E+02  0.68338618138E+01  0.78069358686E+02  0.47000000000E+01 0.  1.
         13    1    6    6    0    0  0.16176283511E+02  0.41622545881E+02 -0.28296054910E+01  0.44745001297E+02  0.00000000000E+00 0. -1.
        -14    1    6    6    0    0  0.95538463435E+02 -0.17352077278E+02 -0.90125352178E+01  0.97518810352E+02  0.00000000000E+00 0.  1.
</event>
<event>
12    1  0.8461994E-002  0.2189584E+03  0.7818608E-02  0.1134723E+00
         21   -1    0    0  503  502  0.00000000000E+00  0.00000000000E+00  0.19123739824E+03  0.19123739824E+03  0.00000000000E+00 0. -1.
         21   -1    0    0  501  503 -0.00000000000E+00 -0.00000000000E+00 -0.82756673504E+03  0.82756673504E+03  0.00000000000E+00 0. -1.
          6    2    1    2  501    0  0.58707701566E+01 -0.13508292076E+03 -0.74367623369E+03  0.77524004591E+03  0.17222347927E+03 0.  0.
         24    2    3    3    0    0 -0.51202671060E+02 -0.28717140338E+02 -0.30600839917E+03  0.32120669878E+03  0.78014199390E+02 0.  0.
         -6    2    1    2    0  502 -0.58707701566E+01  0.13508292076E+03  0.10734689688E+03  0.24356408737E+03  0.17180875112E+03 0.  0.
        -24    2    5    5    0    0 -0.36161975314E+02  0.82869216915E+01  0.35632460195E+02  0.94702296034E+02  0.79514093876E+02 0.  0.
          5    1    3    3  501    0  0.57073441217E+02 -0.10636578042E+03 -0.43766783452E+03  0.45403334714E+03  0.47000000000E+01 0. -1.
        -13    1    4    4    0    0  0.51441003844E+01  0.15142305365E+02 -0.16325752481E+02  0.22853476204E+02  0.00000000000E+00 0.  1.
         14    1    4    4    0    0 -0.56346771444E+02 -0.43859445703E+02 -0.28968264669E+03  0.29835322257E+03  0.00000000000E+00 0. -1.
         -5    1    5    5    0  502  0.30291205157E+02  0.12679599907E+03  0.71714436685E+02  0.14886179133E+03  0.47000000000E+01 0.  1.
         13    1    6    6    0    0 -0.24398037770E+02  0.15673674696E+02  0.60007502957E+02  0.66647045971E+02  0.00000000000E+00 0. -1.
        -14    1    6    6    0    0 -0.11763937544E+02 -0.73867530050E+01 -0.24375042762E+02  0.28055250064E+02  0.00000000000E+00 0.  1.
</event>
<event>
12    1  0.8461994E-002  0.1895666E+03  0.7818608E-02  0.1159329E+00
         21   -1    0    0  503  502  0.00000000000E+00  0.00000000000E+00  0.11196264948E+03  0.11196264948E+03  0.00000000000E+00 0.  1.
         21   -1    0    0  501  503 -0.00000000000E+00 -0.00000000000E+00 -0.31757375441E+03  0.31757375441E+03  0.00000000000E+00 0.  1.
          6    2    1    2  501    0  0.69548496111E+02  0.34208739719E+02 -0.10684784855E+03  0.21578499734E+03  0.17070287388E+03 0.  0.
         24    2    3    3    0    0  0.76121729997E+02  0.65754361562E+02 -0.12294460456E+03  0.17945967263E+03  0.83499966862E+02 0.  0.
         -6    2    1    2    0  502 -0.69548496111E+02 -0.34208739719E+02 -0.98763256384E+02  0.21375140655E+03  0.17299783758E+03 0.  0.
        -24    2    5    5    0    0 -0.10231433851E+03 -0.59168587595E+02 -0.53225413184E+02  0.15216910717E+03  0.79707885085E+02 0.  0.
          5    1    3    3  501    0 -0.65732338858E+01 -0.31545621843E+02  0.16096756010E+02  0.36325324709E+02  0.47000000000E+01 0. -1.
        -11    1    4    4    0    0  0.67095249889E+02  0.15580392061E+02 -0.33704129352E+02  0.76684349836E+02  0.00000000000E+00 0.  1.
         12    1    4    4    0    0  0.90264801074E+01  0.50173969501E+02 -0.89240475213E+02  0.10277532279E+03  0.00000000000E+00 0. -1.
         -5    1    5    5    0  502  0.32765842401E+02  0.24959847876E+02 -0.45537843200E+02  0.61582299385E+02  0.47000000000E+01 0.  1.
         11    1    6    6    0    0 -0.20692008608E+02  0.11496655199E+02 -0.35639262136E+02  0.42784217962E+02  0.00000000000E+00 0. -1.
        -12    1    6    6    0    0 -0.81622329903E+02 -0.70665242794E+02 -0.17586151047E+02  0.10938488921E+03  0.00000000000E+00 0.  1.
</event>
<event>
12    1  0.8461994E-002  0.2732851E+03  0.7818608E-02  0.1099664E+00
         21   -1    0    0  501  502  0.00000000000E+00  0.00000000000E+00  0.11189978931E+04  0.11189978931E+04  0.00000000000E+00 0.  1.
         21   -1    0    0  502  503 -0.00000000000E+00 -0.00000000000E+00 -0.80293053963E+02  0.80293053963E+02  0.00000000000E+00 0. -1.
         -6    2    1    2    0  503 -0.12750056635E+02  0.21034083887E+03  0.77097606998E+03  0.81797851362E+03  0.17400837862E+03 0.  0.
        -24    2    3    3    0    0 -0.26754974142E+02  0.83017664626E+02  0.19600800243E+03  0.22889643351E+03  0.79791471816E+02 0.  0.
          6    2    1    2  501    0  0.12750056635E+02 -0.21034083887E+03  0.26772876918E+03  0.38131243346E+03  0.17121520266E+03 0.  0.
         24    2    5    5    0    0 -0.54434916593E+02 -0.72009028760E+02  0.15658651193E+03  0.19151200758E+03  0.63317082702E+02 0.  0.
          5    1    5    5  501    0  0.67184973228E+02 -0.13833181011E+03  0.11114225725E+03  0.18980042588E+03  0.47000000000E+01 0. -1.
        -11    1    6    6    0    0 -0.24654965313E+02  0.44563518727E+01  0.58413413367E+02  0.63559839897E+02  0.00000000000E+00 0.  1.
         12    1    6    6    0    0 -0.29779951280E+02 -0.76465380633E+02  0.98173098565E+02  0.12795216769E+03  0.00000000000E+00 0. -1.
         -5    1    3    3    0  503  0.14004917507E+02  0.12732317425E+03  0.57496806754E+03  0.58908208011E+03  0.47000000000E+01 0.  1.
         13    1    4    4    0    0  0.19572284425E+01 -0.15061157919E+02  0.17209826181E+02  0.22953155300E+02  0.00000000000E+00 0. -1.
        -14    1    4    4    0    0 -0.28712202585E+02  0.98078822545E+02  0.17879817625E+03  0.20594327821E+03  0.00000000000E+00 0.  1.
</event>
<event>
12    1  0.8461994E-002  0.1994304E+03  0.7818608E-02  0.1150232E+00
         21   -1    0    0  503  502  0.00000000000E+00  0.00000000000E+00  0.19851081905E+02  0.19851081905E+02  0.00000000000E+00 0.  1.
         21   -1    0    0  501  503 -0.00000000000E+00 -0.00000000000E+00 -0.31263617316E+04  0.31263617316E+04  0.00000000000E+00 0.  1.
          6    2    1    2  501    0  0.64492154157E+02 -0.76608532325E+02 -0.24960900056E+04  0.25040400541E+04  0.17240409369E+03 0.  0.
         24    2    3    3    0    0  0.80008010430E+02 -0.99748229980E+02 -0.23714536971E+04  0.23762414360E+04  0.79873234226E+02 0.  0.
         -6    2    1    2    0  502 -0.64492154157E+02  0.76608532325E+02 -0.61042064406E+03  0.64217275933E+03  0.17246560513E+03 0.  0.
        -24    2    5    5    0    0 -0.17059902074E+02 -0.57516980407E+01 -0.43572064969E+03  0.44323758367E+03  0.79265053560E+02 0.  0.
          5    1    3    3  501    0 -0.15515856273E+02  0.23139697655E+02 -0.12463630853E+03  0.12779861817E+03  0.47000000000E+01 0. -1.
        -11    1    4    4    0    0  0.50811009200E+02 -0.83196861630E+01 -0.10797876812E+04  0.10810145291E+04  0.00000000000E+00 0.  1.
         12    1    4    4    0    0  0.29197001230E+02 -0.91428543817E+02 -0.12916660159E+04  0.12952269068E+04  0.00000000000E+00 0. -1.
         -5    1    5    5    0  502 -0.47432252083E+02  0.82360230366E+02 -0.17469999437E+03  0.19893517566E+03  0.47000000000E+01 0.  1.
         13    1    6    6    0    0 -0.27589201911E+01 -0.21747362639E+02 -0.31106260237E+02  0.38054682344E+02  0.00000000000E+00 0. -1.
        -14    1    6    6    0    0 -0.14300981883E+02  0.15995664598E+02 -0.40461438946E+03  0.40518290132E+03  0.00000000000E+00 0.  1.
</event>
<event>
12    1  0.8461994E-002  0.1970221E+03  0.7818608E-02  0.1152286E+00
         21   -1    0    0  503  502  0.00000000000E+00  0.00000000000E+00  0.98570683009E+03  0.98570683009E+03  0.00000000000E+00 0.  1.
         21   -1    0    0  501  503 -0.00000000000E+00 -0.00000000000E+00 -0.51363209040E+02  0.51363209040E+02  0.00000000000E+00 0.  1.
          6    2    1    2  501    0  0.62553733105E+02  0.72731451210E+02  0.21657964826E+03  0.29275638165E+03  0.17203697695E+03 0.  0.
         24    2    3    3    0    0  0.93948593571E+02  0.84691195232E+02  0.21059758985E+03  0.25831007904E+03  0.79836177887E+02 0.  0.
         -6    2    1    2    0  502 -0.62553733105E+02 -0.72731451210E+02  0.71776397279E+03  0.74431365748E+03  0.17208970497E+03 0.  0.
        -24    2    5    5    0    0 -0.35793993444E+01  0.26126406595E+01  0.50251806010E+03  0.50871315418E+03  0.79025530845E+02 0.  0.
          5    1    3    3  501    0 -0.31394860466E+02 -0.11959744022E+02  0.59820584114E+01  0.34446302611E+02  0.47000000000E+01 0. -1.
        -13    1    4    4    0    0  0.49763251593E+02  0.73723921125E+02  0.78661493006E+02  0.11874017112E+03  0.00000000000E+00 0.  1.
         14    1    4    4    0    0  0.44185341978E+02  0.10967274107E+02  0.13193609685E+03  0.13956990793E+03  0.00000000000E+00 0. -1.
         -5    1    5    5    0  502 -0.58974333761E+02 -0.75344091869E+02  0.21524591269E+03  0.23560050329E+03  0.47000000000E+01 0.  1.
         11    1    6    6    0    0  0.26378919105E+02 -0.15684488904E+02  0.98435652371E+02  0.10310881739E+03  0.00000000000E+00 0. -1.
        -12    1    6    6    0    0 -0.29958318449E+02  0.18297129564E+02  0.40408240773E+03  0.40560433680E+03  0.00000000000E+00 0.  1.
</event>
<event>
12    1  0.8461994E-002  0.2017564E+03  0.7818608E-02  0.1149514E+00
         21   -1    0    0  503  502  0.00000000000E+00  0.00000000000E+00  0.89807037315E+03  0.89807037315E+03  0.00000000000E+00 0.  1.
         21   -1    0    0  501  503 -0.00000000000E+00 -0.00000000000E+00 -0.46677749194E+02  0.46677749194E+02  0.00000000000E+00 0.  1.
          6    2    1    2  501    0  0.64267682800E+02  0.81437718289E+02  0.30685880819E+03  0.36403931607E+03  0.16613205131E+03 0.  0.
         24    2    3    3    0    0 -0.13215713420E+02  0.55472807425E+02  0.93750711283E+02  0.13575220682E+03  0.79922326947E+02 0.  0.
         -6    2    1    2    0  502 -0.64267682800E+02 -0.81437718289E+02  0.54453381577E+03  0.58070880627E+03  0.17304104760E+03 0.  0.
        -24    2    5    5    0    0 -0.63129960497E+02 -0.57248564211E+02  0.17546290069E+03  0.21081444305E+03  0.79954423662E+02 0.  0.
          5    1    3    3  501    0  0.77483396220E+02  0.25964910864E+02  0.21310809690E+03  0.22828710925E+03  0.47000000000E+01 0. -1.
        -13    1    4    4    0    0  0.47053109720E+01  0.72824366896E+02  0.74050793517E+02  0.10396657341E+03  0.00000000000E+00 0.  1.
         14    1    4    4    0    0 -0.17921024392E+02 -0.17351559471E+02  0.19699917766E+02  0.31785633411E+02  0.00000000000E+00 0. -1.
         -5    1    5    5    0  502 -0.11377223033E+01 -0.24189154078E+02  0.36907091508E+03  0.36989436323E+03  0.47000000000E+01 0.  1.
         13    1    6    6    0    0 -0.26434266611E+02 -0.66081115902E+02  0.74525808252E+02  0.10305134849E+03  0.00000000000E+00 0. -1.
        -14    1    6    6    0    0 -0.36695693886E+02  0.88325516909E+01  0.10093709244E+03  0.10776309456E+03  0.00000000000E+00 0.  1.
</event>
<event>
12    1  0.8461994E-002  0.2155622E+03  0.7818608E-02  0.1137362E+00
         21   -1    0    0  503  502  0.00000000000E+00  0.00000000000E+00  0.43252458811E+02  0.43252458811E+02  0.00000000000E+00 0.  1.
         21   -1    0    0  501  503 -0.00000000000E+00 -0.00000000000E+00 -0.11395482859E+04  0.11395482859E+04  0.00000000000E+00 0. -1.
          6    2    1    2  501    0 -0.38209968349E+02 -0.12326110480E+03 -0.40236348769E+03  0.45615836455E+03  0.17184520851E+03 0.  0.
         24    2    3    3    0    0 -0.88436107719E+02 -0.81978861011E+02 -0.23086351499E+03  0.27268842324E+03  0.80743636382E+02 0.  0.
         -6    2    1    2    0  502  0.38209968349E+02  0.12326110480E+03 -0.69393233939E+03  0.72664238015E+03  0.17266660169E+03 0.  0.
        -24    2    5    5    0    0  0.40352145096E+02  0.13529382256E+03 -0.39229970064E+03  0.42472564663E+03  0.80994479734E+02 0.  0.
          5    1    3    3  501    0  0.50226139370E+02 -0.41282243786E+02 -0.17149997270E+03  0.18346994131E+03  0.47000000000E+01 0. -1.
        -13    1    4    4    0    0 -0.69564919003E+02 -0.10134308897E+02 -0.10049408086E+03  0.12264192783E+03  0.00000000000E+00 0.  1.
         14    1    4    4    0    0 -0.18871188716E+02 -0.71844552114E+02 -0.13036943412E+03  0.15004649541E+03  0.00000000000E+00 0. -1.
         -5    1    5    5    0  502 -0.21421767470E+01 -0.12032717764E+02 -0.30163263875E+03  0.30191673352E+03  0.47000000000E+01 0.  1.
         11    1    6    6    0    0  0.22302373460E+02  0.74608442552E+02 -0.31661792083E+03  0.32605325232E+03  0.00000000000E+00 0. -1.
        -12    1    6    6    0    0  0.18049771636E+02  0.60685380008E+02 -0.75681779816E+02  0.98672394310E+02  0.00000000000E+00 0.  1.
</event>
<event>
12    1  0.8461994E-002  0.2549650E+03  0.7818608E-02  0.1110691E+00
         21   -1    0    0  503  502  0.00000000000E+00  0.00000000000E+00  0.36015276812E+03  0.36015276812E+03  0.00000000000E+00 0.  1.
         21   -1    0    0  501  503 -0.00000000000E+00 -0.00000000000E+00 -0.25852286352E+03  0.25852286352E+03  0.00000000000E+00 0. -1.
          6    2    1    2  501    0 -0.18799713572E+03 -0.93369239828E+01 -0.12172550825E+03  0.27971431168E+03  0.16731077554E+03 0.  0.
         24    2    3    3    0    0 -0.15637716388E+03 -0.38208109506E+02 -0.36306024556E+02  0.18404850709E+03  0.81498763974E+02 0.  0.
         -6    2    1    2    0  502  0.18799713572E+03  0.93369239828E+01  0.22335541286E+03  0.33896131996E+03  0.17197975110E+03 0.  0.
        -24    2    5    5    0    0  0.54094842341E+02  0.24009432426E+02  0.27795137470E+02  0.10145128231E+03  0.77569892365E+02 0.  0.
          5    1    3    3  501    0 -0.31619971838E+02  0.28871185524E+02 -0.85419483699E+02  0.95665804590E+02  0.47000000000E+01 0. -1.
        -11    1    4    4    0    0 -0.69214528789E+02 -0.31736443123E+02  0.21668078146E+02  0.79166649721E+02  0.00000000000E+00 0.  1.
         12    1    4    4    0    0 -0.87162635088E+02 -0.64716663832E+01 -0.57974102702E+02  0.10488185737E+03  0.00000000000E+00 0. -1.
         -5    1    5    5    0  502  0.13390229337E+03 -0.14672508444E+02  0.19556027539E+03  0.23751003765E+03  0.47000000000E+01 0.  1.
         13    1    6    6    0    0  0.49691586413E+02  0.44734715051E+02  0.45605388892E+00  0.66862967898E+02  0.00000000000E+00 0. -1.
        -14    1    6    6    0    0  0.44032559279E+01 -0.20725282625E+02  0.27339083581E+02  0.34588314410E+02  0.00000000000E+00 0.  1.
</event>
<event>
12    1  0.8461994E-002  0.1753950E+03  0.7818608E-02  0.1172760E+00
         21   -1    0    0  503  502  0.00000000000E+00  0.00000000000E+00  0.42268292326E+02  0.42268292326E+02  0.00000000000E+00 0.  1.
         21   -1    0    0  501  503 -0.00000000000E+00 -0.00000000000E+00 -0.73149458763E+03  0.73149458763E+03  0.00000000000E+00 0.  1.
          6    2    1    2  501    0 -0.15158287445E+02 -0.20517804530E+02 -0.29955551298E+03  0.34712665930E+03  0.17352999238E+03 0.  0.
         24    2    3    3    0    0 -0.46213803211E+02  0.30838590024E+02 -0.25397271895E+03  0.27161635912E+03  0.78654754019E+02 0.  0.
         -6    2    1    2    0  502  0.15158287445E+02  0.20517804530E+02 -0.38967078232E+03  0.42663622065E+03  0.17182663414E+03 0.  0.
        -24    2    5    5    0    0  0.46575050455E+02  0.52701516417E+02 -0.35189234660E+03  0.36771165435E+03  0.80230617547E+02 0.  0.
          5    1    3    3  501    0  0.31055515765E+02 -0.51356394555E+02 -0.45582794034E+02  0.75510300178E+02  0.47000000000E+01 0. -1.
        -13    1    4    4    0    0  0.21023857458E+02  0.15954216339E+02 -0.89451948556E+02  0.93264091171E+02  0.00000000000E+00 0.  1.
         14    1    4    4    0    0 -0.67237660669E+02  0.14884373686E+02 -0.16452077039E+03  0.17835226795E+03  0.00000000000E+00 0. -1.
         -5    1    5    5    0  502 -0.31416763010E+02 -0.32183711887E+02 -0.37778435723E+02  0.58924566307E+02  0.47000000000E+01 0.  1.
         13    1    6    6    0    0  0.63564002299E+02  0.30126023098E+02 -0.17551893101E+03  0.18908954175E+03  0.00000000000E+00 0. -1.
        -14    1    6    6    0    0 -0.16988951844E+02  0.22575493319E+02 -0.17637341558E+03  0.17862211260E+03  0.00000000000E+00 0.  1.
</event>
<event>
12    1  0.8461994E-002  0.2304365E+03  0.7818608E-02  0.1126367E+00
         21   -1    0    0  501  502  0.00000000000E+00  0.00000000000E+00  0.40372725950E+02  0.40372725950E+02  0.00000000000E+00 0.  1.
         21   -1    0    0  502  503 -0.00000000000E+00 -0.00000000000E+00 -0.15303501203E+04  0.15303501203E+04  0.00000000000E+00 0.  1.
         -6    2    1    2    0  503 -0.12984517428E+02 -0.15298247211E+03 -0.44954281659E+03  0.50507510735E+03  0.17158055148E+03 0.  0.
        -24    2    3    3    0    0 -0.34092758807E+02 -0.16693919322E+03 -0.29963604659E+03  0.35297488509E+03  0.76016436731E+02 0.  0.
          6    2    1    2  501    0  0.12984517428E+02  0.15298247211E+03 -0.10404345778E+04  0.10656477389E+04  0.17183933883E+03 0.  0.
         24    2    5    5    0    0 -0.33733121299E+02  0.16001993370E+03 -0.77474621903E+03  0.79575061481E+03  0.79012874943E+02 0.  0.
          5    1    5    5  501    0  0.46717638727E+02 -0.70374615846E+01 -0.26568835874E+03  0.26989712411E+03  0.47000000000E+01 0. -1.
        -13    1    6    6    0    0  0.46095216083E+01  0.77889117386E+02 -0.50962475811E+03  0.51556314490E+03  0.00000000000E+00 0.  1.
         14    1    6    6    0    0 -0.38342642907E+02  0.82130816309E+02 -0.26512146092E+03  0.28018746991E+03  0.00000000000E+00 0. -1.
         -5    1    3    3    0  503  0.21108241379E+02  0.13956721108E+02 -0.14990677000E+03  0.15210022225E+03  0.47000000000E+01 0.  1.
         11    1    4    4    0    0  0.86808364884E+01 -0.17074106929E+02 -0.88497349473E+02  0.90546468254E+02  0.00000000000E+00 0. -1.
        -12    1    4    4    0    0 -0.42773595295E+02 -0.14986508629E+03 -0.21113869712E+03  0.26242841684E+03  0.00000000000E+00 0.  1.
</event>
<event>
12    1  0.8461994E-002  0.1758301E+03  0.7818608E-02  0.1171937E+00
         21   -1    0    0  501  502  0.00000000000E+00  0.00000000000E+00  0.36546624078E+02  0.36546624078E+02  0.00000000000E+00 0.  1.
         21   -1    0    0  502  503 -0.00000000000E+00 -0.00000000000E+00 -0.84853946181E+03  0.84853946181E+03  0.00000000000E+00 0.  1.
         -6    2    1    2    0  503 -0.15473432498E+02  0.32332017069E+02 -0.43343255992E+03  0.46768445886E+03  0.17198890259E+03 0.  0.
        -24    2    3    3    0    0  0.49415335605E+02 -0.10014944661E+02 -0.22091004773E+03  0.24142857367E+03  0.83332661581E+02 0.  0.
          6    2    1    2  501    0  0.15473432498E+02 -0.32332017069E+02 -0.37856027781E+03  0.41740162703E+03  0.17213787460E+03 0.  0.
         24    2    5    5    0    0 -0.43516055153E+01  0.31383719382E+02 -0.10960441103E+03  0.14025171186E+03  0.81569243284E+02 0.  0.
          5    1    5    5  501    0  0.19825038013E+02 -0.63715736451E+02 -0.26895586678E+03  0.27714991517E+03  0.47000000000E+01 0. -1.
        -11    1    6    6    0    0 -0.10699028538E+02 -0.22574487660E+02 -0.10229706928E+02  0.26994881155E+02  0.00000000000E+00 0.  1.
         12    1    6    6    0    0  0.63474230227E+01  0.53958207042E+02 -0.99374704103E+02  0.11325683071E+03  0.00000000000E+00 0. -1.
         -5    1    3    3    0  503 -0.64888768103E+02  0.42346961730E+02 -0.21252251219E+03  0.22625588519E+03  0.47000000000E+01 0.  1.
         11    1    4    4    0    0 -0.10397323824E+02 -0.17549184747E+02 -0.11294393481E+02  0.23316122149E+02  0.00000000000E+00 0. -1.
        -12    1    4    4    0    0  0.59812659429E+02  0.75342400854E+01 -0.20961565425E+03  0.21811245152E+03  0.00000000000E+00 0.  1.
</event>
<event>
12    1  0.8461994E-002  0.1794824E+03  0.7818608E-02  0.1169202E+00
         21   -1    0    0  503  502  0.00000000000E+00  0.00000000000E+00  0.86830668431E+03  0.86830668431E+03  0.00000000000E+00 0.  1.
         21   -1    0    0  501  503 -0.00000000000E+00 -0.00000000000E+00 -0.73949954235E+02  0.73949954235E+02  0.00000000000E+00 0.  1.
          6    2    1    2  501    0  0.11596756536E+02  0.48258584697E+02  0.63244974285E+02  0.19029941152E+03  0.17248351658E+03 0.  0.
         24    2    3    3    0    0 -0.19048604027E+02 -0.54272999704E+01  0.90194645204E+02  0.12269995073E+03  0.80795414382E+02 0.  0.
         -6    2    1    2    0  502 -0.11596756536E+02 -0.48258584697E+02  0.73111175579E+03  0.75195722703E+03  0.16867689842E+03 0.  0.
        -24    2    5    5    0    0 -0.46045750882E+02  0.72427496796E+01  0.57791370621E+03  0.58534731218E+03  0.80464622389E+02 0.  0.
          5    1    3    3  501    0  0.30645360563E+02  0.53685884668E+02 -0.26949670919E+02  0.67599460791E+02  0.47000000000E+01 0. -1.
        -13    1    4    4    0    0 -0.18342231874E+02  0.30732397041E+02  0.14136155389E+02  0.38480496192E+02  0.00000000000E+00 0.  1.
         14    1    4    4    0    0 -0.70637215271E+00 -0.36159697011E+02  0.76058489815E+02  0.84219454537E+02  0.00000000000E+00 0. -1.
         -5    1    5    5    0  502  0.34448994346E+02 -0.55501334377E+02  0.15319804959E+03  0.16660991485E+03  0.47000000000E+01 0.  1.
         11    1    6    6    0    0 -0.18935730417E+02 -0.34018727542E+02  0.16700291702E+03  0.17148122347E+03  0.00000000000E+00 0. -1.
        -12    1    6    6    0    0 -0.27110020465E+02  0.41261477222E+02  0.41091078919E+03  0.41386608871E+03  0.00000000000E+00 0.  1.
</event>
<event>
12    1  0.8461994E-002  0.1945918E+03  0.7818608E-02  0.1154393E+00
         21   -1    0    0  503  502  0.00000000000E+00  0.00000000000E+00  0.55277009300E+02  0.55277009300E+02  0.00000000000E+00 0.  1.
         21   -1    0    0  501  503 -0.00000000000E+00 -0.00000000000E+00 -0.74702862728E+03  0.74702862728E+03  0.00000000000E+00 0. -1.
          6    2    1    2  501    0 -0.65303241724E+02 -0.64859243140E+02 -0.46155389287E+03  0.50088074098E+03  0.17140095057E+03 0.  0.
         24    2    3    3    0    0 -0.65801008009E+02 -0.80478943923E+02 -0.21116384841E+03  0.24995946410E+03  0.84160143462E+02 0.  0.
         -6    2    1    2    0  502  0.65303241724E+02  0.64859243140E+02 -0.23019772511E+03  0.30142489561E+03  0.17144894355E+03 0.  0.
        -24    2    5    5    0    0 -0.22192682216E+02  0.67052132374E+02 -0.13649077768E+03  0.17311500719E+03  0.79690461926E+02 0.  0.
          5    1    3    3  501    0  0.49776628492E+00  0.15619700783E+02 -0.25039004447E+03  0.25092127688E+03  0.47000000000E+01 0. -1.
        -11    1    4    4    0    0 -0.33431895349E+02  0.24511424889E+01 -0.11100422683E+03  0.11595532804E+03  0.00000000000E+00 0.  1.
         12    1    4    4    0    0 -0.32369112660E+02 -0.82930086412E+02 -0.10015962158E+03  0.13400413606E+03  0.00000000000E+00 0. -1.
         -5    1    5    5    0  502  0.87495923940E+02 -0.21928892341E+01 -0.93706947426E+02  0.12830988842E+03  0.47000000000E+01 0.  1.
         13    1    6    6    0    0 -0.39524118919E+02  0.18720346596E+02 -0.25013284153E+02  0.50381263751E+02  0.00000000000E+00 0. -1.
        -14    1    6    6    0    0  0.17331436703E+02  0.48331785778E+02 -0.11147749353E+03  0.12273374344E+03  0.00000000000E+00 0.  1.
</event>
<event>
12    1  0.8461994E-002  0.2253943E+03  0.7818608E-02  0.1129947E+00
         21   -1    0    0  503  502  0.00000000000E+00  0.00000000000E+00  0.10382218195E+03  0.10382218195E+03  0.00000000000E+00 0.  1.
         21   -1    0    0  501  503 -0.00000000000E+00 -0.00000000000E+00 -0.92537058277E+03  0.92537058277E+03  0.00000000000E+00 0.  1.
          6    2    1    2  501    0 -0.92604983625E+02 -0.11316661428E+03 -0.76418906649E+03  0.79673555299E+03  0.17152331175E+03 0.  0.
         24    2    3    3    0    0 -0.10833893078E+03 -0.13353864596E+03 -0.72530699951E+03  0.74986891346E+03  0.81628732342E+02 0.  0.
         -6    2    1    2    0  502  0.92604983625E+02  0.11316661428E+03 -0.57359334333E+02  0.23245721173E+03  0.17135896963E+03 0.  0.
        -24    2    5    5    0    0  0.68357984908E+02  0.21725023658E+02 -0.81962403624E+02  0.13459566433E+03  0.79078230217E+02 0.  0.
          5    1    3    3  501    0  0.15733947158E+02  0.20372031684E+02 -0.38882066978E+02  0.46866639528E+02  0.47000000000E+01 0. -1.
        -11    1    4    4    0    0 -0.30379802894E+02 -0.54929479636E+01 -0.23884510899E+03  0.24083208048E+03  0.00000000000E+00 0.  1.
         12    1    4    4    0    0 -0.77959127889E+02 -0.12804569800E+03 -0.48646189052E+03  0.50903683298E+03  0.00000000000E+00 0. -1.
         -5    1    5    5    0  502  0.24246998717E+02  0.91441590621E+02  0.24603069290E+02  0.97861547405E+02  0.47000000000E+01 0.  1.
         13    1    6    6    0    0  0.56490783786E+02  0.50252169164E+02 -0.53859199526E+02  0.92829427081E+02  0.00000000000E+00 0. -1.
        -14    1    6    6    0    0  0.11867201122E+02 -0.28527145506E+02 -0.28103204097E+02  0.41766237246E+02  0.00000000000E+00 0.  1.
</event>
<event>
12    1  0.8461994E-002  0.2713009E+03  0.7818608E-02  0.1100773E+00
         21   -1    0    0  503  502  0.00000000000E+00  0.00000000000E+00  0.63631118766E+02  0.63631118766E+02  0.00000000000E+00 0. -1.
         21   -1    0    0  501  503 -0.00000000000E+00 -0.00000000000E+00 -0.14864726794E+04  0.14864726794E+04  0.00000000000E+00 0. -1.
          6    2    1    2  501    0  0.18745686599E+03  0.89602232491E+02 -0.34083243492E+03  0.43460036153E+03  0.17187812214E+03 0.  0.
         24    2    3    3    0    0  0.54810087258E+02  0.32799535351E+02 -0.23225747147E+03  0.25395616151E+03  0.80437825256E+02 0.  0.
         -6    2    1    2    0  502 -0.18745686599E+03 -0.89602232491E+02 -0.10820091257E+04  0.11155034366E+04  0.17445782403E+03 0.  0.
        -24    2    5    5    0    0 -0.11596317500E+03  0.16139527007E+02 -0.63530480668E+03  0.65089660695E+03  0.79663374665E+02 0.  0.
          5    1    3    3  501    0  0.13264677873E+03  0.56802697139E+02 -0.10857496345E+03  0.18064420001E+03  0.47000000000E+01 0. -1.
        -13    1    4    4    0    0  0.26768330533E+02 -0.18581444757E+02 -0.14680436359E+03  0.15037730806E+03  0.00000000000E+00 0.  1.
         14    1    4    4    0    0  0.28041756725E+02  0.51380980108E+02 -0.85453107877E+02  0.10357885345E+03  0.00000000000E+00 0. -1.
         -5    1    5    5    0  502 -0.71493690985E+02 -0.10574175950E+03 -0.44670431900E+03  0.46460682966E+03  0.47000000000E+01 0.  1.
         13    1    6    6    0    0 -0.97078635894E+02 -0.21506421038E+02 -0.45506960489E+03  0.46580589626E+03  0.00000000000E+00 0. -1.
        -14    1    6    6    0    0 -0.18884539109E+02  0.37645948045E+02 -0.18023520179E+03  0.18509071069E+03  0.00000000000E+00 0.  1.
</event>
<event>
12    1  0.8461994E-002  0.1952912E+03  0.7818608E-02  0.1154526E+00
         21   -1    0    0  501  502  0.00000000000E+00  0.00000000000E+00  0.16308028470E+04  0.16308028470E+04  0.00000000000E+00 0.  1.
         21   -1    0    0  502  503 -0.00000000000E+00 -0.00000000000E+00 -0.68384389145E+02  0.68384389145E+02  0.00000000000E+00 0.  1.
         -6    2    1    2    0  503 -0.36887400468E+02  0.82975586030E+02  0.86602039420E+02  0.21050568176E+03  0.16901804825E+03 0.  0.
        -24    2    3    3    0    0  0.12806514076E+01  0.43820369137E+02 -0.16228198858E+02  0.93946344522E+02  0.81490468103E+02 0.  0.
          6    2    1    2  501    0  0.36887400468E+02 -0.82975586030E+02  0.14758164185E+04  0.14886815544E+04  0.17289604172E+03 0.  0.
         24    2    5    5    0    0  0.45948479587E+02 -0.10302026954E+02  0.11887909842E+04  0.11924228174E+04  0.80192124251E+02 0.  0.
          5    1    5    5  501    0 -0.90610791193E+01 -0.72673559076E+02  0.28702543426E+03  0.29625873701E+03  0.47000000000E+01 0. -1.
        -13    1    6    6    0    0  0.68834099918E+02 -0.68723927703E+01  0.82404827767E+03  0.82694674981E+03  0.00000000000E+00 0.  1.
         14    1    6    6    0    0 -0.22885620331E+02 -0.34296341841E+01  0.36474270654E+03  0.36547606759E+03  0.00000000000E+00 0. -1.
         -5    1    3    3    0  503 -0.38168051875E+02  0.39155216893E+02  0.10283023828E+03  0.11655933724E+03  0.47000000000E+01 0.  1.
         13    1    4    4    0    0  0.35780782384E+02  0.59064477521E+01 -0.21912074499E+02  0.42370856988E+02  0.00000000000E+00 0. -1.
        -14    1    4    4    0    0 -0.34500130976E+02  0.37913921385E+02  0.56838756407E+01  0.51575487535E+02  0.00000000000E+00 0.  1.
</event>
<event>
12    1  0.8461994E-002  0.6430081E+03  0.7818608E-02  0.9821346E-01
         21   -1    0    0  503  502  0.00000000000E+00  0.00000000000E+00  0.65701777561E+03  0.65701777561E+03  0.00000000000E+00 0. -1.
         21   -1    0    0  501  503 -0.00000000000E+00 -0.00000000000E+00 -0.82135109144E+03  0.82135109144E+03  0.00000000000E+00 0. -1.
          6    2    1    2  501    0 -0.34588889093E+03  0.51296507336E+03 -0.44232476067E+03  0.78045541550E+03  0.17517753943E+03 0.  0.
         24    2    3    3    0    0 -0.28617107396E+03  0.42505845366E+03 -0.42927016745E+03  0.67328124018E+03  0.80412555694E+02 0.  0.
         -6    2    1    2    0  502  0.34588889093E+03 -0.51296507336E+03  0.27799144484E+03  0.69791345155E+03  0.16441305024E+03 0.  0.
        -24    2    5    5    0    0  0.35771206332E+03 -0.47475516727E+03  0.26434178979E+03  0.65539066457E+03  0.79435208094E+02 0.  0.
          5    1    3    3  501    0 -0.59717816970E+02  0.87906619709E+02 -0.13054593216E+02  0.10717417532E+03  0.47000000000E+01 0. -1.
        -13    1    4    4    0    0 -0.13897078301E+03  0.27690633975E+03 -0.25380050349E+03  0.40050554939E+03  0.00000000000E+00 0.  1.
         14    1    4    4    0    0 -0.14720029095E+03  0.14815211391E+03 -0.17546966396E+03  0.27277569078E+03  0.00000000000E+00 0. -1.
         -5    1    5    5    0  502 -0.11823172392E+02 -0.38209906098E+02  0.13649655054E+02  0.42522786979E+02  0.47000000000E+01 0.  1.
         11    1    6    6    0    0  0.23257577683E+03 -0.31595771983E+03  0.13282858371E+03  0.41420309673E+03  0.00000000000E+00 0. -1.
        -12    1    6    6    0    0  0.12513628649E+03 -0.15879744744E+03  0.13151320607E+03  0.24118756784E+03  0.00000000000E+00 0.  1.
</event>
<event>
12    1  0.8461994E-002  0.1822507E+03  0.7818608E-02  0.1165797E+00
         21   -1    0    0  503  502  0.00000000000E+00  0.00000000000E+00  0.21341569559E+03  0.21341569559E+03  0.00000000000E+00 0. -1.
         21   -1    0    0  501  503 -0.00000000000E+00 -0.00000000000E+00 -0.17592865970E+03  0.17592865970E+03  0.00000000000E+00 0. -1.
          6    2    1    2  501    0  0.29129053074E+02 -0.52851625290E+02 -0.48294263897E+02  0.18791505178E+03  0.17128320038E+03 0.  0.
         24    2    3    3    0    0  0.32405181293E+02 -0.21759493401E+02 -0.96209699344E+02  0.13050919289E+03  0.79074470295E+02 0.  0.
         -6    2    1    2    0  502 -0.29129053074E+02  0.52851625290E+02  0.85781299788E+02  0.20142930351E+03  0.17196958129E+03 0.  0.
        -24    2    5    5    0    0 -0.91824563777E+01  0.10144274457E+03  0.56499261860E+02  0.14110939520E+03  0.79653919496E+02 0.  0.
          5    1    3    3  501    0 -0.32761282195E+01 -0.31092131889E+02  0.47915435447E+02  0.57405858896E+02  0.47000000000E+01 0. -1.
        -13    1    4    4    0    0  0.54356238595E+02 -0.32696444727E+02 -0.73468828651E+02  0.97063520209E+02  0.00000000000E+00 0.  1.
         14    1    4    4    0    0 -0.21951057302E+02  0.10936951326E+02 -0.22740870693E+02  0.33445672678E+02  0.00000000000E+00 0. -1.
         -5    1    5    5    0  502 -0.19946596696E+02 -0.48591119283E+02  0.29282037928E+02  0.60319908307E+02  0.47000000000E+01 0.  1.
         11    1    6    6    0    0  0.27307142535E+02  0.81637287397E+02  0.27142631730E+02  0.90261005890E+02  0.00000000000E+00 0. -1.
        -12    1    6    6    0    0 -0.36489598913E+02  0.19805457176E+02  0.29356630130E+02  0.50848389309E+02  0.00000000000E+00 0.  1.
</event>
<event>
12    1  0.8461994E-002  0.2083054E+03  0.7818608E-02  0.1142953E+00
         21   -1    0    0  503  502  0.00000000000E+00  0.00000000000E+00  0.48008764480E+02  0.48008764480E+02  0.00000000000E+00 0. -1.
         21   -1    0    0  501  503 -0.00000000000E+00 -0.00000000000E+00 -0.94009000244E+03  0.94009000244E+03  0.00000000000E+00 0. -1.
          6    2    1    2  501    0 -0.11667514272E+03 -0.29525931371E+00 -0.54398572198E+03  0.58243682332E+03  0.17233401097E+03 0.  0.
         24    2    3    3    0    0 -0.10893760540E+03 -0.58945525012E+02 -0.35525549914E+03  0.38459620524E+03  0.79785929997E+02 0.  0.
         -6    2    1    2    0  502  0.11667514272E+03  0.29525931371E+00 -0.34809551598E+03  0.40566194360E+03  0.17256288167E+03 0.  0.
        -24    2    5    5    0    0  0.10214656479E+03  0.23658501871E+02 -0.13070103276E+03  0.18648308509E+03  0.81850691217E+02 0.  0.
          5    1    3    3  501    0 -0.77375373201E+01  0.58650265698E+02 -0.18873022284E+03  0.19784061808E+03  0.47000000000E+01 0. -1.
        -13    1    4    4    0    0 -0.41411843537E+02 -0.63267623886E+02 -0.23169488840E+03  0.24372167390E+03  0.00000000000E+00 0.  1.
         14    1    4    4    0    0 -0.67525761862E+02  0.43220988734E+01 -0.12356061074E+03  0.14087453134E+03  0.00000000000E+00 0. -1.
         -5    1    5    5    0  502  0.14528577926E+02 -0.23363242557E+02 -0.21739448322E+03  0.21917885850E+03  0.47000000000E+01 0.  1.
         11    1    6    6    0    0  0.48679376022E+02  0.50139656715E+02 -0.91326077579E+02  0.11499617068E+03  0.00000000000E+00 0. -1.
        -12    1    6    6    0    0  0.53467188772E+02 -0.26481154844E+02 -0.39374955177E+02  0.71486914413E+02  0.00000000000E+00 0.  1.
</event>
<event>
12    1  0.8461994E-002  0.2211158E+03  0.7818608E-02  0.1133094E+00
         21   -1    0    0  501  502  0.00000000000E+00  0.00000000000E+00  0.43216034385E+03  0.43216034385E+03  0.00000000000E+00 0.  1.
         21   -1    0    0  502  503 -0.00000000000E+00 -0.00000000000E+00 -0.12526413055E+03  0.12526413055E+03  0.00000000000E+00 0. -1.
         -6    2    1    2    0  503 -0.12814490773E+03 -0.51716692934E+02  0.66258994958E+02  0.23062411356E+03  0.17234121282E+03 0.  0.
        -24    2    3    3    0    0 -0.59110279781E+02 -0.24199362241E+02 -0.34727738877E+02  0.10515143225E+03  0.75968240391E+02 0.  0.
          6    2    1    2  501    0  0.12814490773E+03  0.51716692934E+02  0.24063721834E+03  0.32680036084E+03  0.17261654408E+03 0.  0.
         24    2    5    5    0    0  0.12320263030E+03 -0.11872509146E+00  0.23074886032E+03  0.27359127992E+03  0.80176366241E+02 0.  0.
          5    1    5    5  501    0  0.49422774362E+01  0.51835418026E+02  0.98883580245E+01  0.53209080922E+02  0.47000000000E+01 0. -1.
        -11    1    6    6    0    0  0.37229405696E+02  0.37768292038E+02  0.81742877901E+02  0.97439061056E+02  0.00000000000E+00 0.  1.
         12    1    6    6    0    0  0.85973224602E+02 -0.37887017130E+02  0.14900598241E+03  0.17615221886E+03  0.00000000000E+00 0. -1.
         -5    1    3    3    0  503 -0.69034627953E+02 -0.27517330693E+02  0.10098673383E+03  0.12547268131E+03  0.47000000000E+01 0.  1.
         11    1    4    4    0    0 -0.32016294091E+02 -0.36237574734E+01  0.21992257239E+02  0.39010691919E+02  0.00000000000E+00 0. -1.
        -12    1    4    4    0    0 -0.27093985690E+02 -0.20575604768E+02 -0.56719996116E+02  0.66140740331E+02  0.00000000000E+00 0.  1.
</event>
<event>
12    1  0.8461994E-002  0.3537977E+03  0.7818608E-02  0.1061215E+00
         21   -1    0    0  501  502  0.00000000000E+00  0.00000000000E+00  0.84094009587E+03  0.84094009587E+03  0.00000000000E+00 0. -1.
         21   -1    0    0  502  503 -0.00000000000E+00 -0.00000000000E+00 -0.14833823229E+03  0.14833823229E+03  0.00000000000E+00 0.  1.
         -6    2    1    2    0  503  0.69180927279E+02 -0.30104328795E+03  0.35867024072E+03  0.50277742066E+03  0.16949256982E+03 0.  0.
        -24    2    3    3    0    0  0.69454482542E+02 -0.31578600172E+03  0.35469969246E+03  0.48680000862E+03  0.81348955319E+02 0.  0.
          6    2    1    2  501    0 -0.69180927279E+02  0.30104328795E+03  0.33393162286E+03  0.48650090751E+03  0.17251012242E+03 0.  0.
         24    2    5    5    0    0 -0.13073591292E+02  0.19523686945E+03  0.12479849863E+03  0.24545778896E+03  0.79915623737E+02 0.  0.
          5    1    5    5  501    0 -0.56107335987E+02  0.10580641849E+03  0.20913312424E+03  0.24104311855E+03  0.47000000000E+01 0. -1.
        -13    1    6    6    0    0 -0.45937265042E+02  0.13694261637E+03  0.85846190685E+02  0.16802702447E+03  0.00000000000E+00 0.  1.
         14    1    6    6    0    0  0.32863673750E+02  0.58294253086E+02  0.38952307941E+02  0.77430764488E+02  0.00000000000E+00 0. -1.
         -5    1    3    3    0  503 -0.27355526265E+00  0.14742713772E+02  0.39705482592E+01  0.15977412035E+02  0.47000000000E+01 0.  1.
         13    1    4    4    0    0  0.16783003880E+02 -0.19737585883E+03  0.25711319775E+03  0.32457063226E+03  0.00000000000E+00 0. -1.
        -14    1    4    4    0    0  0.52671478662E+02 -0.11841014290E+03  0.97586494713E+02  0.16222937636E+03  0.00000000000E+00 0.  1.
</event>
<event>
12    1  0.8461994E-002  0.4260480E+03  0.7818608E-02  0.1035185E+00
         21   -1    0    0  503  502  0.00000000000E+00  0.00000000000E+00  0.36038230238E+03  0.36038230238E+03  0.00000000000E+00 0.  1.
         21   -1    0    0  501  503 -0.00000000000E+00 -0.00000000000E+00 -0.59435344947E+03  0.59435344947E+03  0.00000000000E+00 0. -1.
          6    2    1    2  501    0  0.20135098497E+03  0.33316992075E+03  0.70418053650E+02  0.43182819219E+03  0.17312559038E+03 0.  0.
         24    2    3    3    0    0  0.16873176021E+03  0.16358584119E+03  0.85102861760E+01  0.24831406320E+03  0.79729007703E+02 0.  0.
         -6    2    1    2    0  502 -0.20135098497E+03 -0.33316992075E+03 -0.30438920073E+03  0.52290755966E+03  0.17098279207E+03 0.  0.
        -24    2    5    5    0    0 -0.85831291144E+02 -0.26326714803E+03 -0.18322354073E+03  0.34142917401E+03  0.79538752905E+02 0.  0.
          5    1    3    3  501    0  0.32619224759E+02  0.16958407957E+03  0.61907767474E+02  0.18351412899E+03  0.47000000000E+01 0. -1.
        -11    1    4    4    0    0  0.93495887482E+02  0.70828211089E+02  0.41479630539E+02  0.12441332811E+03  0.00000000000E+00 0.  1.
         12    1    4    4    0    0  0.75235872729E+02  0.92757630099E+02 -0.32969344363E+02  0.12390073508E+03  0.00000000000E+00 0. -1.
         -5    1    5    5    0  502 -0.11551969383E+03 -0.69902772726E+02 -0.12116566000E+03  0.18147838566E+03  0.47000000000E+01 0.  1.
         11    1    6    6    0    0 -0.47377051133E+01 -0.20730702443E+00 -0.21809780559E+02  0.22319394122E+02  0.00000000000E+00 0. -1.
        -12    1    6    6    0    0 -0.81093586031E+02 -0.26305984100E+03 -0.16141376017E+03  0.31910977988E+03  0.00000000000E+00 0.  1.
</event>
<event>
12    1  0.8461994E-002  0.2048822E+03  0.7818608E-02  0.1145976E+00
         21   -1    0    0  503  502  0.00000000000E+00  0.00000000000E+00  0.10563214741E+03  0.10563214741E+03  0.00000000000E+00 0.  1.
         21   -1    0    0  501  503 -0.00000000000E+00 -0.00000000000E+00 -0.75554698702E+03  0.75554698702E+03  0.00000000000E+00 0. -1.
          6    2    1    2  501    0  0.10138160942E+03 -0.39621311141E+02 -0.62314869224E+03  0.65596570601E+03  0.17357602310E+03 0.  0.
         24    2    3    3    0    0  0.32132506121E+02 -0.51730496470E+02 -0.52899163370E+03  0.53836590860E+03  0.79354652091E+02 0.  0.
         -6    2    1    2    0  502 -0.10138160942E+03  0.39621311141E+02 -0.26766147361E+02  0.20521342842E+03  0.17189544942E+03 0.  0.
        -24    2    5    5    0    0 -0.12603257992E+03 -0.10927824009E+02 -0.19873256603E+02  0.14835846070E+03  0.74911000490E+02 0.  0.
          5    1    3    3  501    0  0.69249103298E+02  0.12109185329E+02 -0.94157058543E+02  0.11759979741E+03  0.47000000000E+01 0. -1.
        -11    1    4    4    0    0 -0.22486123932E+02 -0.89022212828E+01 -0.67873504825E+02  0.72053368904E+02  0.00000000000E+00 0.  1.
         12    1    4    4    0    0  0.54618630053E+02 -0.42828275187E+02 -0.46111812887E+03  0.46631253970E+03  0.00000000000E+00 0. -1.
         -5    1    5    5    0  502  0.24650970500E+02  0.50549135150E+02 -0.68928907581E+01  0.56854967716E+02  0.47000000000E+01 0.  1.
         11    1    6    6    0    0 -0.35830077592E+02 -0.10980903691E+02 -0.41174346798E+02  0.55674963317E+02  0.00000000000E+00 0. -1.
        -12    1    6    6    0    0 -0.90202502327E+02  0.53079682620E-01  0.21301090195E+02  0.92683497382E+02  0.00000000000E+00 0.  1.
</event>
<event>
12    1  0.8461994E-002  0.1783366E+03  0.7818608E-02  0.1169617E+00
         21   -1    0    0  501  502  0.00000000000E+00  0.00000000000E+00  0.16219853878E+03  0.16219853878E+03  0.00000000000E+00 0.  1.
         21   -1    0    0  502  503 -0.00000000000E+00 -0.00000000000E+00 -0.25612226233E+03  0.25612226233E+03  0.00000000000E+00 0.  1.
         -6    2    1    2    0  503  0.41243932535E+02 -0.41875126916E+01 -0.14904274757E+03  0.23241705286E+03  0.17345128602E+03 0.  0.
        -24    2    3    3    0    0 -0.17826398954E+02 -0.51778078870E+02 -0.93556953056E+02  0.13831641819E+03  0.85905635006E+02 0.  0.
          6    2    1    2  501    0 -0.41243932535E+02  0.41875126916E+01  0.55119024022E+02  0.18590374826E+03  0.17263690096E+03 0.  0.
         24    2    5    5    0    0 -0.21232821192E+02  0.64187839294E+02  0.63125856778E+02  0.12197657766E+03  0.79514151536E+02 0.  0.
          5    1    5    5  501    0 -0.20011111343E+02 -0.60000326603E+02 -0.80068327561E+01  0.63927170596E+02  0.47000000000E+01 0. -1.
        -13    1    6    6    0    0 -0.37887636197E+02  0.16912636664E+01  0.12803923958E+02  0.40028412636E+02  0.00000000000E+00 0.  1.
         14    1    6    6    0    0  0.16654815005E+02  0.62496575628E+02  0.50321932820E+02  0.81948165024E+02  0.00000000000E+00 0. -1.
         -5    1    3    3    0  503  0.59070331489E+02  0.47590566179E+02 -0.55485794510E+02  0.94100634662E+02  0.47000000000E+01 0.  1.
         11    1    4    4    0    0  0.22097668258E+02 -0.55784988914E+02 -0.68260841176E+02  0.90883520885E+02  0.00000000000E+00 0. -1.
        -12    1    4    4    0    0 -0.39924067211E+02  0.40069100436E+01 -0.25296111880E+02  0.47432897308E+02  0.00000000000E+00 0.  1.
</event>
<event>
12    1  0.8461994E-002  0.1766957E+03  0.7818608E-02  0.1171281E+00
         21   -1    0    0  503  502  0.00000000000E+00  0.00000000000E+00  0.93304739847E+03  0.93304739847E+03  0.00000000000E+00 0. -1.
         21   -1    0    0  501  503 -0.00000000000E+00 -0.00000000000E+00 -0.51488619591E+02  0.51488619591E+02  0.00000000000E+00 0. -1.
          6    2    1    2  501    0  0.39827928954E+02 -0.32631861527E+01  0.14880839495E+03  0.23100929966E+03  0.17211753488E+03 0.  0.
         24    2    3    3    0    0  0.50457379228E+01 -0.61354405244E+01  0.53278781491E+01  0.83270342847E+02  0.82719167130E+02 0.  0.
         -6    2    1    2    0  502 -0.39827928954E+02  0.32631861527E+01  0.73275038392E+03  0.75352671840E+03  0.17112123741E+03 0.  0.
        -24    2    5    5    0    0 -0.10884847144E+02 -0.75923752084E+01  0.70921351173E+03  0.71439080714E+03  0.84819196243E+02 0.  0.
          5    1    3    3  501    0  0.34782191031E+02  0.28722543717E+01  0.14348051681E+03  0.14773895682E+03  0.47000000000E+01 0. -1.
        -11    1    4    4    0    0 -0.16776475392E+02 -0.15826077156E+02  0.37004105133E+02  0.43602965971E+02  0.00000000000E+00 0.  1.
         12    1    4    4    0    0  0.21822213315E+02  0.96906366319E+01 -0.31676226984E+02  0.39667376876E+02  0.00000000000E+00 0. -1.
         -5    1    5    5    0  502 -0.28943081810E+02  0.10855561361E+02  0.23536872193E+02  0.39135911255E+02  0.47000000000E+01 0.  1.
         13    1    6    6    0    0  0.34986957075E+02 -0.33180268189E+01  0.42677023257E+03  0.42821481511E+03  0.00000000000E+00 0. -1.
        -14    1    6    6    0    0 -0.45871804219E+02 -0.42743483895E+01  0.28244327916E+03  0.28617599203E+03  0.00000000000E+00 0.  1.
</event>
<event>
12    1  0.8461994E-002  0.2647187E+03  0.7818608E-02  0.1104913E+00
         21   -1    0    0  503  502  0.00000000000E+00  0.00000000000E+00  0.20307312468E+04  0.20307312468E+04  0.00000000000E+00 0. -1.
         21   -1    0    0  501  503 -0.00000000000E+00 -0.00000000000E+00 -0.40500015111E+02  0.40500015111E+02  0.00000000000E+00 0. -1.
          6    2    1    2  501    0  0.19661121597E+03 -0.39462297551E+01  0.58656902129E+03  0.64353649541E+03  0.17721303908E+03 0.  0.
         24    2    3    3    0    0  0.15399605891E+03 -0.35634187747E+02  0.55267699602E+03  0.58036262684E+03  0.79902035119E+02 0.  0.
         -6    2    1    2    0  502 -0.19661121597E+03  0.39462297551E+01  0.14036622104E+04  0.14276947665E+04  0.17138612082E+03 0.  0.
        -24    2    5    5    0    0 -0.50829314613E+02  0.46498191316E+02  0.65180185998E+03  0.66063602772E+03  0.82756241069E+02 0.  0.
          5    1    3    3  501    0  0.42615157057E+02  0.31687957992E+02  0.33892025272E+02  0.63173868568E+02  0.47000000000E+01 0. -1.
        -13    1    4    4    0    0  0.13561783203E+03 -0.52738785153E+02  0.40020750114E+03  0.42583989925E+03  0.00000000000E+00 0.  1.
         14    1    4    4    0    0  0.18378226879E+02  0.17104597406E+02  0.15246949488E+03  0.15452272759E+03  0.00000000000E+00 0. -1.
         -5    1    5    5    0  502 -0.14578190135E+03 -0.42551961561E+02  0.75186035039E+03  0.76705873874E+03  0.47000000000E+01 0.  1.
         11    1    6    6    0    0 -0.23004362192E+02  0.30689423386E+01  0.37012742297E+02  0.43687093967E+02  0.00000000000E+00 0. -1.
        -12    1    6    6    0    0 -0.27824952421E+02  0.43429248978E+02  0.61478911768E+03  0.61694893376E+03  0.00000000000E+00 0.  1.
</event>
<event>
12    1  0.8461994E-002  0.1945637E+03  0.7818608E-02  0.1154676E+00
         21   -1    0    0  503  502  0.00000000000E+00  0.00000000000E+00  0.10145530745E+03  0.10145530745E+03  0.00000000000E+00 0.  1.
         21   -1    0    0  501  503 -0.00000000000E+00 -0.00000000000E+00 -0.42500226884E+03  0.42500226884E+03  0.00000000000E+00 0.  1.
          6    2    1    2  501    0 -0.35343526801E+02  0.84897873135E+02 -0.25534722721E+03  0.32028719731E+03  0.17007312713E+03 0.  0.
         24    2    3    3    0    0 -0.86705249233E+02  0.38679424292E+02 -0.17214991271E+03  0.21203723342E+03  0.79437382884E+02 0.  0.
         -6    2    1    2    0  502  0.35343526801E+02 -0.84897873135E+02 -0.68199734178E+02  0.20617037898E+03  0.17145905539E+03 0.  0.
        -24    2    5    5    0    0  0.55735536526E+02 -0.79490865451E+01 -0.77641769472E+02  0.12586974480E+03  0.81518772571E+02 0.  0.
          5    1    3    3  501    0  0.51361722432E+02  0.46218448843E+02 -0.83197314492E+02  0.10824996390E+03  0.47000000000E+01 0. -1.
        -13    1    4    4    0    0 -0.89040968458E+02  0.55285604023E+02 -0.13216663050E+03  0.16867960841E+03  0.00000000000E+00 0.  1.
         14    1    4    4    0    0  0.23357192250E+01 -0.16606179730E+02 -0.39983282212E+02  0.43357625004E+02  0.00000000000E+00 0. -1.
         -5    1    5    5    0  502 -0.20392009725E+02 -0.76948786590E+02  0.94420352942E+01  0.80300634174E+02  0.47000000000E+01 0.  1.
         13    1    6    6    0    0 -0.15328230559E+02 -0.14498018781E+02 -0.39910853623E+02  0.45144472946E+02  0.00000000000E+00 0. -1.
        -14    1    6    6    0    0  0.71063767085E+02  0.65489322356E+01 -0.37730915850E+02  0.80725271859E+02  0.00000000000E+00 0.  1.
</event>
<event>
12    1  0.8461994E-002  0.2022336E+03  0.7818608E-02  0.1148880E+00
         21   -1    0    0  503  502  0.00000000000E+00  0.00000000000E+00  0.91276619860E+02  0.91276619860E+02  0.00000000000E+00 0. -1.
         21   -1    0    0  501  503 -0.00000000000E+00 -0.00000000000E+00 -0.58443943006E+03  0.58443943006E+03  0.00000000000E+00 0. -1.
          6    2    1    2  501    0  0.15470637407E+02  0.10526204335E+03 -0.41376786068E+03  0.45845584962E+03  0.16630840368E+03 0.  0.
         24    2    3    3    0    0  0.58710115942E+02  0.20566010236E+02 -0.24079177663E+03  0.26100741033E+03  0.79210795109E+02 0.  0.
         -6    2    1    2    0  502 -0.15470637407E+02 -0.10526204335E+03 -0.79394949522E+02  0.21726020030E+03  0.17198545936E+03 0.  0.
        -24    2    5    5    0    0 -0.31211008425E+02 -0.79201361387E+02 -0.12209155230E+03  0.16461033503E+03  0.70308125852E+02 0.  0.
          5    1    3    3  501    0 -0.43239478536E+02  0.84696033110E+02 -0.17297608404E+03  0.19744843929E+03  0.47000000000E+01 0. -1.
        -13    1    4    4    0    0 -0.12996152583E+02 -0.13503726248E+02 -0.26294766057E+02  0.32290328684E+02  0.00000000000E+00 0.  1.
         14    1    4    4    0    0  0.71706268526E+02  0.34069736485E+02 -0.21449701058E+03  0.22871708165E+03  0.00000000000E+00 0. -1.
         -5    1    5    5    0  502  0.15740371018E+02 -0.26060681959E+02  0.42696602782E+02  0.52649865271E+02  0.47000000000E+01 0.  1.
         11    1    6    6    0    0 -0.43108330443E+02 -0.18529614962E+02 -0.38839880978E+02  0.60911502515E+02  0.00000000000E+00 0. -1.
        -12    1    6    6    0    0  0.11897322018E+02 -0.60671746425E+02 -0.83251671326E+02  0.10369883251E+03  0.00000000000E+00 0.  1.
</event>
<event>
12    1  0.8461994E-002  0.2461535E+03  0.7818608E-02  0.1115984E+00
         21   -1    0    0  503  502  0.00000000000E+00  0.00000000000E+00  0.13577355555E+04  0.13577355555E+04  0.00000000000E+00 0. -1.
         21   -1    0    0  501  503 -0.00000000000E+00 -0.00000000000E+00 -0.58641252636E+02  0.58641252636E+02  0.00000000000E+00 0.  1.
          6    2    1    2  501    0  0.17315473408E+03 -0.17731233863E+02  0.29887965684E+03  0.38631812640E+03  0.17209208848E+03 0.  0.
         24    2    3    3    0    0  0.10927940999E+03 -0.73292004977E+02  0.23175681666E+03  0.27817645085E+03  0.79732103325E+02 0.  0.
         -6    2    1    2    0  502 -0.17315473408E+03  0.17731233863E+02  0.10002146461E+04  0.10300586818E+04  0.17405341459E+03 0.  0.
        -24    2    5    5    0    0 -0.44042948169E+02 -0.49936460856E+02  0.33210708771E+03  0.34621764054E+03  0.71680579679E+02 0.  0.
          5    1    3    3  501    0  0.63875324090E+02  0.55560771114E+02  0.67122840184E+02  0.10814167554E+03  0.47000000000E+01 0. -1.
        -11    1    4    4    0    0  0.42234440279E+01 -0.10034271187E+02 -0.46639275812E+01  0.11843829541E+02  0.00000000000E+00 0.  1.
         12    1    4    4    0    0  0.10505596596E+03 -0.63257733790E+02  0.23642074424E+03  0.26633262131E+03  0.00000000000E+00 0. -1.
         -5    1    5    5    0  502 -0.12911178591E+03  0.67667694719E+02  0.66810755835E+03  0.68384104124E+03  0.47000000000E+01 0.  1.
         13    1    6    6    0    0 -0.25693549080E+02  0.29410461227E+01  0.21357754653E+03  0.21513757598E+03  0.00000000000E+00 0. -1.
        -14    1    6    6    0    0 -0.18349399089E+02 -0.52877506978E+02  0.11852954119E+03  0.13108006456E+03  0.00000000000E+00 0.  1.
</event>
<event>
12    1  0.8461994E-002  0.2485202E+03  0.7818608E-02  0.1114595E+00
         21   -1    0    0  503  502  0.00000000000E+00  0.00000000000E+00  0.44104363456E+03  0.44104363456E+03  0.00000000000E+00 0.  1.
         21   -1    0    0  501  503 -0.00000000000E+00 -0.00000000000E+00 -0.37319482638E+03  0.37319482638E+03  0.00000000000E+00 0. -1.
          6    2    1    2  501    0  0.16141000010E+03 -0.71329445754E+02 -0.28877672619E+03  0.37956152266E+03  0.17185422291E+03 0.  0.
         24    2    3    3    0    0  0.18372586975E+03 -0.68516500307E+02 -0.28207936828E+03  0.35562712685E+03  0.91935723796E+02 0.  0.
         -6    2    1    2    0  502 -0.16141000010E+03  0.71329445754E+02  0.35662553437E+03  0.43467693828E+03  0.17498911664E+03 0.  0.
        -24    2    5    5    0    0 -0.19521912493E+02  0.54160236776E+02  0.99630024081E+02  0.14057526632E+03  0.80751640767E+02 0.  0.
          5    1    3    3  501    0 -0.22315869646E+02 -0.28129454468E+01 -0.66973579136E+01  0.23934395818E+02  0.47000000000E+01 0. -1.
        -11    1    4    4    0    0  0.78272299581E+02  0.16648862824E+02 -0.88581763500E+02  0.11937531713E+03  0.00000000000E+00 0.  1.
         12    1    4    4    0    0  0.10545357017E+03 -0.85165363131E+02 -0.19349760478E+03  0.23625180972E+03  0.00000000000E+00 0. -1.
         -5    1    5    5    0  502 -0.14188808761E+03  0.17169208978E+02  0.25699551029E+03  0.29410167197E+03  0.47000000000E+01 0.  1.
         13    1    6    6    0    0 -0.31018275484E+02  0.58766698335E+02  0.35653646529E+02  0.75411144787E+02  0.00000000000E+00 0. -1.
        -14    1    6    6    0    0  0.11496362992E+02 -0.46064615590E+01  0.63976377551E+02  0.65164121530E+02  0.00000000000E+00 0.  1.
</event>
<event>
12    1  0.8461994E-002  0.2401103E+03  0.7818608E-02  0.1119723E+00
         21   -1    0    0  501  502  0.00000000000E+00  0.00000000000E+00  0.84008361191E+03  0.84008361191E+03  0.00000000000E+00 0. -1.
         21   -1    0    0  502  503 -0.00000000000E+00 -0.00000000000E+00 -0.95195817854E+02  0.95195817854E+02  0.00000000000E+00 0. -1.
         -6    2    1    2    0  503 -0.34151992361E+01 -0.16743671161E+03  0.12535310762E+03  0.27084267323E+03  0.17203382247E+03 0.  0.
        -24    2    3    3    0    0 -0.69699399806E+02 -0.95178956985E+02  0.77130838788E+02  0.16147057643E+03  0.78781600480E+02 0.  0.
          6    2    1    2  501    0  0.34151992361E+01  0.16743671161E+03  0.61953468643E+03  0.66443675653E+03  0.17206469641E+03 0.  0.
         24    2    5    5    0    0  0.32294702365E+02  0.31063395088E+02  0.33859843445E+03  0.35078252838E+03  0.79947483305E+02 0.  0.
          5    1    5    5  501    0 -0.28879503129E+02  0.13637331652E+03  0.28093625198E+03  0.31365422815E+03  0.47000000000E+01 0. -1.
        -11    1    6    6    0    0 -0.21090904893E+02  0.14487999329E+02  0.43760947716E+02  0.50692691176E+02  0.00000000000E+00 0.  1.
         12    1    6    6    0    0  0.53385607258E+02  0.16575395760E+02  0.29483748673E+03  0.30008983720E+03  0.00000000000E+00 0. -1.
         -5    1    3    3    0  503  0.66284200570E+02 -0.72257754620E+02  0.48222268833E+02  0.10937209680E+03  0.47000000000E+01 0.  1.
         11    1    4    4    0    0 -0.26057982395E+02 -0.76766451481E+02  0.80159518534E+02  0.11400725824E+03  0.00000000000E+00 0. -1.
        -12    1    4    4    0    0 -0.43641417412E+02 -0.18412505504E+02 -0.30286797463E+01  0.47463318191E+02  0.00000000000E+00 0.  1.
</event>
<event>
12    1  0.8461994E-002  0.1824517E+03  0.7818608E-02  0.1165478E+00
         21   -1    0    0  501  502  0.00000000000E+00  0.00000000000E+00  0.16508223295E+04  0.16508223295E+04  0.00000000000E+00 0. -1.
         21   -1    0    0  502  503 -0.00000000000E+00 -0.00000000000E+00 -0.23350621980E+02  0.23350621980E+02  0.00000000000E+00 0. -1.
         -6    2    1    2    0  503 -0.81638329680E+01  0.62131031884E+02  0.50371918861E+03  0.53570540524E+03  0.17123185142E+03 0.  0.
        -24    2    3    3    0    0  0.50074481526E+02  0.72087119682E+01  0.19360220192E+03  0.21538869020E+03  0.79693513225E+02 0.  0.
          6    2    1    2  501    0  0.81638329680E+01 -0.62131031884E+02  0.11237525189E+04  0.11384675462E+04  0.17135260952E+03 0.  0.
         24    2    5    5    0    0 -0.12696257160E+02 -0.41849255483E+02  0.10932213331E+04  0.10960324532E+04  0.65128336449E+02 0.  0.
          5    1    5    5  501    0  0.20860090128E+02 -0.20281776401E+02  0.30531185835E+02  0.42435093055E+02  0.47000000000E+01 0. -1.
        -13    1    6    6    0    0 -0.83684101666E+01 -0.27709106942E+02  0.15411049661E+03  0.15680519782E+03  0.00000000000E+00 0.  1.
         14    1    6    6    0    0 -0.43278469932E+01 -0.14140148541E+02  0.93911083644E+03  0.93922725534E+03  0.00000000000E+00 0. -1.
         -5    1    3    3    0  503 -0.58238314494E+02  0.54922319916E+02  0.31011698669E+03  0.32031671504E+03  0.47000000000E+01 0.  1.
         13    1    4    4    0    0  0.19913365514E+01  0.34340925405E+02  0.43515712110E+02  0.55469647370E+02  0.00000000000E+00 0. -1.
        -14    1    4    4    0    0  0.48083144975E+02 -0.27132213437E+02  0.15008648981E+03  0.15991904283E+03  0.00000000000E+00 0.  1.
</event>
<event>
12    1  0.8461994E-002  0.1865256E+03  0.7818608E-02  0.1163116E+00
         21   -1    0    0  503  502  0.00000000000E+00  0.00000000000E+00  0.18080099881E+04  0.18080099881E+04  0.00000000000E+00 0. -1.
         21   -1    0    0  501  503 -0.00000000000E+00 -0.00000000000E+00 -0.18926389129E+02  0.18926389129E+02  0.00000000000E+00 0. -1.
          6    2    1    2  501    0 -0.54899738589E+02 -0.70831699620E+01  0.78942752055E+03  0.81116436136E+03  0.17812259357E+03 0.  0.
         24    2    3    3    0    0  0.40294947684E+02 -0.12460343313E+02  0.34065985929E+03  0.35235563642E+03  0.79538744143E+02 0.  0.
         -6    2    1    2    0  502  0.54899738589E+02  0.70831699620E+01  0.99965607838E+03  0.10157720158E+04  0.17151198357E+03 0.  0.
        -24    2    5    5    0    0  0.31506602260E+02 -0.48252765378E+02  0.82836149453E+03  0.83418669422E+03  0.79772676052E+02 0.  0.
          5    1    3    3  501    0 -0.95194686273E+02  0.53771733509E+01  0.44876766126E+03  0.45880872494E+03  0.47000000000E+01 0. -1.
        -11    1    4    4    0    0 -0.24230985332E+02 -0.51585702674E+00  0.82538020488E+02  0.86022855014E+02  0.00000000000E+00 0.  1.
         12    1    4    4    0    0  0.64525933016E+02 -0.11944486286E+02  0.25812183881E+03  0.26633278141E+03  0.00000000000E+00 0. -1.
         -5    1    5    5    0  502  0.23393136330E+02  0.55335935340E+02  0.17129458386E+03  0.18158532162E+03  0.47000000000E+01 0.  1.
         13    1    6    6    0    0 -0.13102981872E+02 -0.51698864271E+02  0.48445740762E+03  0.48738428421E+03  0.00000000000E+00 0. -1.
        -14    1    6    6    0    0  0.44609584132E+02  0.34460988930E+01  0.34390408691E+03  0.34680241001E+03  0.00000000000E+00 0.  1.
</event>
<event>
12    1  0.8461994E-002  0.1840613E+03  0.7818608E-02  0.1164114E+00
         21   -1    0    0  501  502  0.00000000000E+00  0.00000000000E+00  0.19066042990E+03  0.19066042990E+03  0.00000000000E+00 0. -1.
         21   -1    0    0  502  503 -0.00000000000E+00 -0.00000000000E+00 -0.21191785841E+03  0.21191785841E+03  0.00000000000E+00 0. -1.
         -6    2    1    2    0  503  0.97671247859E+00 -0.63495871662E+02 -0.92430625189E+02  0.20596599375E+03  0.17275963193E+03 0.  0.
        -24    2    3    3    0    0  0.38281679945E+01  0.33767677908E+02 -0.42949935287E+02  0.96701372093E+02  0.79696596427E+02 0.  0.
          6    2    1    2  501    0 -0.97671247859E+00  0.63495871662E+02  0.71173196684E+02  0.19661229455E+03  0.17192466594E+03 0.  0.
         24    2    5    5    0    0  0.29612561698E+02  0.34662123723E+02  0.10667474337E+03  0.14138966756E+03  0.80828030968E+02 0.  0.
          5    1    5    5  501    0 -0.30589274176E+02  0.28833747939E+02 -0.35501546682E+02  0.55222626990E+02  0.47000000000E+01 0. -1.
        -13    1    6    6    0    0 -0.26239105983E+02 -0.94875744383E+00  0.25275956143E+02  0.36445367091E+02  0.00000000000E+00 0.  1.
         14    1    6    6    0    0  0.55851667681E+02  0.35610881167E+02  0.81398787223E+02  0.10494430047E+03  0.00000000000E+00 0. -1.
         -5    1    3    3    0  503 -0.28514555159E+01 -0.97263549570E+02 -0.49480689902E+02  0.10926462166E+03  0.47000000000E+01 0.  1.
         11    1    4    4    0    0  0.10342592837E+02 -0.71435481451E+01  0.18635938687E+02  0.22478828204E+02  0.00000000000E+00 0. -1.
        -12    1    4    4    0    0 -0.65144248422E+01  0.40911226053E+02 -0.61585873974E+02  0.74222543889E+02  0.00000000000E+00 0.  1.
</event>
<event>
12    1  0.8461994E-002  0.1893003E+03  0.7818608E-02  0.1159197E+00
         21   -1    0    0  501  502  0.00000000000E+00  0.00000000000E+00  0.31543819369E+02  0.31543819369E+02  0.00000000000E+00 0.  1.
         21   -1    0    0  502  503 -0.00000000000E+00 -0.00000000000E+00 -0.13481847736E+04  0.13481847736E+04  0.00000000000E+00 0.  1.
         -6    2    1    2    0  503  0.39291816898E-01  0.80717294103E+02 -0.93439290961E+03  0.95337543380E+03  0.17122886770E+03 0.  0.
        -24    2    3    3    0    0 -0.15556953097E+02 -0.15587017157E+02 -0.57248217059E+03  0.57851647867E+03  0.80377276370E+02 0.  0.
          6    2    1    2  501    0 -0.39291816898E-01 -0.80717294103E+02 -0.38224804460E+03  0.42635315915E+03  0.17072833861E+03 0.  0.
         24    2    5    5    0    0 -0.11997890221E+02 -0.12491051327E+03 -0.29709038562E+03  0.32955457662E+03  0.67800708306E+02 0.  0.
          5    1    5    5  501    0  0.11958598404E+02  0.44193219171E+02 -0.85157658975E+02  0.96798582523E+02  0.47000000000E+01 0. -1.
        -11    1    6    6    0    0 -0.28522092170E+02 -0.10242118812E+03 -0.27194744654E+03  0.29199147795E+03  0.00000000000E+00 0.  1.
         12    1    6    6    0    0  0.16524201950E+02 -0.22489325151E+02 -0.25142939085E+02  0.37563098669E+02  0.00000000000E+00 0. -1.
         -5    1    3    3    0  503  0.15596244913E+02  0.96304311260E+02 -0.36191073903E+03  0.37485895514E+03  0.47000000000E+01 0.  1.
         13    1    4    4    0    0 -0.39116978680E+02  0.41601046081E+01 -0.46678482270E+03  0.46843944667E+03  0.00000000000E+00 0. -1.
        -14    1    4    4    0    0  0.23560025584E+02 -0.19747121765E+02 -0.10569734788E+03  0.11007703199E+03  0.00000000000E+00 0.  1.
</event>
<event>
12    1  0.8461994E-002  0.2255715E+03  0.7818608E-02  0.1129883E+00
         21   -1    0    0  501  502  0.00000000000E+00  0.00000000000E+00  0.29567879877E+04  0.29567879877E+04  0.00000000000E+00 0. -1.
         21   -1    0    0  502  503 -0.00000000000E+00 -0.00000000000E+00 -0.24504428551E+02  0.24504428551E+02  0.00000000000E+00 0. -1.
         -6    2    1    2    0  503 -0.84602178075E+02  0.11871359236E+03  0.65183234519E+03  0.68975931808E+03  0.17213966740E+03 0.  0.
        -24    2    3    3    0    0 -0.60857923294E+02  0.16234987481E+02  0.18700476759E+03  0.21315421845E+03  0.80601960865E+02 0.  0.
          6    2    1    2  501    0  0.84602178075E+02 -0.11871359236E+03  0.22804512140E+04  0.22915330982E+04  0.17151021904E+03 0.  0.
         24    2    5    5    0    0 -0.70827584047E+01 -0.25859777265E+02  0.44297337340E+03  0.44942157519E+03  0.70960898817E+02 0.  0.
          5    1    5    5  501    0  0.91684936479E+02 -0.92853815096E+02  0.18374778406E+04  0.18421115230E+04  0.47000000000E+01 0. -1.
        -11    1    6    6    0    0 -0.16254285741E+01 -0.50478465905E+02  0.30789127061E+03  0.31200601286E+03  0.00000000000E+00 0.  1.
         12    1    6    6    0    0 -0.54573298306E+01  0.24618688641E+02  0.13508210278E+03  0.13741556233E+03  0.00000000000E+00 0. -1.
         -5    1    3    3    0  503 -0.23744254781E+02  0.10247860488E+03  0.46482757761E+03  0.47660509963E+03  0.47000000000E+01 0.  1.
         13    1    4    4    0    0  0.12751752228E+01  0.36510756775E+02  0.58194192640E+02  0.68711174413E+02  0.00000000000E+00 0. -1.
        -14    1    4    4    0    0 -0.62133098517E+02 -0.20275769294E+02  0.12881057495E+03  0.14444304403E+03  0.00000000000E+00 0.  1.
</event>
<event>
12    1  0.8461994E-002  0.1840710E+03  0.7818608E-02  0.1164230E+00
         21   -1    0    0  501  502  0.00000000000E+00  0.00000000000E+00  0.20180233886E+02  0.20180233886E+02  0.00000000000E+00 0. -1.
         21   -1    0    0  502  503 -0.00000000000E+00 -0.00000000000E+00 -0.17915528644E+04  0.17915528644E+04  0.00000000000E+00 0.  1.
         -6    2    1    2    0  503 -0.60484656925E+02 -0.18483088360E+02 -0.64982016794E+03  0.67538757790E+03  0.17286443080E+03 0.  0.
        -24    2    3    3    0    0  0.10272992169E+02  0.15738917042E+02 -0.48485184110E+03  0.49259143620E+03  0.84922125042E+02 0.  0.
          6    2    1    2  501    0  0.60484656925E+02  0.18483088360E+02 -0.11215524626E+04  0.11363455204E+04  0.17146777284E+03 0.  0.
         24    2    5    5    0    0  0.16344508892E+02  0.56457178422E+02 -0.94913353126E+03  0.95429947660E+03  0.79865354879E+02 0.  0.
          5    1    5    5  501    0  0.44140148033E+02 -0.37974090062E+02 -0.17241893134E+03  0.18204604382E+03  0.47000000000E+01 0. -1.
        -11    1    6    6    0    0  0.44294566310E+02  0.26974247712E+02 -0.35373236163E+03  0.35751391904E+03  0.00000000000E+00 0.  1.
         12    1    6    6    0    0 -0.27950057418E+02  0.29482930710E+02 -0.59540116963E+03  0.59678555756E+03  0.00000000000E+00 0. -1.
         -5    1    3    3    0  503 -0.70757649094E+02 -0.34222005403E+02 -0.16496832684E+03  0.18279614170E+03  0.47000000000E+01 0.  1.
         11    1    4    4    0    0 -0.42891241062E+01  0.48494942453E+02 -0.21983854936E+03  0.22516470375E+03  0.00000000000E+00 0. -1.
        -12    1    4    4    0    0  0.14562116275E+02 -0.32756025411E+02 -0.26501329174E+03  0.26742673245E+03  0.00000000000E+00 0.  1.
</event>
<event>
12    1  0.8461994E-002  0.1927977E+03  0.7818608E-02  0.1156044E+00
         21   -1    0    0  503  502  0.00000000000E+00  0.00000000000E+00  0.17020470267E+03  0.17020470267E+03  0.00000000000E+00 0. -1.
         21   -1    0    0  501  503 -0.00000000000E+00 -0.00000000000E+00 -0.30092076826E+03  0.30092076826E+03  0.00000000000E+00 0. -1.
          6    2    1    2  501    0  0.51998305517E+02  0.69585069721E+02 -0.18899057511E+03  0.26971331614E+03  0.17170302769E+03 0.  0.
         24    2    3    3    0    0  0.27510085906E+02  0.80634212284E+02 -0.45071538394E+02  0.12323282058E+03  0.76786740243E+02 0.  0.
         -6    2    1    2    0  502 -0.51998305517E+02 -0.69585069721E+02  0.58274509520E+02  0.20141215479E+03  0.17211923754E+03 0.  0.
        -24    2    5    5    0    0 -0.25990761458E+02 -0.79981363490E+01  0.93357303529E+02  0.12576669792E+03  0.79763314352E+02 0.  0.
          5    1    3    3  501    0  0.24488219610E+02 -0.11049142564E+02 -0.14391903671E+03  0.14648049556E+03  0.47000000000E+01 0. -1.
        -13    1    4    4    0    0 -0.20466318842E+02 -0.45430942628E+00 -0.76009422395E+01  0.21836916608E+02  0.00000000000E+00 0.  1.
         14    1    4    4    0    0  0.47976404748E+02  0.81088521710E+02 -0.37470596155E+02  0.10139590397E+03  0.00000000000E+00 0. -1.
         -5    1    5    5    0  502 -0.26007544058E+02 -0.61586933372E+02 -0.35082794009E+02  0.75645456873E+02  0.47000000000E+01 0.  1.
         13    1    6    6    0    0 -0.46064166099E+02  0.19380961766E+02  0.61114362906E+02  0.78946148930E+02  0.00000000000E+00 0. -1.
        -14    1    6    6    0    0  0.20073404641E+02 -0.27379098115E+02  0.32242940623E+02  0.46820548987E+02  0.00000000000E+00 0.  1.
</event>
<event>
12    1  0.8461994E-002  0.2403055E+03  0.7818608E-02  0.1119751E+00
         21   -1    0    0  503  502  0.00000000000E+00  0.00000000000E+00  0.20690659795E+02  0.20690659795E+02  0.00000000000E+00 0. -1.
         21   -1    0    0  501  503 -0.00000000000E+00 -0.00000000000E+00 -0.30361036682E+04  0.30361036682E+04  0.00000000000E+00 0. -1.
          6    2    1    2  501    0 -0.69446248148E+02  0.15077177991E+03 -0.19546469653E+04  0.19693632208E+04  0.17375795083E+03 0.  0.
         24    2    3    3    0    0 -0.98308459909E+02  0.16172926063E+03 -0.15920075438E+04  0.16053817189E+04  0.83315887042E+02 0.  0.
         -6    2    1    2    0  502  0.69446248148E+02 -0.15077177991E+03 -0.10607660431E+04  0.10874311072E+04  0.17241491727E+03 0.  0.
        -24    2    5    5    0    0 -0.24056319729E+02 -0.73361763987E+02 -0.39170031819E+03  0.40742664028E+03  0.81281443205E+02 0.  0.
          5    1    3    3  501    0  0.28862211761E+02 -0.10957480718E+02 -0.36263942153E+03  0.36398150186E+03  0.47000000000E+01 0. -1.
        -11    1    4    4    0    0  0.15719285634E+01  0.47729103030E+02 -0.59574661799E+03  0.59765757008E+03  0.00000000000E+00 0.  1.
         12    1    4    4    0    0 -0.99880388472E+02  0.11400015760E+03 -0.99626092579E+03  0.10077241489E+04  0.00000000000E+00 0. -1.
         -5    1    5    5    0  502  0.93502567878E+02 -0.77410015922E+02 -0.66906572488E+03  0.68000446688E+03  0.47000000000E+01 0.  1.
         11    1    6    6    0    0 -0.34318681147E+02 -0.60545568650E+02 -0.15211880237E+03  0.16728319638E+03  0.00000000000E+00 0. -1.
        -12    1    6    6    0    0  0.10262361418E+02 -0.12816195337E+02 -0.23958151582E+03  0.24014344390E+03  0.00000000000E+00 0.  1.
</event>
<event>
12    1  0.8461994E-002  0.2211576E+03  0.7818608E-02  0.1134607E+00
         21   -1    0    0  501  502  0.00000000000E+00  0.00000000000E+00  0.10469971080E+03  0.10469971080E+03  0.00000000000E+00 0.  1.
         21   -1    0    0  502  503 -0.00000000000E+00 -0.00000000000E+00 -0.47509941462E+03  0.47509941462E+03  0.00000000000E+00 0. -1.
         -6    2    1    2    0  503 -0.12787714606E+02 -0.12499167897E+03 -0.12146129625E+03  0.25231636673E+03  0.18200070598E+03 0.  0.
        -24    2    3    3    0    0  0.32569071910E+02 -0.11718717357E+03 -0.28209167619E+02  0.14821930682E+03  0.79872571529E+02 0.  0.
          6    2    1    2  501    0  0.12787714606E+02  0.12499167897E+03 -0.24893840757E+03  0.32748275869E+03  0.17172123053E+03 0.  0.
         24    2    5    5    0    0  0.18785224193E+02  0.38181700210E+02 -0.35815169188E+02  0.97231705979E+02  0.79753065300E+02 0.  0.
          5    1    5    5  501    0 -0.59975095877E+01  0.86809978763E+02 -0.21312323839E+03  0.23025105271E+03  0.47000000000E+01 0. -1.
        -13    1    6    6    0    0 -0.23413990629E+02 -0.52400133973E+01 -0.26873384189E+02  0.36025705757E+02  0.00000000000E+00 0.  1.
         14    1    6    6    0    0  0.42199214822E+02  0.43421713607E+02 -0.89417849997E+01  0.61206000222E+02  0.00000000000E+00 0. -1.
         -5    1    3    3    0  503 -0.45356786515E+02 -0.78045054061E+01 -0.93252128635E+02  0.10409705991E+03  0.47000000000E+01 0.  1.
         13    1    4    4    0    0 -0.21750063007E+02 -0.58719036038E+02 -0.27548789579E+02  0.68409986415E+02  0.00000000000E+00 0. -1.
        -14    1    4    4    0    0  0.54319134917E+02 -0.58468137529E+02 -0.66037804009E+00  0.79809320404E+02  0.00000000000E+00 0.  1.
</event>
<event>
12    1  0.8461994E-002  0.1966698E+03  0.7818608E-02  0.1152756E+00
         21   -1    0    0  503  502  0.00000000000E+00  0.00000000000E+00  0.11668099041E+04  0.11668099041E+04  0.00000000000E+00 0.  1.
         21   -1    0    0  501  503 -0.00000000000E+00 -0.00000000000E+00 -0.12011069957E+03  0.12011069957E+03  0.00000000000E+00 0. -1.
          6    2    1    2  501    0 -0.17521102475E+02 -0.92168126764E+02 -0.24893226985E+02  0.19743019725E+03  0.17192166068E+03 0.  0.
         24    2    3    3    0    0 -0.73040736653E+02 -0.88732882331E+02 -0.14225894702E+02  0.14059611714E+03  0.79727150063E+02 0.  0.
         -6    2    1    2    0  502  0.17521102475E+02  0.92168126764E+02  0.10715924315E+04  0.10894904064E+04  0.17284980127E+03 0.  0.
        -24    2    5    5    0    0 -0.17176770018E+01  0.12509380827E+03  0.96093143414E+03  0.97234870813E+03  0.80133499987E+02 0.  0.
          5    1    3    3  501    0  0.55519634178E+02 -0.34352444334E+01 -0.10667332284E+02  0.56834080107E+02  0.47000000000E+01 0. -1.
        -13    1    4    4    0    0 -0.59275416524E+02 -0.43297330647E+02  0.26504854856E+02  0.78043200704E+02  0.00000000000E+00 0.  1.
         14    1    4    4    0    0 -0.13765320129E+02 -0.45435551684E+02 -0.40730749558E+02  0.62552916436E+02  0.00000000000E+00 0. -1.
         -5    1    5    5    0  502  0.19238779477E+02 -0.32925681503E+02  0.11066099733E+03  0.11714169825E+03  0.47000000000E+01 0.  1.
         13    1    6    6    0    0 -0.34549330718E+02  0.57310145933E+02  0.31424475856E+03  0.32129095438E+03  0.00000000000E+00 0. -1.
        -14    1    6    6    0    0  0.32831653717E+02  0.67783662334E+02  0.64668667557E+03  0.65105775376E+03  0.00000000000E+00 0.  1.
</event>
<event>
12    1  0.8461994E-002  0.1953656E+03  0.7818608E-02  0.1157552E+00
         21   -1    0    0  503  502  0.00000000000E+00  0.00000000000E+00  0.34093256054E+03  0.34093256054E+03  0.00000000000E+00 0.  1.
         21   -1    0    0  501  503 -0.00000000000E+00 -0.00000000000E+00 -0.11727417512E+03  0.11727417512E+03  0.00000000000E+00 0.  1.
          6    2    1    2  501    0  0.43113130361E+02  0.12090988522E+02  0.35008425107E+02  0.19847751664E+03  0.19016519337E+03 0.  0.
         24    2    3    3    0    0  0.11515879084E+02  0.47824117198E+02  0.86633438758E+02  0.12803268143E+03  0.80419233680E+02 0.  0.
         -6    2    1    2    0  502 -0.43113130361E+02 -0.12090988522E+02  0.18864996031E+03  0.25972921902E+03  0.17281645081E+03 0.  0.
        -24    2    5    5    0    0 -0.75061214315E+02 -0.15543518558E+01  0.55790798786E+02  0.12259662777E+03  0.79250981107E+02 0.  0.
          5    1    3    3  501    0  0.31597251276E+02 -0.35733128676E+02 -0.51625013651E+02  0.70444835209E+02  0.47000000000E+01 0. -1.
        -13    1    4    4    0    0  0.20106269091E+02 -0.11121241160E+02  0.98505030645E-01  0.22977244502E+02  0.00000000000E+00 0.  1.
         14    1    4    4    0    0 -0.85903900064E+01  0.58945358357E+02  0.86534933727E+02  0.10505543693E+03  0.00000000000E+00 0. -1.
         -5    1    5    5    0  502  0.31948083955E+02 -0.10536636666E+02  0.13285916153E+03  0.13713259125E+03  0.47000000000E+01 0.  1.
         13    1    6    6    0    0 -0.47295954893E+01 -0.13097179081E+02  0.49070430976E+02  0.51007963786E+02  0.00000000000E+00 0. -1.
        -14    1    6    6    0    0 -0.70331618826E+02  0.11542827226E+02  0.67203678097E+01  0.71588663981E+02  0.00000000000E+00 0.  1.
</event>
<event>
12    1  0.8461994E-002  0.1864394E+03  0.7818608E-02  0.1161958E+00
         21   -1    0    0  501  502  0.00000000000E+00  0.00000000000E+00  0.76413919750E+03  0.76413919750E+03  0.00000000000E+00 0. -1.
         21   -1    0    0  502  503 -0.00000000000E+00 -0.00000000000E+00 -0.24640603276E+03  0.24640603276E+03  0.00000000000E+00 0. -1.
         -6    2    1    2    0  503 -0.52033605625E+02 -0.47438056176E+02 -0.19754674306E+03  0.27163279481E+03  0.17263196181E+03 0.  0.
        -24    2    3    3    0    0 -0.55707770596E+02 -0.87785798940E+02 -0.19207365253E+03  0.23048082579E+03  0.73616715914E+02 0.  0.
          6    2    1    2  501    0  0.52033605625E+02  0.47438056176E+02  0.71527990780E+03  0.73891243545E+03  0.17148870362E+03 0.  0.
         24    2    5    5    0    0 -0.27312582300E+02  0.49747796835E+02  0.29276795159E+03  0.30898267888E+03  0.80848017473E+02 0.  0.
          5    1    5    5  501    0  0.79346187925E+02 -0.23097406589E+01  0.42251195621E+03  0.42992975657E+03  0.47000000000E+01 0. -1.
        -13    1    6    6    0    0 -0.10836408868E+02  0.49784696092E+02  0.28705879735E+03  0.29154535986E+03  0.00000000000E+00 0.  1.
         14    1    6    6    0    0 -0.16476173432E+02 -0.36899257587E-01  0.57091542440E+01  0.17437319022E+02  0.00000000000E+00 0. -1.
         -5    1    3    3    0  503  0.36741649708E+01  0.40347742764E+02 -0.54730905279E+01  0.41151969021E+02  0.47000000000E+01 0.  1.
         13    1    4    4    0    0  0.13486592259E+02 -0.10166839845E+02 -0.60303155810E+02  0.62623664887E+02  0.00000000000E+00 0. -1.
        -14    1    4    4    0    0 -0.69194362855E+02 -0.77618959095E+02 -0.13177049672E+03  0.16785716091E+03  0.00000000000E+00 0.  1.
</event>
<event>
12    1  0.8461994E-002  0.2367881E+03  0.7818608E-02  0.1122181E+00
         21   -1    0    0  501  502  0.00000000000E+00  0.00000000000E+00  0.33083796803E+03  0.33083796803E+03  0.00000000000E+00 0.  1.
         21   -1    0    0  502  503 -0.00000000000E+00 -0.00000000000E+00 -0.19095561394E+03  0.19095561394E+03  0.00000000000E+00 0. -1.
         -6    2    1    2    0  503 -0.95000762153E+02  0.13130308558E+03 -0.19684939114E+02  0.23625846376E+03  0.17077739833E+03 0.  0.
        -24    2    3    3    0    0  0.11973162362E+02  0.72858707087E+02 -0.37923711050E+02  0.11291378935E+03  0.76547816110E+02 0.  0.
          6    2    1    2  501    0  0.95000762153E+02 -0.13130308558E+03  0.15956729321E+03  0.28553511821E+03  0.17263527327E+03 0.  0.
         24    2    5    5    0    0  0.22891450563E+02  0.22421666439E+01  0.50539579502E+02  0.98604062562E+02  0.81482919911E+02 0.  0.
          5    1    5    5  501    0  0.72109311590E+02 -0.13354525222E+03  0.10902771370E+03  0.18693105564E+03  0.47000000000E+01 0. -1.
        -13    1    6    6    0    0  0.48613352410E+02  0.76446512389E+01  0.98856262579E+01  0.50193867470E+02  0.00000000000E+00 0.  1.
         14    1    6    6    0    0 -0.25721901847E+02 -0.54024845950E+01  0.40653953244E+02  0.48410195092E+02  0.00000000000E+00 0. -1.
         -5    1    3    3    0  503 -0.10697392452E+03  0.58444378490E+02  0.18238771936E+02  0.12334467441E+03  0.47000000000E+01 0.  1.
         11    1    4    4    0    0 -0.14834640241E+02  0.47559795636E+02 -0.53314921729E+02  0.72969045430E+02  0.00000000000E+00 0. -1.
        -12    1    4    4    0    0  0.26807802603E+02  0.25298911451E+02  0.15391210679E+02  0.39944743925E+02  0.00000000000E+00 0.  1.
</event>
<event>
12    1  0.8461994E-002  0.2783858E+03  0.7818608E-02  0.1096977E+00
         21   -1    0    0  501  502  0.00000000000E+00  0.00000000000E+00  0.23176913693E+03  0.23176913693E+03  0.00000000000E+00 0.  1.
         21   -1    0    0  502  503 -0.00000000000E+00 -0.00000000000E+00 -0.33646376025E+03  0.33646376025E+03  0.00000000000E+00 0. -1.
         -6    2    1    2    0  503  0.21482837562E+03  0.23967876176E+02 -0.16050665190E+02  0.27884815218E+03  0.17542228495E+03 0.  0.
        -24    2    3    3    0    0  0.20259461116E+03  0.78992426069E+00  0.34883752459E+02  0.22137392013E+03  0.82123905638E+02 0.  0.
          6    2    1    2  501    0 -0.21482837562E+03 -0.23967876176E+02 -0.88643958134E+02  0.28938474501E+03  0.17076325503E+03 0.  0.
         24    2    5    5    0    0 -0.11478908441E+03 -0.43021912348E+02 -0.11054880940E+03  0.18511188857E+03  0.83773224781E+02 0.  0.
          5    1    5    5  501    0 -0.10003929121E+03  0.19054036172E+02  0.21904851262E+02  0.10427285643E+03  0.47000000000E+01 0. -1.
        -11    1    6    6    0    0 -0.12096255870E+03 -0.17740719007E+02 -0.94674556908E+02  0.15462841086E+03  0.00000000000E+00 0.  1.
         12    1    6    6    0    0  0.61734742916E+01 -0.25281193340E+02 -0.15874252488E+02  0.30483477715E+02  0.00000000000E+00 0. -1.
         -5    1    3    3    0  503  0.12233764462E+02  0.23177951915E+02 -0.50934417649E+02  0.57474232045E+02  0.47000000000E+01 0.  1.
         11    1    4    4    0    0  0.11005305769E+03  0.40280215290E+02  0.93257173908E+01  0.11756334571E+03  0.00000000000E+00 0. -1.
        -12    1    4    4    0    0  0.92541553472E+02 -0.39490291029E+02  0.25558035069E+02  0.10381057442E+03  0.00000000000E+00 0.  1.
</event>
<event>
12    1  0.8461994E-002  0.1942191E+03  0.7818608E-02  0.1154928E+00
         21   -1    0    0  501  502  0.00000000000E+00  0.00000000000E+00  0.18605383506E+03  0.18605383506E+03  0.00000000000E+00 0.  1.
         21   -1    0    0  502  503 -0.00000000000E+00 -0.00000000000E+00 -0.35210699451E+03  0.35210699451E+03  0.00000000000E+00 0.  1.
         -6    2    1    2    0  503 -0.73089488126E+02 -0.53404258948E+02 -0.25900671787E+03  0.32373684832E+03  0.17183416107E+03 0.  0.
        -24    2    3    3    0    0 -0.43896040697E+02 -0.34699409072E+02 -0.45794074717E+02  0.10767239039E+03  0.79783049538E+02 0.  0.
          6    2    1    2  501    0  0.73089488126E+02  0.53404258948E+02  0.92953558419E+02  0.21442398125E+03  0.17071377087E+03 0.  0.
         24    2    5    5    0    0  0.36055198020E+02  0.78123720982E+02  0.70638934676E+01  0.11756472773E+03  0.79801463215E+02 0.  0.
          5    1    5    5  501    0  0.37034290106E+02 -0.24719462034E+02  0.85889664952E+02  0.96859253520E+02  0.47000000000E+01 0. -1.
        -11    1    6    6    0    0  0.49860728624E+02  0.40821533774E+02  0.30612506450E+02  0.71341540702E+02  0.00000000000E+00 0.  1.
         12    1    6    6    0    0 -0.13805530604E+02  0.37302187207E+02 -0.23548612982E+02  0.46223187029E+02  0.00000000000E+00 0. -1.
         -5    1    3    3    0  503 -0.29193447429E+02 -0.18704849876E+02 -0.21321264315E+03  0.21606445793E+03  0.47000000000E+01 0.  1.
         11    1    4    4    0    0 -0.41881395132E+02 -0.28739646326E+01  0.10229960592E+02  0.43208367530E+02  0.00000000000E+00 0. -1.
        -12    1    4    4    0    0 -0.20146455650E+01 -0.31825444439E+02 -0.56024035309E+02  0.64464022856E+02  0.00000000000E+00 0.  1.
</event>
<event>
12    1  0.8461994E-002  0.2069897E+03  0.7818608E-02  0.1145536E+00
         21   -1    0    0  503  502  0.00000000000E+00  0.00000000000E+00  0.33573729962E+03  0.33573729962E+03  0.00000000000E+00 0. -1.
         21   -1    0    0  501  503 -0.00000000000E+00 -0.00000000000E+00 -0.15614178675E+03  0.15614178675E+03  0.00000000000E+00 0.  1.
          6    2    1    2  501    0 -0.64748629375E+01 -0.11798612207E+03 -0.22219459958E+02  0.20817888847E+03  0.16994733406E+03 0.  0.
         24    2    3    3    0    0  0.35476111394E+02 -0.10646999442E+03 -0.60741523393E+02  0.14988184897E+03  0.78616930713E+02 0.  0.
         -6    2    1    2    0  502  0.64748629375E+01  0.11798612207E+03  0.20181497283E+03  0.28370019790E+03  0.16060470160E+03 0.  0.
        -24    2    5    5    0    0 -0.27531783953E+02  0.39378616762E+02  0.16713032234E+03  0.19117610966E+03  0.79417162340E+02 0.  0.
          5    1    3    3  501    0 -0.41950974332E+02 -0.11516127651E+02  0.38522063435E+02  0.58297039502E+02  0.47000000000E+01 0. -1.
        -11    1    4    4    0    0  0.25701452780E+02 -0.96013492304E+02 -0.13241582490E+02  0.10027210423E+03  0.00000000000E+00 0.  1.
         12    1    4    4    0    0  0.97746586144E+01 -0.10456502118E+02 -0.47499940903E+02  0.49609744742E+02  0.00000000000E+00 0. -1.
         -5    1    5    5    0  502  0.34006646890E+02  0.78607505310E+02  0.34684650488E+02  0.92524088233E+02  0.47000000000E+01 0.  1.
         11    1    6    6    0    0 -0.17134812258E+02  0.63098018425E+02  0.13421557045E+03  0.14929427676E+03  0.00000000000E+00 0. -1.
        -12    1    6    6    0    0 -0.10396971695E+02 -0.23719401663E+02  0.32914751888E+02  0.41881832905E+02  0.00000000000E+00 0.  1.
</event>
<event>
12    1  0.8461994E-002  0.1745042E+03  0.7818608E-02  0.1173436E+00
         21   -1    0    0  503  502  0.00000000000E+00  0.00000000000E+00  0.43199921715E+03  0.43199921715E+03  0.00000000000E+00 0.  1.
         21   -1    0    0  501  503 -0.00000000000E+00 -0.00000000000E+00 -0.73312938187E+02  0.73312938187E+02  0.00000000000E+00 0.  1.
          6    2    1    2  501    0  0.18401369594E+02  0.11367224017E+02  0.23211897883E+03  0.29039788713E+03  0.17315856414E+03 0.  0.
         24    2    3    3    0    0  0.39923419145E+02  0.44543823261E+02  0.66139632827E+02  0.11970776249E+03  0.79859036948E+02 0.  0.
         -6    2    1    2    0  502 -0.18401369594E+02 -0.11367224017E+02  0.12656730014E+03  0.21491426821E+03  0.17233988809E+03 0.  0.
        -24    2    5    5    0    0 -0.20011227472E+02 -0.83969830494E+01 -0.59343585307E+01  0.82286241285E+02  0.79150807604E+02 0.  0.
          5    1    3    3  501    0 -0.21522049551E+02 -0.33176599243E+02  0.16597934600E+03  0.17069012465E+03  0.47000000000E+01 0. -1.
        -13    1    4    4    0    0  0.34366499845E+02  0.67037026182E+02  0.58268579405E+02  0.95237841937E+02  0.00000000000E+00 0.  1.
         14    1    4    4    0    0  0.55569192998E+01 -0.22493202921E+02  0.78710534219E+01  0.24469920550E+02  0.00000000000E+00 0. -1.
         -5    1    5    5    0  502  0.16098578781E+01 -0.29702409678E+01  0.13250165867E+03  0.13262802692E+03  0.47000000000E+01 0.  1.
         11    1    6    6    0    0  0.28038896352E+01  0.33040842592E+02  0.55193765351E+01  0.33615808686E+02  0.00000000000E+00 0. -1.
        -12    1    6    6    0    0 -0.22815117107E+02 -0.41437825641E+02 -0.11453735066E+02  0.48670432600E+02  0.00000000000E+00 0.  1.
</event>
<event>
12    1  0.8461994E-002  0.2379479E+03  0.7818608E-02  0.1121192E+00
         21   -1    0    0  503  502  0.00000000000E+00  0.00000000000E+00  0.37991441082E+03  0.37991441082E+03  0.00000000000E+00 0. -1.
         21   -1    0    0  501  503 -0.00000000000E+00 -0.00000000000E+00 -0.14896963978E+03  0.14896963978E+03  0.00000000000E+00 0.  1.
          6    2    1    2  501    0  0.52079257920E+01 -0.16380963367E+03  0.11187296610E+03  0.26293485897E+03  0.17250640842E+03 0.  0.
         24    2    3    3    0    0  0.64140572598E+02 -0.67401475980E+02  0.36864468692E+02  0.12722946331E+03  0.78558101200E+02 0.  0.
         -6    2    1    2    0  502 -0.52079257920E+01  0.16380963367E+03  0.11907180494E+03  0.26594919162E+03  0.17230832603E+03 0.  0.
        -24    2    5    5    0    0 -0.21646658752E+02  0.28852069152E+02  0.92558143637E+02  0.12735323065E+03  0.79692005082E+02 0.  0.
          5    1    3    3  501    0 -0.58932646806E+02 -0.96408157692E+02  0.75008497410E+02  0.13570539567E+03  0.47000000000E+01 0. -1.
        -13    1    4    4    0    0  0.13054801635E+02 -0.18079710085E+02 -0.24678633887E+02  0.33261670629E+02  0.00000000000E+00 0.  1.
         14    1    4    4    0    0  0.51085770963E+02 -0.49321765895E+02  0.61543102579E+02  0.93967792679E+02  0.00000000000E+00 0. -1.
         -5    1    5    5    0  502  0.16438732960E+02  0.13495756452E+03  0.26513661303E+02  0.13859596097E+03  0.47000000000E+01 0.  1.
         13    1    6    6    0    0 -0.72413144518E+01 -0.10527765912E+02 -0.10212431223E+02  0.16357391038E+02  0.00000000000E+00 0. -1.
        -14    1    6    6    0    0 -0.14405344300E+02  0.39379835064E+02  0.10277057486E+03  0.11099583961E+03  0.00000000000E+00 0.  1.
</event>
<event>
12    1  0.8461994E-002  0.2406948E+03  0.7818608E-02  0.1119857E+00
         21   -1    0    0  501  502  0.00000000000E+00  0.00000000000E+00  0.24217350680E+03  0.24217350680E+03  0.00000000000E+00 0. -1.
         21   -1    0    0  502  503 -0.00000000000E+00 -0.00000000000E+00 -0.24008641727E+03  0.24008641727E+03  0.00000000000E+00 0. -1.
         -6    2    1    2    0  503 -0.51974266050E+02  0.15865365114E+03 -0.30008794583E+02  0.24255831301E+03  0.17338310790E+03 0.  0.
        -24    2    3    3    0    0 -0.17999177501E+02  0.16341188194E+03  0.18034199025E+02  0.18333697701E+03  0.79118905807E+02 0.  0.
          6    2    1    2  501    0  0.51974266050E+02 -0.15865365114E+03  0.32095884116E+02  0.23970161106E+03  0.16898050544E+03 0.  0.
         24    2    5    5    0    0  0.37645737452E+02 -0.57297376673E+02 -0.41722210876E+02  0.11340987636E+03  0.80130307966E+02 0.  0.
          5    1    5    5  501    0  0.14328528598E+02 -0.10135627446E+03  0.73818094992E+02  0.12629173470E+03  0.47000000000E+01 0. -1.
        -13    1    6    6    0    0  0.94782305208E+01  0.17997800780E+02  0.42809632494E+01  0.20786638330E+02  0.00000000000E+00 0.  1.
         14    1    6    6    0    0  0.28167506931E+02 -0.75295177452E+02 -0.46003174125E+02  0.92623238034E+02  0.00000000000E+00 0. -1.
         -5    1    3    3    0  503 -0.33975088549E+02 -0.47582307996E+01 -0.48042993608E+02  0.59221335995E+02  0.47000000000E+01 0.  1.
         11    1    4    4    0    0  0.51899422088E+01  0.28888676835E+02  0.35113813334E+02  0.45765391250E+02  0.00000000000E+00 0. -1.
        -12    1    4    4    0    0 -0.23189119709E+02  0.13452320510E+03 -0.17079614309E+02  0.13757158576E+03  0.00000000000E+00 0.  1.
</event>
<event>
12    1  0.8461994E-002  0.2693155E+03  0.7818608E-02  0.1101846E+00
         21   -1    0    0  503  502  0.00000000000E+00  0.00000000000E+00  0.93064316848E+03  0.93064316848E+03  0.00000000000E+00 0. -1.
         21   -1    0    0  501  503 -0.00000000000E+00 -0.00000000000E+00 -0.11404536276E+03  0.11404536276E+03  0.00000000000E+00 0.  1.
          6    2    1    2  501    0  0.11026546358E+03 -0.17574589396E+03  0.11233225650E+03  0.29068534049E+03  0.16980677143E+03 0.  0.
         24    2    3    3    0    0  0.90268068568E+02 -0.17010695222E+03  0.35493902086E+02  0.21094879818E+03  0.78453036718E+02 0.  0.
         -6    2    1    2    0  502 -0.11026546358E+03  0.17574589396E+03  0.70426554922E+03  0.75400319074E+03  0.17171416984E+03 0.  0.
        -24    2    5    5    0    0 -0.14673281442E+02  0.23090247797E+02  0.19869123486E+03  0.21728251019E+03  0.83576418271E+02 0.  0.
          5    1    3    3  501    0  0.19997395015E+02 -0.56389417376E+01  0.76838354412E+02  0.79736542314E+02  0.47000000000E+01 0. -1.
        -11    1    4    4    0    0  0.69655092755E+02 -0.88463048154E+02  0.53781881107E+02  0.12477994058E+03  0.00000000000E+00 0.  1.
         12    1    4    4    0    0  0.20612975814E+02 -0.81643904069E+02 -0.18287979021E+02  0.86168857601E+02  0.00000000000E+00 0. -1.
         -5    1    5    5    0  502 -0.95592182141E+02  0.15265564616E+03  0.50557431436E+03  0.53672068056E+03  0.47000000000E+01 0.  1.
         13    1    6    6    0    0 -0.48784676313E+01  0.49162204105E+02  0.70413797042E+02  0.86016420367E+02  0.00000000000E+00 0. -1.
        -14    1    6    6    0    0 -0.97948138110E+01 -0.26071956308E+02  0.12827743782E+03  0.13126608982E+03  0.00000000000E+00 0.  1.
</event>
<event>
12    1  0.8461994E-002  0.1874983E+03  0.7818608E-02  0.1162372E+00
         21   -1    0    0  501  502  0.00000000000E+00  0.00000000000E+00  0.29789692111E+03  0.29789692111E+03  0.00000000000E+00 0.  1.
         21   -1    0    0  502  503 -0.00000000000E+00 -0.00000000000E+00 -0.11552010919E+03  0.11552010919E+03  0.00000000000E+00 0.  1.
         -6    2    1    2    0  503  0.36797710016E+02 -0.36595113505E+02  0.11571691786E+03  0.21442171366E+03  0.17289590051E+03 0.  0.
        -24    2    3    3    0    0  0.48181568154E+02 -0.87253319195E+02  0.77472208463E+02  0.14976420190E+03  0.80577713211E+02 0.  0.
          6    2    1    2  501    0 -0.36797710016E+02  0.36595113505E+02  0.66659894059E+02  0.19899531664E+03  0.18017303010E+03 0.  0.
         24    2    5    5    0    0 -0.90692769438E+02  0.51002127101E+02  0.54069422430E+02  0.14161196151E+03  0.79398046594E+02 0.  0.
          5    1    5    5  501    0  0.53895059422E+02 -0.14407013595E+02  0.12590471629E+02  0.57383355136E+02  0.47000000000E+01 0. -1.
        -13    1    6    6    0    0 -0.37281573069E+02  0.30209043941E+02  0.67428993759E+02  0.82759719826E+02  0.00000000000E+00 0.  1.
         14    1    6    6    0    0 -0.53411196369E+02  0.20793083160E+02 -0.13359571329E+02  0.58852241682E+02  0.00000000000E+00 0. -1.
         -5    1    3    3    0  503 -0.11383858138E+02  0.50658205689E+02  0.38244709401E+02  0.64657511760E+02  0.47000000000E+01 0.  1.
         13    1    4    4    0    0 -0.16114435866E+02  0.15951465455E+01  0.13224228524E+01  0.16247102449E+02  0.00000000000E+00 0. -1.
        -14    1    4    4    0    0  0.64296004020E+02 -0.88848465740E+02  0.76149785611E+02  0.13351709945E+03  0.00000000000E+00 0.  1.
</event>
<event>
12    1  0.8461994E-002  0.1808644E+03  0.7818608E-02  0.1167163E+00
         21   -1    0    0  503  502  0.00000000000E+00  0.00000000000E+00  0.13365127863E+03  0.13365127863E+03  0.00000000000E+00 0. -1.
         21   -1    0    0  501  503 -0.00000000000E+00 -0.00000000000E+00 -0.36466946126E+03  0.36466946126E+03  0.00000000000E+00 0. -1.
          6    2    1    2  501    0  0.18873269172E+02  0.49652949441E+02 -0.25886041778E+03  0.31532585087E+03  0.17204668163E+03 0.  0.
         24    2    3    3    0    0 -0.36261284055E+01  0.62007796850E+02 -0.74109555484E+02  0.12874118842E+03  0.84993833330E+02 0.  0.
         -6    2    1    2    0  502 -0.18873269172E+02 -0.49652949441E+02  0.27842235151E+02  0.18299488901E+03  0.17288818256E+03 0.  0.
        -24    2    5    5    0    0  0.19406919613E+02 -0.60932667521E+01  0.76533063869E+02  0.10712852222E+03  0.72148832139E+02 0.  0.
          5    1    3    3  501    0  0.22499397577E+02 -0.12354847409E+02 -0.18475086229E+03  0.18658466246E+03  0.47000000000E+01 0. -1.
        -11    1    4    4    0    0 -0.17464965143E+02 -0.17203476155E+02 -0.13029591957E+02  0.27762472257E+02  0.00000000000E+00 0.  1.
         12    1    4    4    0    0  0.13838836737E+02  0.79211273005E+02 -0.61079963527E+02  0.10097871616E+03  0.00000000000E+00 0. -1.
         -5    1    5    5    0  502 -0.38280188784E+02 -0.43559682689E+02 -0.48690828718E+02  0.75866366794E+02  0.47000000000E+01 0.  1.
         13    1    6    6    0    0  0.43553731704E+02 -0.86023702633E+00  0.68443350559E+02  0.81130510838E+02  0.00000000000E+00 0. -1.
        -14    1    6    6    0    0 -0.24146812091E+02 -0.52330297258E+01  0.80897133093E+01  0.25998011380E+02  0.00000000000E+00 0.  1.
</event>
<event>
12    1  0.8461994E-002  0.2085049E+03  0.7818608E-02  0.1142973E+00
         21   -1    0    0  503  502  0.00000000000E+00  0.00000000000E+00  0.89298037030E+03  0.89298037030E+03  0.00000000000E+00 0. -1.
         21   -1    0    0  501  503 -0.00000000000E+00 -0.00000000000E+00 -0.48601987457E+02  0.48601987457E+02  0.00000000000E+00 0. -1.
          6    2    1    2  501    0  0.10020951706E+03  0.49766665723E+02  0.44900437277E+03  0.49459813865E+03  0.17465315247E+03 0.  0.
         24    2    3    3    0    0  0.13471700106E+03  0.53271040967E+02  0.41069929042E+03  0.44270963866E+03  0.79570364030E+02 0.  0.
         -6    2    1    2    0  502 -0.10020951706E+03 -0.49766665723E+02  0.39537401008E+03  0.44698421911E+03  0.17594208126E+03 0.  0.
        -24    2    5    5    0    0 -0.66017215321E+02  0.31787274385E+02  0.29016862846E+03  0.30946905279E+03  0.78769017777E+02 0.  0.
          5    1    3    3  501    0 -0.34507483999E+02 -0.35043752439E+01  0.38305082351E+02  0.51888499994E+02  0.47000000000E+01 0. -1.
        -13    1    4    4    0    0  0.32007510030E+02  0.24967351685E+02  0.22488846053E+03  0.22852279761E+03  0.00000000000E+00 0.  1.
         14    1    4    4    0    0  0.10270949103E+03  0.28303689283E+02  0.18581082989E+03  0.21418684105E+03  0.00000000000E+00 0. -1.
         -5    1    5    5    0  502 -0.34192301740E+02 -0.81553940108E+02  0.10520538162E+03  0.13751516632E+03  0.47000000000E+01 0.  1.
         13    1    6    6    0    0 -0.12704569405E+02 -0.19644920173E+02  0.25398328501E+02  0.34531204192E+02  0.00000000000E+00 0. -1.
        -14    1    6    6    0    0 -0.53312645917E+02  0.51432194558E+02  0.26477029996E+03  0.27493784860E+03  0.00000000000E+00 0.  1.
</event>
<event>
12    1  0.8461994E-002  0.1977141E+03  0.7818608E-02  0.1151920E+00
         21   -1    0    0  501  502  0.00000000000E+00  0.00000000000E+00  0.20343615250E+03  0.20343615250E+03  0.00000000000E+00 0.  1.
         21   -1    0    0  502  503 -0.00000000000E+00 -0.00000000000E+00 -0.32093222993E+03  0.32093222993E+03  0.00000000000E+00 0.  1.
         -6    2    1    2    0  503 -0.90694832261E+02  0.33637866807E+02 -0.22562141868E+03  0.29999316719E+03  0.17243496487E+03 0.  0.
        -24    2    3    3    0    0 -0.12981837859E+02 -0.36759630619E+02 -0.69902764597E+02  0.11220204287E+03  0.78632711827E+02 0.  0.
          6    2    1    2  501    0  0.90694832261E+02 -0.33637866807E+02  0.10812534125E+03  0.22437521524E+03  0.17116100348E+03 0.  0.
         24    2    5    5    0    0  0.10017272382E+03  0.23212652448E+02  0.10396218683E+03  0.16639906650E+03  0.79417323114E+02 0.  0.
          5    1    5    5  501    0 -0.94778915590E+01 -0.56850519255E+02  0.41631544209E+01  0.57976148740E+02  0.47000000000E+01 0. -1.
        -13    1    6    6    0    0  0.67875695632E+01 -0.24203635494E+02  0.22048985504E+02  0.33437177415E+02  0.00000000000E+00 0.  1.
         14    1    6    6    0    0  0.93385154256E+02  0.47416287943E+02  0.81913201324E+02  0.13296188908E+03  0.00000000000E+00 0. -1.
         -5    1    3    3    0  503 -0.77712994401E+02  0.70397497426E+02 -0.15571865408E+03  0.18779112432E+03  0.47000000000E+01 0.  1.
         13    1    4    4    0    0  0.25936905302E+02 -0.44794536740E+00 -0.48165185430E+02  0.54706569982E+02  0.00000000000E+00 0. -1.
        -14    1    4    4    0    0 -0.38918743161E+02 -0.36311685251E+02 -0.21737579167E+02  0.57495472892E+02  0.00000000000E+00 0.  1.
</event>
<event>
12    1  0.8461994E-002  0.3980050E+03  0.7818608E-02  0.1044500E+00
         21   -1    0    0  503  502  0.00000000000E+00  0.00000000000E+00  0.28862302717E+04  0.28862302717E+04  0.00000000000E+00 0.  1.
         21   -1    0    0  501  503 -0.00000000000E+00 -0.00000000000E+00 -0.63739923867E+02  0.63739923867E+02  0.00000000000E+00 0. -1.
          6    2    1    2  501    0  0.11852955198E+03 -0.33852291325E+03  0.85963610970E+03  0.94717096918E+03  0.17178936600E+03 0.  0.
         24    2    3    3    0    0 -0.62491037129E+01 -0.10117951076E+03  0.29933462407E+03  0.32599349983E+03  0.79963742239E+02 0.  0.
         -6    2    1    2    0  502 -0.11852955198E+03  0.33852291325E+03  0.19628542381E+04  0.20027992263E+04  0.17251366195E+03 0.  0.
        -24    2    5    5    0    0 -0.13604876929E+03  0.21508108163E+03  0.12016550133E+04  0.12314425264E+04  0.87788299133E+02 0.  0.
          5    1    3    3  501    0  0.12477865570E+03 -0.23734340249E+03  0.56030148563E+03  0.62117746934E+03  0.47000000000E+01 0. -1.
        -13    1    4    4    0    0 -0.15695365507E+02  0.92223792525E+01  0.37835641526E+02  0.41987290305E+02  0.00000000000E+00 0.  1.
         14    1    4    4    0    0  0.94462617937E+01 -0.11040189001E+03  0.26149898254E+03  0.28400620953E+03  0.00000000000E+00 0. -1.
         -5    1    5    5    0  502  0.17519217309E+02  0.12344183162E+03  0.76119922480E+03  0.77135669998E+03  0.47000000000E+01 0.  1.
         11    1    6    6    0    0 -0.64167624765E+02  0.16529310396E+03  0.69284030471E+03  0.71516919824E+03  0.00000000000E+00 0. -1.
        -12    1    6    6    0    0 -0.71881144527E+02  0.49787977672E+02  0.50881470858E+03  0.51627332812E+03  0.00000000000E+00 0.  1.
</event>
<event>
12    1  0.8461994E-002  0.2022790E+03  0.7818608E-02  0.1148085E+00
         21   -1    0    0  503  502  0.00000000000E+00  0.00000000000E+00  0.38488497033E+03  0.38488497033E+03  0.00000000000E+00 0. -1.
         21   -1    0    0  501  503 -0.00000000000E+00 -0.00000000000E+00 -0.10648196620E+03  0.10648196620E+03  0.00000000000E+00 0.  1.
          6    2    1    2  501    0 -0.45942495431E+02 -0.96790492555E+02  0.11730518408E+03  0.23277591885E+03  0.17013233040E+03 0.  0.
         24    2    3    3    0    0 -0.91186520247E+02 -0.92702875494E+02  0.75557809364E+02  0.17089972237E+03  0.81172211695E+02 0.  0.
         -6    2    1    2    0  502  0.45942495431E+02  0.96790492555E+02  0.16109782005E+03  0.25859101769E+03  0.17157416608E+03 0.  0.
        -24    2    5    5    0    0 -0.29339886962E+02  0.74540726752E+02  0.13274608858E+03  0.17499436791E+03  0.81144043861E+02 0.  0.
          5    1    3    3  501    0  0.45244024816E+02 -0.40876170613E+01  0.41747374715E+02  0.61876196476E+02  0.47000000000E+01 0. -1.
        -11    1    4    4    0    0 -0.17420742696E+02 -0.40331234103E+02 -0.11431247054E+02  0.45395639984E+02  0.00000000000E+00 0.  1.
         12    1    4    4    0    0 -0.73765777551E+02 -0.52371641391E+02  0.86989056418E+02  0.12550408239E+03  0.00000000000E+00 0. -1.
         -5    1    5    5    0  502  0.75282382393E+02  0.22249765803E+02  0.28351731476E+02  0.83596649782E+02  0.47000000000E+01 0.  1.
         13    1    6    6    0    0 -0.17579741789E+02 -0.76542647695E+01  0.65191255209E+02  0.67952445476E+02  0.00000000000E+00 0. -1.
        -14    1    6    6    0    0 -0.11760145173E+02  0.82194991521E+02  0.67554833370E+02  0.10704192243E+03  0.00000000000E+00 0.  1.
</event>
<event>
12    1  0.8461994E-002  0.2375118E+03  0.7818608E-02  0.1121987E+00
         21   -1    0    0  501  502  0.00000000000E+00  0.00000000000E+00  0.28041352231E+03  0.28041352231E+03  0.00000000000E+00 0.  1.
         21   -1    0    0  502  503 -0.00000000000E+00 -0.00000000000E+00 -0.38919095679E+03  0.38919095679E+03  0.00000000000E+00 0. -1.
         -6    2    1    2    0  503  0.18103689940E+02 -0.16191117097E+03 -0.28888083049E+03  0.37398392740E+03  0.17282613476E+03 0.  0.
        -24    2    3    3    0    0  0.57916625000E+02 -0.17013410449E+03 -0.24280671606E+03  0.31235925333E+03  0.79455980361E+02 0.  0.
          6    2    1    2  501    0 -0.18103689940E+02  0.16191117097E+03  0.18010339601E+03  0.29562055169E+03  0.16855653786E+03 0.  0.
         24    2    5    5    0    0 -0.31294345119E+01  0.13560864765E+03  0.20391998489E+03  0.25682144134E+03  0.77294203008E+02 0.  0.
          5    1    5    5  501    0 -0.14974255428E+02  0.26302523315E+02 -0.23816588873E+02  0.38799110349E+02  0.47000000000E+01 0. -1.
        -11    1    6    6    0    0  0.29183218457E+02  0.10661761086E+03  0.12592752918E+03  0.16756108674E+03  0.00000000000E+00 0.  1.
         12    1    6    6    0    0 -0.32312652969E+02  0.28991036794E+02  0.77992455708E+02  0.89260354602E+02  0.00000000000E+00 0. -1.
         -5    1    3    3    0  503 -0.39812935060E+02  0.82229335230E+01 -0.46074114429E+02  0.61624674070E+02  0.47000000000E+01 0.  1.
         13    1    4    4    0    0  0.54583456968E+02 -0.47364574283E+02 -0.10850535320E+03  0.13036935355E+03  0.00000000000E+00 0. -1.
        -14    1    4    4    0    0  0.33331680327E+01 -0.12276953021E+03 -0.13430136286E+03  0.18198989978E+03  0.00000000000E+00 0.  1.
</event>
<event>
12    1  0.8461994E-002  0.2040395E+03  0.7818608E-02  0.1147077E+00
         21   -1    0    0  501  502  0.00000000000E+00  0.00000000000E+00  0.91782687274E+03  0.91782687274E+03  0.00000000000E+00 0.  1.
         21   -1    0    0  502  503 -0.00000000000E+00 -0.00000000000E+00 -0.44615268029E+02  0.44615268029E+02  0.00000000000E+00 0. -1.
         -6    2    1    2    0  503  0.56026051982E+02  0.83461791368E+02  0.44568892702E+03  0.49017419320E+03  0.17755937285E+03 0.  0.
        -24    2    3    3    0    0 -0.39754134937E+02  0.48200992095E+02  0.21509588937E+03  0.23795919129E+03  0.80340576377E+02 0.  0.
          6    2    1    2  501    0 -0.56026051982E+02 -0.83461791368E+02  0.42752267769E+03  0.47226794758E+03  0.17365651513E+03 0.  0.
         24    2    5    5    0    0 -0.36103727976E+02  0.46306821573E+01  0.10072250662E+03  0.13318444061E+03  0.79171645740E+02 0.  0.
          5    1    5    5  501    0 -0.19922324006E+02 -0.88092473526E+02  0.32680017107E+03  0.33908350697E+03  0.47000000000E+01 0. -1.
        -13    1    6    6    0    0 -0.23393254527E+02  0.40003469421E+02  0.73051258899E+02  0.86510163274E+02  0.00000000000E+00 0.  1.
         14    1    6    6    0    0 -0.12710473449E+02 -0.35372787264E+02  0.27671247720E+02  0.46674277333E+02  0.00000000000E+00 0. -1.
         -5    1    3    3    0  503  0.95780186919E+02  0.35260799273E+02  0.23059303766E+03  0.25221500191E+03  0.47000000000E+01 0.  1.
         11    1    4    4    0    0  0.17983968304E+02 -0.35419844572E+01  0.16110974509E+02  0.24403529857E+02  0.00000000000E+00 0. -1.
        -12    1    4    4    0    0 -0.57738103241E+02  0.51742976552E+02  0.19898491486E+03  0.21355566143E+03  0.00000000000E+00 0.  1.
</event>
<event>
12    1  0.8461994E-002  0.1819184E+03  0.7818608E-02  0.1166439E+00
         21   -1    0    0  503  502  0.00000000000E+00  0.00000000000E+00  0.20801625891E+03  0.20801625891E+03  0.00000000000E+00 0. -1.
         21   -1    0    0  501  503 -0.00000000000E+00 -0.00000000000E+00 -0.25679826514E+03  0.25679826514E+03  0.00000000000E+00 0. -1.
          6    2    1    2  501    0 -0.73545644348E+01  0.52249000832E+02 -0.16893277112E+03  0.24679956209E+03  0.17201074089E+03 0.  0.
         24    2    3    3    0    0  0.62415413579E+02  0.37433915788E+02 -0.86569804310E+02  0.13774414095E+03  0.78626556871E+02 0.  0.
         -6    2    1    2    0  502  0.73545644348E+01 -0.52249000832E+02  0.12015076489E+03  0.21801496196E+03  0.17409844809E+03 0.  0.
        -24    2    5    5    0    0 -0.40700446963E+02 -0.39988709412E+02  0.15295470822E+02  0.10192740207E+03  0.83063954891E+02 0.  0.
          5    1    3    3  501    0 -0.69769978014E+02  0.14815085044E+02 -0.82362966806E+02  0.10905542113E+03  0.47000000000E+01 0. -1.
        -13    1    4    4    0    0  0.55382821643E+02  0.20916174864E+02 -0.11181257890E+02  0.60247521377E+02  0.00000000000E+00 0.  1.
         14    1    4    4    0    0  0.70325919361E+01  0.16517740924E+02 -0.75388546420E+02  0.77496619577E+02  0.00000000000E+00 0. -1.
         -5    1    5    5    0  502  0.48055011398E+02 -0.12260291419E+02  0.10485529407E+03  0.11608755988E+03  0.47000000000E+01 0.  1.
         13    1    6    6    0    0  0.19377484664E+02 -0.33869576699E+02 -0.21172050418E+01  0.39078353277E+02  0.00000000000E+00 0. -1.
        -14    1    6    6    0    0 -0.60077931628E+02 -0.61191327138E+01  0.17412675864E+02  0.62849048796E+02  0.00000000000E+00 0.  1.
</event>
<event>
12    1  0.8461994E-002  0.2508730E+03  0.7818608E-02  0.1113122E+00
         21   -1    0    0  501  502  0.00000000000E+00  0.00000000000E+00  0.71875089370E+03  0.71875089370E+03  0.00000000000E+00 0. -1.
         21   -1    0    0  502  503 -0.00000000000E+00 -0.00000000000E+00 -0.87335047863E+02  0.87335047863E+02  0.00000000000E+00 0. -1.
         -6    2    1    2    0  503  0.15663230413E+03 -0.87254254733E+02  0.35000468199E+03  0.43062805541E+03  0.17547153907E+03 0.  0.
        -24    2    3    3    0    0  0.53743864974E+02 -0.11466709912E+03  0.18176504304E+03  0.23146942249E+03  0.67101535279E+02 0.  0.
          6    2    1    2  501    0 -0.15663230413E+03  0.87254254733E+02  0.28141116384E+03  0.37545788615E+03  0.17213191880E+03 0.  0.
         24    2    5    5    0    0 -0.17747659390E+02  0.74404719815E+02  0.12879722449E+03  0.16865566281E+03  0.77491714503E+02 0.  0.
          5    1    5    5  501    0 -0.13888464474E+03  0.12849534918E+02  0.15261393935E+03  0.20680222334E+03  0.47000000000E+01 0. -1.
        -13    1    6    6    0    0 -0.33840561967E+02  0.50365108308E+02  0.34025433911E+02  0.69566931238E+02  0.00000000000E+00 0.  1.
         14    1    6    6    0    0  0.16092902577E+02  0.24039611507E+02  0.94771790575E+02  0.99088731567E+02  0.00000000000E+00 0. -1.
         -5    1    3    3    0  503  0.10288843916E+03  0.27412844383E+02  0.16823963896E+03  0.19915863292E+03  0.47000000000E+01 0.  1.
         13    1    4    4    0    0  0.56137681635E+02 -0.41474291728E+02  0.81379228143E+02  0.10721070351E+03  0.00000000000E+00 0. -1.
        -14    1    4    4    0    0 -0.23938166613E+01 -0.73192807388E+02  0.10038581490E+03  0.12425871899E+03  0.00000000000E+00 0.  1.
</event>
<event>
12    1  0.8461994E-002  0.2690912E+03  0.7818608E-02  0.1101828E+00
         21   -1    0    0  503  502  0.00000000000E+00  0.00000000000E+00  0.98491210172E+02  0.98491210172E+02  0.00000000000E+00 0. -1.
         21   -1    0    0  501  503 -0.00000000000E+00 -0.00000000000E+00 -0.75171198912E+03  0.75171198912E+03  0.00000000000E+00 0. -1.
          6    2    1    2  501    0 -0.76095469109E+02  0.19185766264E+03 -0.39047959594E+03  0.47411407954E+03  0.17236578092E+03 0.  0.
         24    2    3    3    0    0 -0.33240613442E+02  0.39475151857E+02 -0.63162583531E+02  0.11049960669E+03  0.74548139646E+02 0.  0.
         -6    2    1    2    0  502  0.76095469109E+02 -0.19185766264E+03 -0.26274118301E+03  0.37608911976E+03  0.17265634544E+03 0.  0.
        -24    2    5    5    0    0  0.92564879435E+02 -0.21115459757E+03 -0.23874628893E+03  0.34085478826E+03  0.77638104217E+02 0.  0.
          5    1    3    3  501    0 -0.42854855667E+02  0.15238251078E+03 -0.32731701241E+03  0.36361447284E+03  0.47000000000E+01 0. -1.
        -11    1    4    4    0    0  0.15837820776E+01  0.52652453553E+02 -0.29892745051E+02  0.60567032597E+02  0.00000000000E+00 0.  1.
         12    1    4    4    0    0 -0.34824395520E+02 -0.13177301696E+02 -0.33269838480E+02  0.49932574096E+02  0.00000000000E+00 0. -1.
         -5    1    5    5    0  502 -0.16469410326E+02  0.19296934926E+02 -0.23994894079E+02  0.35234331495E+02  0.47000000000E+01 0.  1.
         11    1    6    6    0    0  0.58129576050E+02 -0.51414452759E+02 -0.55975191100E+02  0.95685503515E+02  0.00000000000E+00 0. -1.
        -12    1    6    6    0    0  0.34435303385E+02 -0.15974014481E+03 -0.18277109783E+03  0.24516928475E+03  0.00000000000E+00 0.  1.
</event>
<event>
12    1  0.8461994E-002  0.2482033E+03  0.7818608E-02  0.1114650E+00
         21   -1    0    0  501  502  0.00000000000E+00  0.00000000000E+00  0.10493637723E+03  0.10493637723E+03  0.00000000000E+00 0.  1.
         21   -1    0    0  502  503 -0.00000000000E+00 -0.00000000000E+00 -0.93525285726E+03  0.93525285726E+03  0.00000000000E+00 0. -1.
         -6    2    1    2    0  503 -0.78513433419E+02 -0.15945146371E+03 -0.95779243012E+02  0.26485070454E+03  0.17141500459E+03 0.  0.
        -24    2    3    3    0    0 -0.54383565422E+02 -0.14663203374E+03 -0.11885234917E+02  0.17649413767E+03  0.80934518706E+02 0.  0.
          6    2    1    2  501    0  0.78513433419E+02  0.15945146371E+03 -0.73453723702E+03  0.77533852995E+03  0.17325055542E+03 0.  0.
         24    2    5    5    0    0  0.39921717586E+02  0.15174542871E+02 -0.37835175961E+03  0.38908041064E+03  0.80059363334E+02 0.  0.
          5    1    5    5  501    0  0.38591715833E+02  0.14427692084E+03 -0.35618547741E+03  0.38625811931E+03  0.47000000000E+01 0. -1.
        -11    1    6    6    0    0  0.42081650735E+02 -0.13679645273E+02 -0.10156807875E+03  0.11078841386E+03  0.00000000000E+00 0.  1.
         12    1    6    6    0    0 -0.21599331491E+01  0.28854188143E+02 -0.27678368086E+03  0.27829199679E+03  0.00000000000E+00 0. -1.
         -5    1    3    3    0  503 -0.24129867997E+02 -0.12819429970E+02 -0.83894008094E+02  0.88356566866E+02  0.47000000000E+01 0.  1.
         13    1    4    4    0    0  0.11283114811E+02 -0.12658807048E+02 -0.21027694192E+02  0.27013293001E+02  0.00000000000E+00 0. -1.
        -14    1    4    4    0    0 -0.65666680233E+02 -0.13397322669E+03  0.91424592748E+01  0.14948084467E+03  0.00000000000E+00 0.  1.
</event>
<event>
12    1  0.8461994E-002  0.1722964E+03  0.7818608E-02  0.1176071E+00
         21   -1    0    0  501  502  0.00000000000E+00  0.00000000000E+00  0.11268988314E+03  0.11268988314E+03  0.00000000000E+00 0. -1.
         21   -1    0    0  502  503 -0.00000000000E+00 -0.00000000000E+00 -0.28126954232E+03  0.28126954232E+03  0.00000000000E+00 0. -1.
         -6    2    1    2    0  503  0.71076346410E+01  0.10431311189E+02 -0.30530843253E+02  0.17498052680E+03  0.17183341248E+03 0.  0.
        -24    2    3    3    0    0  0.47252789223E+02 -0.11342307516E+02  0.31268821173E+02  0.97993434172E+02  0.79142276529E+02 0.  0.
          6    2    1    2  501    0 -0.71076346410E+01 -0.10431311189E+02 -0.13804881593E+03  0.21897889866E+03  0.16951386892E+03 0.  0.
         24    2    5    5    0    0  0.33991757326E+02 -0.42315372359E+02 -0.13552042167E+03  0.16668897464E+03  0.80457437653E+02 0.  0.
          5    1    5    5  501    0 -0.41099391967E+02  0.31884061171E+02 -0.25283942661E+01  0.52289924023E+02  0.47000000000E+01 0. -1.
        -13    1    6    6    0    0  0.41651939320E+02 -0.59551490839E+02 -0.80134615082E+02  0.10817957591E+03  0.00000000000E+00 0.  1.
         14    1    6    6    0    0 -0.76601819936E+01  0.17236118479E+02 -0.55385806585E+02  0.58509398727E+02  0.00000000000E+00 0. -1.
         -5    1    3    3    0  503 -0.40145154582E+02  0.21773618705E+02 -0.61799664426E+02  0.76987092627E+02  0.47000000000E+01 0.  1.
         13    1    4    4    0    0  0.60700301472E+02  0.14495396507E+02  0.28887160174E+02  0.68768533077E+02  0.00000000000E+00 0. -1.
        -14    1    4    4    0    0 -0.13447512249E+02 -0.25837704024E+02  0.23816609992E+01  0.29224901095E+02  0.00000000000E+00 0.  1.
</event>
<event>
12    1  0.8461994E-002  0.1910714E+03  0.7818608E-02  0.1157512E+00
         21   -1    0    0  501  502  0.00000000000E+00  0.00000000000E+00  0.31490577303E+03  0.31490577303E+03  0.00000000000E+00 0. -1.
         21   -1    0    0  502  503 -0.00000000000E+00 -0.00000000000E+00 -0.11606152321E+03  0.11606152321E+03  0.00000000000E+00 0. -1.
         -6    2    1    2    0  503 -0.92106310666E+01 -0.82384108067E+02  0.91339003790E+02  0.21172849082E+03  0.17208766146E+03 0.  0.
        -24    2    3    3    0    0 -0.41063396690E+02 -0.11445516471E+03  0.81861344683E+02  0.16530578761E+03  0.76410315970E+02 0.  0.
          6    2    1    2  501    0  0.92106310666E+01  0.82384108067E+02  0.10750524603E+03  0.21923880542E+03  0.17215196453E+03 0.  0.
         24    2    5    5    0    0  0.53475943310E+02 -0.37146657864E+01  0.61419437438E+02  0.11191495681E+03  0.76675517655E+02 0.  0.
          5    1    5    5  501    0 -0.44265312243E+02  0.86098773854E+02  0.46085808592E+02  0.10732384861E+03  0.47000000000E+01 0. -1.
        -13    1    6    6    0    0  0.13078235727E+02 -0.35919950735E+02  0.41819369163E+02  0.56658121640E+02  0.00000000000E+00 0.  1.
         14    1    6    6    0    0  0.40397707583E+02  0.32205284949E+02  0.19600068275E+02  0.55256835169E+02  0.00000000000E+00 0. -1.
         -5    1    3    3    0  503  0.31852765624E+02  0.32071056640E+02  0.94776591075E+01  0.46422703218E+02  0.47000000000E+01 0.  1.
         13    1    4    4    0    0 -0.29725722403E+02 -0.44974259123E+02  0.77977743896E+02  0.94798898196E+02  0.00000000000E+00 0. -1.
        -14    1    4    4    0    0 -0.11337674287E+02 -0.69480905585E+02  0.38836007863E+01  0.70506889409E+02  0.00000000000E+00 0.  1.
</event>
<event>
12    1  0.8461994E-002  0.2252208E+03  0.7818608E-02  0.1130124E+00
         21   -1    0    0  501  502  0.00000000000E+00  0.00000000000E+00  0.14927238070E+03  0.14927238070E+03  0.00000000000E+00 0. -1.
         21   -1    0    0  502  503 -0.00000000000E+00 -0.00000000000E+00 -0.51192341227E+03  0.51192341227E+03  0.00000000000E+00 0.  1.
         -6    2    1    2    0  503 -0.59495772908E+02 -0.13165706576E+03 -0.37325285979E+03  0.43572562393E+03  0.17223760348E+03 0.  0.
        -24    2    3    3    0    0 -0.24868903140E+02 -0.15290290308E+02 -0.75522425572E+02  0.11415798253E+03  0.80474548089E+02 0.  0.
          6    2    1    2  501    0  0.59495772908E+02  0.13165706576E+03  0.10601828220E+02  0.22547016903E+03  0.17277461736E+03 0.  0.
         24    2    5    5    0    0  0.76367495233E+02  0.16066449602E+02  0.90073127905E+01  0.10854934951E+03  0.74911310661E+02 0.  0.
          5    1    5    5  501    0 -0.16871722325E+02  0.11559061616E+03  0.15945154291E+01  0.11692081952E+03  0.47000000000E+01 0. -1.
        -13    1    6    6    0    0  0.54648139574E+02  0.29598637889E+02 -0.24140679812E+02  0.66672865137E+02  0.00000000000E+00 0.  1.
         14    1    6    6    0    0  0.21719355659E+02 -0.13532188287E+02  0.33147992602E+02  0.41876484376E+02  0.00000000000E+00 0. -1.
         -5    1    3    3    0  503 -0.34626869769E+02 -0.11636677545E+03 -0.29773043421E+03  0.32156764140E+03  0.47000000000E+01 0.  1.
         11    1    4    4    0    0 -0.28845485812E+02 -0.42185335132E+02 -0.69576120120E+02  0.86327869445E+02  0.00000000000E+00 0. -1.
        -12    1    4    4    0    0  0.39765826728E+01  0.26895044824E+02 -0.59463054516E+01  0.27830113085E+02  0.00000000000E+00 0.  1.
</event>
<event>
12    1  0.8461994E-002  0.1836036E+03  0.7818608E-02  0.1164795E+00
         21   -1    0    0  503  502  0.00000000000E+00  0.00000000000E+00  0.74994013340E+02  0.74994013340E+02  0.00000000000E+00 0.  1.
         21   -1    0    0  501  503 -0.00000000000E+00 -0.00000000000E+00 -0.44954852075E+03  0.44954852075E+03  0.00000000000E+00 0.  1.
          6    2    1    2  501    0  0.16152491157E+02 -0.53505830120E+02 -0.21265348819E+03  0.27975237167E+03  0.17296273179E+03 0.  0.
         24    2    3    3    0    0  0.39834504575E+02  0.28294475373E+02 -0.10078242432E+03  0.13907773761E+03  0.82450924519E+02 0.  0.
         -6    2    1    2    0  502 -0.16152491157E+02  0.53505830120E+02 -0.16190101922E+03  0.24479016242E+03  0.17488998475E+03 0.  0.
        -24    2    5    5    0    0  0.46574079227E+02  0.22439245426E+02 -0.14521852759E+03  0.17267809100E+03  0.77824403414E+02 0.  0.
          5    1    3    3  501    0 -0.23682013417E+02 -0.81800305494E+02 -0.11187106387E+03  0.14067463406E+03  0.47000000000E+01 0. -1.
        -11    1    4    4    0    0  0.36302165656E+01 -0.25219026380E+02 -0.93913224714E+01  0.27154644200E+02  0.00000000000E+00 0.  1.
         12    1    4    4    0    0  0.36204288009E+02  0.53513501753E+02 -0.91391101851E+02  0.11192309341E+03  0.00000000000E+00 0. -1.
         -5    1    5    5    0  502 -0.62726570384E+02  0.31066584694E+02 -0.16682491633E+02  0.72112071415E+02  0.47000000000E+01 0.  1.
         11    1    6    6    0    0  0.42610408783E+02 -0.63539538610E+01 -0.26782571083E+02  0.50727958565E+02  0.00000000000E+00 0. -1.
        -12    1    6    6    0    0  0.39636704436E+01  0.28793199287E+02 -0.11843595651E+03  0.12195013244E+03  0.00000000000E+00 0.  1.
</event>
<event>
12    1  0.8461994E-002  0.2721073E+03  0.7818608E-02  0.1100242E+00
         21   -1    0    0  501  502  0.00000000000E+00  0.00000000000E+00  0.16610391758E+03  0.16610391758E+03  0.00000000000E+00 0.  1.
         21   -1    0    0  502  503 -0.00000000000E+00 -0.00000000000E+00 -0.61853865909E+03  0.61853865909E+03  0.00000000000E+00 0. -1.
         -6    2    1    2    0  503  0.76672859981E+02  0.19469932539E+03 -0.43502617567E+03  0.51311805987E+03  0.17394198768E+03 0.  0.
        -24    2    3    3    0    0  0.77976239380E+02  0.68328616940E+02 -0.12104998799E+03  0.17462966837E+03  0.71367553414E+02 0.  0.
          6    2    1    2  501    0 -0.76672859981E+02 -0.19469932539E+03 -0.17408565840E+02  0.27152451680E+03  0.17215095206E+03 0.  0.
         24    2    5    5    0    0 -0.54557193139E+02 -0.11346573922E+03  0.54986101320E+02  0.16038912157E+03  0.82766162639E+02 0.  0.
          5    1    5    5  501    0 -0.22115666842E+02 -0.81233586164E+02 -0.72394667160E+02  0.11113539523E+03  0.47000000000E+01 0. -1.
        -11    1    6    6    0    0  0.17857532912E+02 -0.85753661113E+01 -0.35593583408E+01  0.20127032008E+02  0.00000000000E+00 0.  1.
         12    1    6    6    0    0 -0.72414726051E+02 -0.10489037311E+03  0.58545459660E+02  0.14026208956E+03  0.00000000000E+00 0. -1.
         -5    1    3    3    0  503 -0.13033793991E+01  0.12637070845E+03 -0.31397618768E+03  0.33848839150E+03  0.47000000000E+01 0.  1.
         13    1    4    4    0    0 -0.41897305617E+01  0.41161418716E+01 -0.45450399110E+02  0.45828323614E+02  0.00000000000E+00 0. -1.
        -14    1    4    4    0    0  0.82165969942E+02  0.64212475068E+02 -0.75599588882E+02  0.12880134475E+03  0.00000000000E+00 0.  1.
</event>
<event>
12    1  0.8461994E-002  0.1853381E+03  0.7818608E-02  0.1163142E+00
         21   -1    0    0  501  502  0.00000000000E+00  0.00000000000E+00  0.10814466742E+03  0.10814466742E+03  0.00000000000E+00 0.  1.
         21   -1    0    0  502  503 -0.00000000000E+00 -0.00000000000E+00 -0.52111977315E+03  0.52111977315E+03  0.00000000000E+00 0.  1.
         -6    2    1    2    0  503  0.61728143068E+02 -0.22592630293E+02 -0.40393914904E+03  0.44370624433E+03  0.17142813229E+03 0.  0.
        -24    2    3    3    0    0  0.68481623884E+01  0.22838985966E+01 -0.82408360552E+02  0.11654452298E+03  0.82093692985E+02 0.  0.
          6    2    1    2  501    0 -0.61728143068E+02  0.22592630293E+02 -0.90359566892E+01  0.18555819624E+03  0.17328994514E+03 0.  0.
         24    2    5    5    0    0 -0.13558474887E+01  0.69586684299E+02  0.88576521507E+01  0.10684652987E+03  0.80582740018E+02 0.  0.
          5    1    5    5  501    0 -0.60372295579E+02 -0.46994054006E+02 -0.17893608840E+02  0.78711666370E+02  0.47000000000E+01 0. -1.
        -13    1    6    6    0    0  0.12557428009E+02  0.20722360159E+02  0.40353733163E+02  0.47069406083E+02  0.00000000000E+00 0.  1.
         14    1    6    6    0    0 -0.13913275498E+02  0.48864324140E+02 -0.31496081013E+02  0.59777123784E+02  0.00000000000E+00 0. -1.
         -5    1    3    3    0  503  0.54879980680E+02 -0.24876528890E+02 -0.32153078849E+03  0.32716172135E+03  0.47000000000E+01 0.  1.
         11    1    4    4    0    0 -0.28020904060E+02  0.15445818518E+02 -0.70494973956E+02  0.77416314347E+02  0.00000000000E+00 0. -1.
        -12    1    4    4    0    0  0.34869066448E+02 -0.13161919921E+02 -0.11913386596E+02  0.39128208638E+02  0.00000000000E+00 0.  1.
</event>
<event>
12    1  0.8461994E-002  0.2164347E+03  0.7818608E-02  0.1137820E+00
         21   -1    0    0  503  502  0.00000000000E+00  0.00000000000E+00  0.15693555690E+03  0.15693555690E+03  0.00000000000E+00 0. -1.
         21   -1    0    0  501  503 -0.00000000000E+00 -0.00000000000E+00 -0.28975795342E+03  0.28975795342E+03  0.00000000000E+00 0. -1.
          6    2    1    2  501    0 -0.18236262917E+02 -0.11130073918E+03 -0.69868654526E+02  0.22128906754E+03  0.17710676639E+03 0.  0.
         24    2    3    3    0    0 -0.44346144605E+02 -0.82559274157E+02 -0.10962414812E+03  0.16551822386E+03  0.81217081270E+02 0.  0.
         -6    2    1    2    0  502  0.18236262917E+02  0.11130073918E+03 -0.62953742000E+02  0.22540444279E+03  0.18472567057E+03 0.  0.
        -24    2    5    5    0    0  0.60828144147E+02  0.12080000651E+03 -0.11950685520E+02  0.15811621055E+03  0.81025998677E+02 0.  0.
          5    1    3    3  501    0  0.26109881688E+02 -0.28741465021E+02  0.39755493592E+02  0.55770843673E+02  0.47000000000E+01 0. -1.
        -13    1    4    4    0    0 -0.49509935744E+02 -0.63619364482E+02 -0.34178628198E+02  0.87560469962E+02  0.00000000000E+00 0.  1.
         14    1    4    4    0    0  0.51637911396E+01 -0.18939909674E+02 -0.75445519920E+02  0.77957753902E+02  0.00000000000E+00 0. -1.
         -5    1    5    5    0  502 -0.42591881230E+02 -0.94992673351E+01 -0.51003056480E+02  0.67288232232E+02  0.47000000000E+01 0.  1.
         13    1    6    6    0    0 -0.41266497363E+01  0.77736860202E+02 -0.18159192368E+02  0.79936255476E+02  0.00000000000E+00 0. -1.
        -14    1    6    6    0    0  0.64954793883E+02  0.43063146311E+02  0.62085068484E+01  0.78179955077E+02  0.00000000000E+00 0.  1.
</event>
<event>
12    1  0.8461994E-002  0.1912324E+03  0.7818608E-02  0.1157466E+00
         21   -1    0    0  503  502  0.00000000000E+00  0.00000000000E+00  0.13287389009E+03  0.13287389009E+03  0.00000000000E+00 0.  1.
         21   -1    0    0  501  503 -0.00000000000E+00 -0.00000000000E+00 -0.39141196579E+03  0.39141196579E+03  0.00000000000E+00 0. -1.
          6    2    1    2  501    0  0.54812106293E+02  0.60653367410E+02 -0.27241583780E+03  0.33255060128E+03  0.17232618999E+03 0.  0.
         24    2    3    3    0    0 -0.85243604348E+01  0.26895140912E+02 -0.23354094514E+03  0.25079197389E+03  0.86943819714E+02 0.  0.
         -6    2    1    2    0  502 -0.54812106293E+02 -0.60653367410E+02  0.13877762107E+02  0.19173525460E+03  0.17287746412E+03 0.  0.
        -24    2    5    5    0    0 -0.20650936649E+02  0.29025509899E+02 -0.11084488276E+02  0.92465468201E+02  0.84605292505E+02 0.  0.
          5    1    3    3  501    0  0.63336466728E+02  0.33758226498E+02 -0.38874892664E+02  0.81758627394E+02  0.47000000000E+01 0. -1.
        -11    1    4    4    0    0  0.35456124807E+02  0.22857057374E+02 -0.73261879209E+02  0.84539250076E+02  0.00000000000E+00 0.  1.
         12    1    4    4    0    0 -0.43980485242E+02  0.40380835378E+01 -0.16027906593E+03  0.16625272381E+03  0.00000000000E+00 0. -1.
         -5    1    5    5    0  502 -0.34161169643E+02 -0.89678877309E+02  0.24962250383E+02  0.99269786395E+02  0.47000000000E+01 0.  1.
         11    1    6    6    0    0 -0.28625919469E+02 -0.10149392468E+02 -0.34635433854E+02  0.46065895314E+02  0.00000000000E+00 0. -1.
        -12    1    6    6    0    0  0.79749828192E+01  0.39174902367E+02  0.23550945578E+02  0.46399572886E+02  0.00000000000E+00 0.  1.
</event>
<event>
12    1  0.8461994E-002  0.3774159E+03  0.7818608E-02  0.1051905E+00
         21   -1    0    0  501  502  0.00000000000E+00  0.00000000000E+00  0.64934628159E+03  0.64934628159E+03  0.00000000000E+00 0. -1.
         21   -1    0    0  502  503 -0.00000000000E+00 -0.00000000000E+00 -0.38406025667E+03  0.38406025667E+03  0.00000000000E+00 0.  1.
         -6    2    1    2    0  503 -0.33006426855E+03  0.61953106552E+02 -0.20581413838E+03  0.42976913794E+03  0.17193441652E+03 0.  0.
        -24    2    3    3    0    0 -0.32389982574E+03  0.51679733641E+02 -0.22559252925E+03  0.40617216161E+03  0.80634630484E+02 0.  0.
          6    2    1    2  501    0  0.33006426855E+03 -0.61953106552E+02  0.47110016329E+03  0.60363740032E+03  0.17222699678E+03 0.  0.
         24    2    5    5    0    0  0.20978776891E+03 -0.83152596559E+02  0.38690654343E+03  0.45522409105E+03  0.81283684835E+02 0.  0.
          5    1    5    5  501    0  0.12027649965E+03  0.21199490008E+02  0.84193619864E+02  0.14841330927E+03  0.47000000000E+01 0. -1.
        -11    1    6    6    0    0  0.11406797276E+03 -0.41680544581E+02  0.12977103421E+03  0.17773376586E+03  0.00000000000E+00 0.  1.
         12    1    6    6    0    0  0.95719796147E+02 -0.41472051978E+02  0.25713550922E+03  0.27749032519E+03  0.00000000000E+00 0. -1.
         -5    1    3    3    0  503 -0.61644428123E+01  0.10273372911E+02  0.19778390873E+02  0.23596976325E+02  0.47000000000E+01 0.  1.
         11    1    4    4    0    0 -0.99421320854E+02  0.29593224352E+02 -0.30982253925E+02  0.10826014052E+03  0.00000000000E+00 0. -1.
        -12    1    4    4    0    0 -0.22447850489E+03  0.22086509289E+02 -0.19461027532E+03  0.29791202109E+03  0.00000000000E+00 0.  1.
</event>
<event>
12    1  0.8461994E-002  0.1816343E+03  0.7818608E-02  0.1166434E+00
         21   -1    0    0  503  502  0.00000000000E+00  0.00000000000E+00  0.21264904443E+03  0.21264904443E+03  0.00000000000E+00 0.  1.
         21   -1    0    0  501  503 -0.00000000000E+00 -0.00000000000E+00 -0.23070907187E+03  0.23070907187E+03  0.00000000000E+00 0.  1.
          6    2    1    2  501    0 -0.14772977199E+02 -0.56824609415E+02 -0.13652011081E+03  0.22721959995E+03  0.17188289286E+03 0.  0.
         24    2    3    3    0    0 -0.67997806231E+02 -0.88382218938E+00 -0.73019586285E+02  0.12713633104E+03  0.78786444872E+02 0.  0.
         -6    2    1    2    0  502  0.14772977199E+02  0.56824609415E+02  0.11846008337E+03  0.21613851634E+03  0.17098476483E+03 0.  0.
        -24    2    5    5    0    0  0.69705330083E+02  0.24649951663E+02  0.10395802031E+03  0.15067729250E+03  0.80186802707E+02 0.  0.
          5    1    3    3  501    0  0.53224829032E+02 -0.55940787226E+02 -0.63500524527E+02  0.10008326891E+03  0.47000000000E+01 0. -1.
        -13    1    4    4    0    0 -0.12197572413E+02 -0.28509142148E+02  0.21642368237E+00  0.31009656528E+02  0.00000000000E+00 0.  1.
         14    1    4    4    0    0 -0.55800233818E+02  0.27625319959E+02 -0.73236009968E+02  0.96126674513E+02  0.00000000000E+00 0. -1.
         -5    1    5    5    0  502 -0.54932352884E+02  0.32174657752E+02  0.14502063059E+02  0.65461223849E+02  0.47000000000E+01 0.  1.
         13    1    6    6    0    0 -0.15408837462E+02 -0.69478509543E+01  0.25991908179E+02  0.31004583461E+02  0.00000000000E+00 0. -1.
        -14    1    6    6    0    0  0.85114167545E+02  0.31597802617E+02  0.77966112131E+02  0.11967270904E+03  0.00000000000E+00 0.  1.
</event>
<event>
12    1  0.8461994E-002  0.2215644E+03  0.7818608E-02  0.1132731E+00
         21   -1    0    0  503  502  0.00000000000E+00  0.00000000000E+00  0.42148249449E+03  0.42148249449E+03  0.00000000000E+00 0.  1.
         21   -1    0    0  501  503 -0.00000000000E+00 -0.00000000000E+00 -0.23481991758E+03  0.23481991758E+03  0.00000000000E+00 0. -1.
          6    2    1    2  501    0 -0.13272271401E+03  0.40718528824E+02 -0.13966230899E+03  0.26186772418E+03  0.17261467786E+03 0.  0.
         24    2    3    3    0    0 -0.73873115089E+02 -0.37854316109E+02 -0.10981809309E+03  0.15915582382E+03  0.79877257742E+02 0.  0.
         -6    2    1    2    0  502  0.13272271401E+03 -0.40718528824E+02  0.32632488590E+03  0.39443468789E+03  0.17267737099E+03 0.  0.
        -24    2    5    5    0    0  0.70929148488E+02  0.44428281564E+02  0.17424428319E+03  0.20945084054E+03  0.80645942690E+02 0.  0.
          5    1    3    3  501    0 -0.58849598923E+02  0.78572844933E+02 -0.29844215896E+02  0.10271190037E+03  0.47000000000E+01 0. -1.
        -13    1    4    4    0    0 -0.66042770060E+01 -0.21507143413E+02 -0.81179126240E+02  0.84239089677E+02  0.00000000000E+00 0.  1.
         14    1    4    4    0    0 -0.67268838083E+02 -0.16347172696E+02 -0.28638966850E+02  0.74916734141E+02  0.00000000000E+00 0. -1.
         -5    1    5    5    0  502  0.61793565523E+02 -0.85146810388E+02  0.15208060271E+03  0.18498384735E+03  0.47000000000E+01 0.  1.
         13    1    6    6    0    0  0.35057049147E+02 -0.10989725109E+02  0.20358274324E+02  0.42002739034E+02  0.00000000000E+00 0. -1.
        -14    1    6    6    0    0  0.35872099341E+02  0.55418006674E+02  0.15388600887E+03  0.16744810151E+03  0.00000000000E+00 0.  1.
</event>
<event>
12    1  0.8461994E-002  0.1756249E+03  0.7818608E-02  0.1172495E+00
         21   -1    0    0  501  502  0.00000000000E+00  0.00000000000E+00  0.43755531433E+03  0.43755531433E+03  0.00000000000E+00 0. -1.
         21   -1    0    0  502  503 -0.00000000000E+00 -0.00000000000E+00 -0.94210651564E+02  0.94210651564E+02  0.00000000000E+00 0. -1.
         -6    2    1    2    0  503 -0.36677918773E+02  0.37070026803E+01  0.30625107095E+03  0.35226659188E+03  0.17012648737E+03 0.  0.
        -24    2    3    3    0    0  0.27919834916E+02 -0.13724114893E+02  0.25129782575E+03  0.26555636873E+03  0.80010744491E+02 0.  0.
          6    2    1    2  501    0  0.36677918773E+02 -0.37070026803E+01  0.37093591821E+02  0.17949937402E+03  0.17171219853E+03 0.  0.
         24    2    5    5    0    0 -0.21441784529E+02  0.41803763500E+02  0.19268848426E+02  0.10341428200E+03  0.90088403444E+02 0.  0.
          5    1    5    5  501    0  0.58119703301E+02 -0.45510766180E+02  0.17824743395E+02  0.76085092017E+02  0.47000000000E+01 0. -1.
        -13    1    6    6    0    0 -0.72572855042E+01 -0.28067263750E+02 -0.18690031773E+01  0.29050519104E+02  0.00000000000E+00 0.  1.
         14    1    6    6    0    0 -0.14184499025E+02  0.69871027250E+02  0.21137851603E+02  0.74363762895E+02  0.00000000000E+00 0. -1.
         -5    1    3    3    0  503 -0.64597753688E+02  0.17431117573E+02  0.54953245200E+02  0.86710223154E+02  0.47000000000E+01 0.  1.
         11    1    4    4    0    0 -0.17952445951E+02 -0.27533483690E+02  0.60675262389E+02  0.69006307724E+02  0.00000000000E+00 0. -1.
        -12    1    4    4    0    0  0.45872280867E+02  0.13809368796E+02  0.19062256336E+03  0.19655006100E+03  0.00000000000E+00 0.  1.
</event>
<event>
12    1  0.8461994E-002  0.2509365E+03  0.7818608E-02  0.1112848E+00
         21   -1    0    0  501  502  0.00000000000E+00  0.00000000000E+00  0.36600816035E+03  0.36600816035E+03  0.00000000000E+00 0.  1.
         21   -1    0    0  502  503 -0.00000000000E+00 -0.00000000000E+00 -0.17191993724E+03  0.17191993724E+03  0.00000000000E+00 0. -1.
         -6    2    1    2    0  503  0.36134332308E+02  0.17843366818E+03  0.11073556758E+03  0.27351027789E+03  0.17146790450E+03 0.  0.
        -24    2    3    3    0    0 -0.41698323233E+02  0.11301821309E+03  0.88692673943E+02  0.16937054871E+03  0.79423709996E+02 0.  0.
          6    2    1    2  501    0 -0.36134332308E+02 -0.17843366818E+03  0.83352655528E+02  0.26441781969E+03  0.17269873849E+03 0.  0.
         24    2    5    5    0    0  0.27213985193E+02 -0.13975854239E+03  0.96814188973E+02  0.18883953202E+03  0.77552114768E+02 0.  0.
          5    1    5    5  501    0 -0.63348317501E+02 -0.38675125795E+02 -0.13461533445E+02  0.75578287677E+02  0.47000000000E+01 0. -1.
        -13    1    6    6    0    0 -0.10597157658E+02 -0.11413159752E+03  0.81575824580E+02  0.14068737136E+03  0.00000000000E+00 0.  1.
         14    1    6    6    0    0  0.37811142851E+02 -0.25626944868E+02  0.15238364393E+02  0.48152160661E+02  0.00000000000E+00 0. -1.
         -5    1    3    3    0  503  0.77832655542E+02  0.65415455098E+02  0.22042893635E+02  0.10413972918E+03  0.47000000000E+01 0.  1.
         11    1    4    4    0    0 -0.15174763553E+02  0.51164414581E+02  0.86981209951E+02  0.10204803601E+03  0.00000000000E+00 0. -1.
        -12    1    4    4    0    0 -0.26523559680E+02  0.61853798506E+02  0.17114639919E+01  0.67322512703E+02  0.00000000000E+00 0.  1.
</event>
<event>
12    1  0.8461994E-002  0.3100979E+03  0.7818608E-02  0.1080382E+00
         21   -1    0    0  503  502  0.00000000000E+00  0.00000000000E+00  0.78782933959E+02  0.78782933959E+02  0.00000000000E+00 0. -1.
         21   -1    0    0  501  503 -0.00000000000E+00 -0.00000000000E+00 -0.12580692955E+04  0.12580692955E+04  0.00000000000E+00 0. -1.
          6    2    1    2  501    0  0.35257642691E+02  0.25493569077E+03 -0.70978009730E+03  0.77456342051E+03  0.17298958949E+03 0.  0.
         24    2    3    3    0    0 -0.99732328055E+01  0.23686336911E+03 -0.50325816169E+03  0.56232336586E+03  0.82067469113E+02 0.  0.
         -6    2    1    2    0  502 -0.35257642691E+02 -0.25493569077E+03 -0.46950626424E+03  0.56228880895E+03  0.17174767747E+03 0.  0.
        -24    2    5    5    0    0 -0.69327749795E+02 -0.11576966195E+03 -0.30973174539E+03  0.34763107522E+03  0.81881981158E+02 0.  0.
          5    1    3    3  501    0  0.45230875497E+02  0.18072321655E+02 -0.20652193561E+03  0.21224005465E+03  0.47000000000E+01 0. -1.
        -13    1    4    4    0    0 -0.28566410996E+02  0.32566366008E+02 -0.12062308987E+03  0.12816605573E+03  0.00000000000E+00 0.  1.
         14    1    4    4    0    0  0.18593178191E+02  0.20429700310E+03 -0.38263507183E+03  0.43415731013E+03  0.00000000000E+00 0. -1.
         -5    1    5    5    0  502  0.34070107104E+02 -0.13916602882E+03 -0.15977451885E+03  0.21465773373E+03  0.47000000000E+01 0.  1.
         13    1    6    6    0    0 -0.22477450138E+02 -0.37880566348E+02 -0.29465334564E+02  0.52994141303E+02  0.00000000000E+00 0. -1.
        -14    1    6    6    0    0 -0.46850299657E+02 -0.77889095598E+02 -0.28026641083E+03  0.29463693392E+03  0.00000000000E+00 0.  1.
</event>
<event>
12    1  0.8461994E-002  0.1972710E+03  0.7818608E-02  0.1153013E+00
         21   -1    0    0  503  502  0.00000000000E+00  0.00000000000E+00  0.11759351407E+03  0.11759351407E+03  0.00000000000E+00 0. -1.
         21   -1    0    0  501  503 -0.00000000000E+00 -0.00000000000E+00 -0.32415763546E+03  0.32415763546E+03  0.00000000000E+00 0. -1.
          6    2    1    2  501    0  0.86486798648E+02 -0.13761019777E+00 -0.11328369846E+03  0.22748415425E+03  0.17730160412E+03 0.  0.
         24    2    3    3    0    0 -0.19271307881E+02 -0.57715866026E+01 -0.14279760004E+02  0.82431099764E+02  0.78652909312E+02 0.  0.
         -6    2    1    2    0  502 -0.86486798648E+02  0.13761019777E+00 -0.93280422924E+02  0.21426699528E+03  0.17242135218E+03 0.  0.
        -24    2    5    5    0    0 -0.36727232151E+02 -0.57138655238E+02 -0.85904625994E+02  0.13789240906E+03  0.83791385024E+02 0.  0.
          5    1    3    3  501    0  0.10575810653E+03  0.56339764049E+01 -0.99003938456E+02  0.14505305449E+03  0.47000000000E+01 0. -1.
        -13    1    4    4    0    0  0.17200549731E+02 -0.11189638818E+02  0.22430379041E+02  0.30400474204E+02  0.00000000000E+00 0.  1.
         14    1    4    4    0    0 -0.36471857612E+02  0.54180522152E+01 -0.36710139045E+02  0.52030625560E+02  0.00000000000E+00 0. -1.
         -5    1    5    5    0  502 -0.49759566497E+02  0.57276265436E+02 -0.73757969300E+01  0.76374586222E+02  0.47000000000E+01 0.  1.
         11    1    6    6    0    0 -0.53673030848E+02 -0.17885086343E+02 -0.21362220911E+02  0.60473258852E+02  0.00000000000E+00 0. -1.
        -12    1    6    6    0    0  0.16945798697E+02 -0.39253568895E+02 -0.64542405083E+02  0.77419150205E+02  0.00000000000E+00 0.  1.
</event>
<event>
12    1  0.8461994E-002  0.2216888E+03  0.7818608E-02  0.1132929E+00
         21   -1    0    0  503  502  0.00000000000E+00  0.00000000000E+00  0.40388283331E+03  0.40388283331E+03  0.00000000000E+00 0.  1.
         21   -1    0    0  501  503 -0.00000000000E+00 -0.00000000000E+00 -0.15697996777E+03  0.15697996777E+03  0.00000000000E+00 0. -1.
          6    2    1    2  501    0 -0.85380404435E+02  0.11049498628E+03 -0.10828640691E+02  0.22195309905E+03  0.17218293546E+03 0.  0.
         24    2    3    3    0    0  0.64534513745E+01  0.10042390954E+03 -0.17463956139E+01  0.12900439903E+03  0.80699915923E+02 0.  0.
         -6    2    1    2    0  502  0.85380404435E+02 -0.11049498628E+03  0.25773150622E+03  0.33890970203E+03  0.17010379588E+03 0.  0.
        -24    2    5    5    0    0  0.92101457833E+01 -0.99880701007E+02  0.19937290607E+03  0.24225367497E+03  0.94214150429E+02 0.  0.
          5    1    3    3  501    0 -0.91833855810E+02  0.10071076742E+02 -0.90822450773E+01  0.92948700019E+02  0.47000000000E+01 0. -1.
        -11    1    4    4    0    0 -0.19538624407E+02  0.57816748342E+02  0.31850563171E+02  0.68840341420E+02  0.00000000000E+00 0.  1.
         12    1    4    4    0    0  0.25992075781E+02  0.42607161200E+02 -0.33596958784E+02  0.60164057613E+02  0.00000000000E+00 0. -1.
         -5    1    5    5    0  502  0.76170258652E+02 -0.10614285278E+02  0.58358600156E+02  0.96656027061E+02  0.47000000000E+01 0.  1.
         13    1    6    6    0    0  0.10475437354E+02  0.10385260433E+02  0.38793563774E+00  0.14755978994E+02  0.00000000000E+00 0. -1.
        -14    1    6    6    0    0 -0.12652915708E+01 -0.11026596144E+03  0.19898497043E+03  0.22749769597E+03  0.00000000000E+00 0.  1.
</event>
<event>
12    1  0.8461994E-002  0.2356349E+03  0.7818608E-02  0.1123116E+00
         21   -1    0    0  503  502  0.00000000000E+00  0.00000000000E+00  0.56667327989E+03  0.56667327989E+03  0.00000000000E+00 0.  1.
         21   -1    0    0  501  503 -0.00000000000E+00 -0.00000000000E+00 -0.10334874278E+03  0.10334874278E+03  0.00000000000E+00 0. -1.
          6    2    1    2  501    0  0.16044861237E+03  0.12299419023E+02  0.31326127481E+03  0.39066059896E+03  0.16907999399E+03 0.  0.
         24    2    3    3    0    0  0.79772034939E+02 -0.22388553426E+02  0.61594731370E+02  0.12407083047E+03  0.68810138483E+02 0.  0.
         -6    2    1    2    0  502 -0.16044861237E+03 -0.12299419023E+02  0.15006326230E+03  0.27936142371E+03  0.17213015263E+03 0.  0.
        -24    2    5    5    0    0 -0.99769817336E+02 -0.72555136471E+02  0.74354493640E+02  0.16505230200E+03  0.80594090312E+02 0.  0.
          5    1    3    3  501    0  0.80676577434E+02  0.34687972449E+02  0.25166654344E+03  0.26658976849E+03  0.47000000000E+01 0. -1.
        -11    1    4    4    0    0  0.29754150279E+02 -0.27302898857E+02  0.61785238245E+02  0.73811743035E+02  0.00000000000E+00 0.  1.
         12    1    4    4    0    0  0.50017884661E+02  0.49143454308E+01 -0.19050687541E+00  0.50259087435E+02  0.00000000000E+00 0. -1.
         -5    1    5    5    0  502 -0.60678795038E+02  0.60255717448E+02  0.75708768659E+02  0.11430912170E+03  0.47000000000E+01 0.  1.
         13    1    6    6    0    0 -0.10648446844E+03 -0.45950168783E+02  0.74071577840E+02  0.13761162260E+03  0.00000000000E+00 0. -1.
        -14    1    6    6    0    0  0.67146511026E+01 -0.26604967688E+02  0.28291580013E+00  0.27440679409E+02  0.00000000000E+00 0.  1.
</event>
<event>
12    1  0.8461994E-002  0.2607737E+03  0.7818608E-02  0.1106972E+00
         21   -1    0    0  503  502  0.00000000000E+00  0.00000000000E+00  0.49648484153E+03  0.49648484153E+03  0.00000000000E+00 0. -1.
         21   -1    0    0  501  503 -0.00000000000E+00 -0.00000000000E+00 -0.14020379679E+03  0.14020379679E+03  0.00000000000E+00 0. -1.
          6    2    1    2  501    0  0.84782889952E+02 -0.17567764753E+03  0.12202361701E+03  0.28614693605E+03  0.17011622978E+03 0.  0.
         24    2    3    3    0    0 -0.36399504249E+01 -0.28651020249E+02  0.12636690798E+02  0.82620482106E+02  0.76369679250E+02 0.  0.
         -6    2    1    2    0  502 -0.84782889952E+02  0.17567764753E+03  0.23425742774E+03  0.35054170226E+03  0.17306694746E+03 0.  0.
        -24    2    5    5    0    0 -0.12587572472E+03  0.13003098207E+03  0.19267762279E+03  0.27622340494E+03  0.80137062203E+02 0.  0.
          5    1    3    3  501    0  0.88422840377E+02 -0.14702662729E+03  0.10938692621E+03  0.20352645395E+03  0.47000000000E+01 0. -1.
        -11    1    4    4    0    0  0.28965803432E+02  0.10270174643E+02  0.71292867771E+01  0.31548708145E+02  0.00000000000E+00 0.  1.
         12    1    4    4    0    0 -0.32605753857E+02 -0.38921194893E+02  0.55074040209E+01  0.51071773961E+02  0.00000000000E+00 0. -1.
         -5    1    5    5    0  502  0.41092834770E+02  0.45646665467E+02  0.41579804944E+02  0.74318297322E+02  0.47000000000E+01 0.  1.
         11    1    6    6    0    0 -0.69998606942E+02  0.12124106587E+03  0.15135037809E+03  0.20617016752E+03  0.00000000000E+00 0. -1.
        -12    1    6    6    0    0 -0.55877117780E+02  0.87899161992E+01  0.41327244705E+02  0.70053237421E+02  0.00000000000E+00 0.  1.
</event>
<event>
12    1  0.8461994E-002  0.1869015E+03  0.7818608E-02  0.1162381E+00
         21   -1    0    0  501  502  0.00000000000E+00  0.00000000000E+00  0.41216794334E+03  0.41216794334E+03  0.00000000000E+00 0. -1.
         21   -1    0    0  502  503 -0.00000000000E+00 -0.00000000000E+00 -0.89834938503E+02  0.89834938503E+02  0.00000000000E+00 0. -1.
         -6    2    1    2    0  503 -0.54925583966E+02 -0.26280287895E+02  0.92021582952E+02  0.20832699768E+03  0.17670510159E+03 0.  0.
        -24    2    3    3    0    0 -0.80893151149E+02 -0.55214606861E+02  0.10792503282E+03  0.16605976360E+03  0.79596970196E+02 0.  0.
          6    2    1    2  501    0  0.54925583966E+02  0.26280287895E+02  0.23031142189E+03  0.29367588417E+03  0.17174021248E+03 0.  0.
         24    2    5    5    0    0  0.71971162712E+02  0.61364368439E+02  0.10222709812E+03  0.15970152670E+03  0.78158582798E+02 0.  0.
          5    1    5    5  501    0 -0.17045578746E+02 -0.35084080544E+02  0.12808432377E+03  0.13397435746E+03  0.47000000000E+01 0. -1.
        -11    1    6    6    0    0  0.51071381897E+00 -0.15631140838E+02  0.46220304992E+01  0.16308174590E+02  0.00000000000E+00 0.  1.
         12    1    6    6    0    0  0.71460448893E+02  0.76995509278E+02  0.97605067621E+02  0.14339335211E+03  0.00000000000E+00 0. -1.
         -5    1    3    3    0  503  0.25967567182E+02  0.28934318966E+02 -0.15903449865E+02  0.42267234083E+02  0.47000000000E+01 0.  1.
         13    1    4    4    0    0 -0.66477360374E+02  0.21579892087E+01  0.49449493110E+02  0.82880327754E+02  0.00000000000E+00 0. -1.
        -14    1    4    4    0    0 -0.14415790774E+02 -0.57372596070E+02  0.58475539707E+02  0.83179435845E+02  0.00000000000E+00 0.  1.
</event>
<event>
12    1  0.8461994E-002  0.2536618E+03  0.7818608E-02  0.1111125E+00
         21   -1    0    0  503  502  0.00000000000E+00  0.00000000000E+00  0.73750346286E+02  0.73750346286E+02  0.00000000000E+00 0. -1.
         21   -1    0    0  501  503 -0.00000000000E+00 -0.00000000000E+00 -0.87777117563E+03  0.87777117563E+03  0.00000000000E+00 0.  1.
          6    2    1    2  501    0  0.28014521772E+01 -0.18648667661E+03 -0.35657721621E+03  0.43717720641E+03  0.17085511406E+03 0.  0.
         24    2    3    3    0    0 -0.35116473865E+02 -0.19479077647E+03 -0.29393160029E+03  0.36333080918E+03  0.80230155916E+02 0.  0.
         -6    2    1    2    0  502 -0.28014521772E+01  0.18648667661E+03 -0.44744361314E+03  0.51434431551E+03  0.17192777342E+03 0.  0.
        -24    2    5    5    0    0 -0.65980775114E+02  0.13675301033E+03 -0.31448008892E+03  0.35888868461E+03  0.82755743545E+02 0.  0.
          5    1    3    3  501    0  0.37917926042E+02  0.83040998600E+01 -0.62645615920E+02  0.73846397230E+02  0.47000000000E+01 0. -1.
        -11    1    4    4    0    0 -0.34777766653E+02 -0.10689578552E+03 -0.22540031606E+03  0.25187597046E+03  0.00000000000E+00 0.  1.
         12    1    4    4    0    0 -0.33870721161E+00 -0.87894990947E+02 -0.68531284228E+02  0.11145483872E+03  0.00000000000E+00 0. -1.
         -5    1    5    5    0  502  0.63179322936E+02  0.49733666273E+02 -0.13296352421E+03  0.15545563090E+03  0.47000000000E+01 0.  1.
         11    1    6    6    0    0  0.10470266150E+02  0.70565159708E+02 -0.14320587027E+03  0.15999059197E+03  0.00000000000E+00 0. -1.
        -12    1    6    6    0    0 -0.76451041264E+02  0.66187850625E+02 -0.17127421865E+03  0.19889809264E+03  0.00000000000E+00 0.  1.
</event>
<event>
12    1  0.8461994E-002  0.1852417E+03  0.7818608E-02  0.1162852E+00
         21   -1    0    0  501  502  0.00000000000E+00  0.00000000000E+00  0.45668626927E+03  0.45668626927E+03  0.00000000000E+00 0.  1.
         21   -1    0    0  502  503 -0.00000000000E+00 -0.00000000000E+00 -0.90198683860E+02  0.90198683860E+02  0.00000000000E+00 0. -1.
         -6    2    1    2    0  503 -0.30225112117E+02  0.61627516860E+02  0.71285084174E+02  0.19837526905E+03  0.17192927589E+03 0.  0.
        -24    2    3    3    0    0 -0.59250887457E+02  0.93684481956E+02  0.73352749940E+02  0.15482633236E+03  0.79392174954E+02 0.  0.
          6    2    1    2  501    0  0.30225112117E+02 -0.61627516860E+02  0.29520250124E+03  0.34850968408E+03  0.17205515083E+03 0.  0.
         24    2    5    5    0    0  0.19562307775E+02  0.28308140882E+02  0.14699413042E+03  0.17475719026E+03  0.88027077897E+02 0.  0.
          5    1    5    5  501    0  0.10662804343E+02 -0.89935657743E+02  0.14820837082E+03  0.17375249383E+03  0.47000000000E+01 0. -1.
        -11    1    6    6    0    0 -0.32831278459E+02  0.32008492617E+01  0.77158203788E+02  0.83913805140E+02  0.00000000000E+00 0.  1.
         12    1    6    6    0    0  0.52393586234E+02  0.25107291621E+02  0.69835926629E+02  0.90843385115E+02  0.00000000000E+00 0. -1.
         -5    1    3    3    0  503  0.29025775339E+02 -0.32056965096E+02 -0.20676657665E+01  0.43548936691E+02  0.47000000000E+01 0.  1.
         11    1    4    4    0    0 -0.30385958773E+02  0.98488004814E+02  0.71627339449E+02  0.12551362213E+03  0.00000000000E+00 0. -1.
        -12    1    4    4    0    0 -0.28864928684E+02 -0.48035228578E+01  0.17254104915E+01  0.29312710232E+02  0.00000000000E+00 0.  1.
</event>
<event>
12    1  0.8461994E-002  0.1921688E+03  0.7818608E-02  0.1157803E+00
         21   -1    0    0  503  502  0.00000000000E+00  0.00000000000E+00  0.16467413898E+03  0.16467413898E+03  0.00000000000E+00 0.  1.
         21   -1    0    0  501  503 -0.00000000000E+00 -0.00000000000E+00 -0.26951199508E+03  0.26951199508E+03  0.00000000000E+00 0.  1.
          6    2    1    2  501    0 -0.60582355583E+02  0.58716637936E+02 -0.14826144394E+03  0.24271446159E+03  0.17265859008E+03 0.  0.
         24    2    3    3    0    0 -0.16703030429E+02  0.96382510915E+02 -0.67953616581E+02  0.14364100249E+03  0.80289874546E+02 0.  0.
         -6    2    1    2    0  502  0.60582355583E+02 -0.58716637936E+02  0.43423587841E+02  0.19147167247E+03  0.16630672867E+03 0.  0.
        -24    2    5    5    0    0  0.57925682890E+02 -0.47127044175E+01  0.79378968118E+02  0.12636896811E+03  0.79312679939E+02 0.  0.
          5    1    3    3  501    0 -0.43879325154E+02 -0.37665872979E+02 -0.80307827359E+02  0.99073459102E+02  0.47000000000E+01 0. -1.
        -13    1    4    4    0    0 -0.46046801790E+02  0.43799426139E+02 -0.19877759921E+02  0.66586958368E+02  0.00000000000E+00 0.  1.
         14    1    4    4    0    0  0.29343771361E+02  0.52583084775E+02 -0.48075856660E+02  0.77054044123E+02  0.00000000000E+00 0. -1.
         -5    1    5    5    0  502  0.26566726921E+01 -0.54003933518E+02 -0.35955380277E+02  0.65102704369E+02  0.47000000000E+01 0.  1.
         11    1    6    6    0    0  0.22653099517E+02  0.22184459716E+01  0.86739313354E+02  0.89676044189E+02  0.00000000000E+00 0. -1.
        -12    1    6    6    0    0  0.35272583373E+02 -0.69311503891E+01 -0.73603452356E+01  0.36692923916E+02  0.00000000000E+00 0.  1.
</event>
<event>
12    1  0.8461994E-002  0.1812747E+03  0.7818608E-02  0.1166780E+00
         21   -1    0    0  503  502  0.00000000000E+00  0.00000000000E+00  0.81470183130E+02  0.81470183130E+02  0.00000000000E+00 0.  1.
         21   -1    0    0  501  503 -0.00000000000E+00 -0.00000000000E+00 -0.41962820293E+03  0.41962820293E+03  0.00000000000E+00 0.  1.
          6    2    1    2  501    0 -0.72284292723E+01 -0.55191770161E+02 -0.22160903711E+03  0.28630592518E+03  0.17251705939E+03 0.  0.
         24    2    3    3    0    0 -0.20722132601E+02 -0.99169846301E+02 -0.13785174756E+03  0.19063187038E+03  0.84103153939E+02 0.  0.
         -6    2    1    2    0  502  0.72284292723E+01  0.55191770161E+02 -0.11654898269E+03  0.21479246088E+03  0.17162096084E+03 0.  0.
        -24    2    5    5    0    0  0.66852899337E+02  0.94859533822E+01 -0.54716420892E+02  0.11737862810E+03  0.78895894432E+02 0.  0.
          5    1    3    3  501    0  0.13493703329E+02  0.43978076139E+02 -0.83757289548E+02  0.95674054805E+02  0.47000000000E+01 0. -1.
        -11    1    4    4    0    0 -0.49258663890E+02 -0.35641536680E+02 -0.51384574756E+02  0.79605964776E+02  0.00000000000E+00 0.  1.
         12    1    4    4    0    0  0.28536531289E+02 -0.63528309621E+02 -0.86467172805E+02  0.11102590560E+03  0.00000000000E+00 0. -1.
         -5    1    5    5    0  502 -0.59624470064E+02  0.45705816779E+02 -0.61832561796E+02  0.97413832776E+02  0.47000000000E+01 0.  1.
         13    1    6    6    0    0  0.16531101279E+02 -0.22117407385E+01 -0.62897625323E+02  0.65071348364E+02  0.00000000000E+00 0. -1.
        -14    1    6    6    0    0  0.50321798057E+02  0.11697694121E+02  0.81812044316E+01  0.52307279736E+02  0.00000000000E+00 0.  1.
</event>
<event>
12    1  0.8461994E-002  0.2784923E+03  0.7818608E-02  0.1096981E+00
         21   -1    0    0  503  502  0.00000000000E+00  0.00000000000E+00  0.42902075668E+03  0.42902075668E+03  0.00000000000E+00 0. -1.
         21   -1    0    0  501  503 -0.00000000000E+00 -0.00000000000E+00 -0.25553529673E+03  0.25553529673E+03  0.00000000000E+00 0.  1.
          6    2    1    2  501    0  0.20897947477E+03  0.59484330186E+02 -0.10143250499E+03  0.29322776852E+03  0.16876956108E+03 0.  0.
         24    2    3    3    0    0  0.21471409444E+03  0.87834356796E+02 -0.96353464736E+02  0.26348728228E+03  0.79526983939E+02 0.  0.
         -6    2    1    2    0  502 -0.20897947477E+03 -0.59484330186E+02  0.27491796494E+03  0.39132828490E+03  0.17420428439E+03 0.  0.
        -24    2    5    5    0    0 -0.43591899254E+02 -0.10153358468E+02  0.13153920930E+03  0.16690423878E+03  0.92472249732E+02 0.  0.
          5    1    3    3  501    0 -0.57346196673E+01 -0.28350026611E+02 -0.50790402592E+01  0.29740486235E+02  0.47000000000E+01 0. -1.
        -13    1    4    4    0    0  0.76393466605E+02  0.73639310234E+02 -0.38299552790E+02  0.11280764821E+03  0.00000000000E+00 0.  1.
         14    1    4    4    0    0  0.13832062783E+03  0.14195046562E+02 -0.58053911945E+02  0.15067963407E+03  0.00000000000E+00 0. -1.
         -5    1    5    5    0  502 -0.16538757552E+03 -0.49330971718E+02  0.14337875565E+03  0.22442404612E+03  0.47000000000E+01 0.  1.
         13    1    6    6    0    0 -0.55712447560E+01  0.37216877520E+02  0.28160806353E+02  0.47001763318E+02  0.00000000000E+00 0. -1.
        -14    1    6    6    0    0 -0.38020654498E+02 -0.47370235988E+02  0.10337840295E+03  0.11990247546E+03  0.00000000000E+00 0.  1.
</event>
<event>
12    1  0.8461994E-002  0.1807237E+03  0.7818608E-02  0.1167369E+00
         21   -1    0    0  503  502  0.00000000000E+00  0.00000000000E+00  0.83702550184E+03  0.83702550184E+03  0.00000000000E+00 0. -1.
         21   -1    0    0  501  503 -0.00000000000E+00 -0.00000000000E+00 -0.77152367262E+02  0.77152367262E+02  0.00000000000E+00 0.  1.
          6    2    1    2  501    0 -0.52550126657E+02  0.10338910403E+02  0.58180237693E+02  0.18985784087E+03  0.17260547732E+03 0.  0.
         24    2    3    3    0    0 -0.90604915931E+02  0.42775354323E+02  0.53800823813E+02  0.13944396236E+03  0.80691438623E+02 0.  0.
         -6    2    1    2    0  502  0.52550126657E+02 -0.10338910403E+02  0.70169289689E+03  0.72432002823E+03  0.17145895391E+03 0.  0.
        -24    2    5    5    0    0 -0.77963690087E+01  0.48614823466E+02  0.30334153276E+03  0.31710615128E+03  0.78205122945E+02 0.  0.
          5    1    3    3  501    0  0.38054789274E+02 -0.32436443920E+02  0.43794138805E+01  0.50413878514E+02  0.47000000000E+01 0. -1.
        -11    1    4    4    0    0  0.13264345333E+02  0.15318613926E+02  0.15015967126E+02  0.25220667288E+02  0.00000000000E+00 0.  1.
         12    1    4    4    0    0 -0.10386926126E+03  0.27456740397E+02  0.38784856687E+02  0.11422329507E+03  0.00000000000E+00 0. -1.
         -5    1    5    5    0  502  0.60346495666E+02 -0.58953733869E+02  0.39835136413E+03  0.40721387695E+03  0.47000000000E+01 0.  1.
         13    1    6    6    0    0 -0.25891801847E+02 -0.93775616125E+01  0.14331108301E+03  0.14593282899E+03  0.00000000000E+00 0. -1.
        -14    1    6    6    0    0  0.18095432839E+02  0.57992385078E+02  0.16003044975E+03  0.17117332229E+03  0.00000000000E+00 0.  1.
</event>
<event>
12    1  0.8461994E-002  0.1985640E+03  0.7818608E-02  0.1152041E+00
         21   -1    0    0  501  502  0.00000000000E+00  0.00000000000E+00  0.17863466945E+03  0.17863466945E+03  0.00000000000E+00 0.  1.
         21   -1    0    0  502  503 -0.00000000000E+00 -0.00000000000E+00 -0.26638648460E+03  0.26638648460E+03  0.00000000000E+00 0.  1.
         -6    2    1    2    0  503 -0.27373695184E+02 -0.94978405217E+02 -0.14189299061E+03  0.24405183505E+03  0.17221341632E+03 0.  0.
        -24    2    3    3    0    0 -0.21464580002E+02  0.12912034594E+02 -0.31622482765E+02  0.89594916965E+02  0.79998868102E+02 0.  0.
          6    2    1    2  501    0  0.27373695184E+02  0.94978405217E+02  0.54141175452E+02  0.20096931900E+03  0.16639466233E+03 0.  0.
         24    2    5    5    0    0  0.17813485706E+02  0.11707456989E+02 -0.24523906145E+02  0.85922661129E+02  0.79541793421E+02 0.  0.
          5    1    5    5  501    0  0.95602094781E+01  0.83270948228E+02  0.78665081597E+02  0.11504665787E+03  0.47000000000E+01 0. -1.
        -13    1    6    6    0    0 -0.75061211524E+01  0.11625012668E+02  0.25975396888E+02  0.29431344138E+02  0.00000000000E+00 0.  1.
         14    1    6    6    0    0  0.25319606859E+02  0.82444320349E-01 -0.50499303033E+02  0.56491316991E+02  0.00000000000E+00 0. -1.
         -5    1    3    3    0  503 -0.59091151824E+01 -0.10789043981E+03 -0.11027050784E+03  0.15445691809E+03  0.47000000000E+01 0.  1.
         11    1    4    4    0    0 -0.23227060371E+02  0.42880500478E+02 -0.34047933280E+02  0.59476847725E+02  0.00000000000E+00 0. -1.
        -12    1    4    4    0    0  0.17624803694E+01 -0.29968465884E+02  0.24254505142E+01  0.30118069239E+02  0.00000000000E+00 0.  1.
</event>
<event>
12    1  0.8461994E-002  0.2096886E+03  0.7818608E-02  0.1141845E+00
         21   -1    0    0  501  502  0.00000000000E+00  0.00000000000E+00  0.47220772371E+03  0.47220772371E+03  0.00000000000E+00 0. -1.
         21   -1    0    0  502  503 -0.00000000000E+00 -0.00000000000E+00 -0.10548780852E+03  0.10548780852E+03  0.00000000000E+00 0. -1.
         -6    2    1    2    0  503  0.15392694354E+02  0.11891317070E+03  0.84088133668E+02  0.22577221480E+03  0.17182840727E+03 0.  0.
        -24    2    3    3    0    0 -0.32523382997E+02  0.64694449767E+02 -0.21107849382E+02  0.98007176472E+02  0.62583728415E+02 0.  0.
          6    2    1    2  501    0 -0.15392694354E+02 -0.11891317070E+03  0.28263178152E+03  0.35192331743E+03  0.17202331300E+03 0.  0.
         24    2    5    5    0    0  0.53695993628E+02 -0.72255772996E+02  0.19286941324E+03  0.22932832435E+03  0.85373961623E+02 0.  0.
          5    1    5    5  501    0 -0.69088687982E+02 -0.46657397703E+02  0.89762368285E+02  0.12259499308E+03  0.47000000000E+01 0. -1.
        -11    1    6    6    0    0  0.13004100356E+02  0.19592461735E+02  0.40176355793E+02  0.46552236764E+02  0.00000000000E+00 0.  1.
         12    1    6    6    0    0  0.40691893272E+02 -0.91848234731E+02  0.15269305745E+03  0.18277608759E+03  0.00000000000E+00 0. -1.
         -5    1    3    3    0  503  0.47916077351E+02  0.54218720932E+02  0.10519598305E+03  0.12776503832E+03  0.47000000000E+01 0.  1.
         11    1    4    4    0    0  0.67770992611E+01  0.11654027956E+02 -0.28552320808E+02  0.31574997475E+02  0.00000000000E+00 0. -1.
        -12    1    4    4    0    0 -0.39300482258E+02  0.53040421810E+02  0.74444714265E+01  0.66432178998E+02  0.00000000000E+00 0.  1.
</event>
<event>
12    1  0.8461994E-002  0.1744038E+03  0.7818608E-02  0.1173682E+00
         21   -1    0    0  503  502  0.00000000000E+00  0.00000000000E+00  0.14822313176E+04  0.14822313176E+04  0.00000000000E+00 0.  1.
         21   -1    0    0  501  503 -0.00000000000E+00 -0.00000000000E+00 -0.22571247597E+02  0.22571247597E+02  0.00000000000E+00 0.  1.
          6    2    1    2  501    0 -0.69756994521E+01 -0.22797387970E+02  0.49162712446E+03  0.52118452199E+03  0.17137005333E+03 0.  0.
         24    2    3    3    0    0 -0.57002548424E+02  0.20512822870E+02  0.36288739640E+03  0.37635887660E+03  0.79301167101E+02 0.  0.
         -6    2    1    2    0  502  0.69756994521E+01  0.22797387970E+02  0.96803294551E+03  0.98361804317E+03  0.17276657658E+03 0.  0.
        -24    2    5    5    0    0 -0.38290506131E+02  0.61169919507E+02  0.47147610876E+03  0.48350579311E+03  0.79247769198E+02 0.  0.
          5    1    3    3  501    0  0.50026848972E+02 -0.43310210840E+02  0.12873972806E+03  0.14482564539E+03  0.47000000000E+01 0. -1.
        -13    1    4    4    0    0 -0.29553050664E+02 -0.28406103737E+01  0.31514738408E+03  0.31654277052E+03  0.00000000000E+00 0.  1.
         14    1    4    4    0    0 -0.27449497760E+02  0.23353433243E+02  0.47740012314E+02  0.59816106086E+02  0.00000000000E+00 0. -1.
         -5    1    5    5    0  502  0.45266205583E+02 -0.38372531536E+02  0.49655683675E+03  0.50011225006E+03  0.47000000000E+01 0.  1.
         13    1    6    6    0    0 -0.23244085976E+02 -0.15767659766E+02  0.15017396092E+03  0.15277802580E+03  0.00000000000E+00 0. -1.
        -14    1    6    6    0    0 -0.15046420155E+02  0.76937579272E+02  0.32130214784E+03  0.33072776731E+03  0.00000000000E+00 0.  1.
</event>
<event>
12    1  0.8461994E-002  0.1743413E+03  0.7818608E-02  0.1173734E+00
         21   -1    0    0  503  502  0.00000000000E+00  0.00000000000E+00  0.39933023949E+02  0.39933023949E+02  0.00000000000E+00 0. -1.
         21   -1    0    0  501  503 -0.00000000000E+00 -0.00000000000E+00 -0.90008867629E+03  0.90008867629E+03  0.00000000000E+00 0. -1.
          6    2    1    2  501    0 -0.13985480015E+01 -0.30515185938E+02 -0.61996402203E+03  0.64401109074E+03  0.17164429463E+03 0.  0.
         24    2    3    3    0    0  0.22899103038E+01  0.43663308767E+02 -0.43628154035E+03  0.44582582924E+03  0.80668205284E+02 0.  0.
         -6    2    1    2    0  502  0.13985480015E+01  0.30515185938E+02 -0.24019163031E+03  0.29601060950E+03  0.17028543436E+03 0.  0.
        -24    2    5    5    0    0  0.26897253154E+02  0.75085652908E+02 -0.11360911075E+03  0.15932873525E+03  0.78213159572E+02 0.  0.
          5    1    3    3  501    0 -0.36884583053E+01 -0.74178494705E+02 -0.18368248168E+03  0.19818526150E+03  0.47000000000E+01 0. -1.
        -13    1    4    4    0    0 -0.38313791071E+02  0.21227148258E+02 -0.17112025489E+03  0.17663714231E+03  0.00000000000E+00 0.  1.
         14    1    4    4    0    0  0.40603701375E+02  0.22436160508E+02 -0.26516128546E+03  0.26918868693E+03  0.00000000000E+00 0. -1.
         -5    1    5    5    0  502 -0.25498705152E+02 -0.44570466970E+02 -0.12658251956E+03  0.13668187425E+03  0.47000000000E+01 0.  1.
         13    1    6    6    0    0 -0.26840292809E+02  0.31537734605E+02 -0.31898433427E+02  0.52273703496E+02  0.00000000000E+00 0. -1.
        -14    1    6    6    0    0  0.53737545963E+02  0.43547918303E+02 -0.81710677325E+02  0.10705503175E+03  0.00000000000E+00 0.  1.
</event>
<event>
12    1  0.8461994E-002  0.1811718E+03  0.7818608E-02  0.1166832E+00
         21   -1    0    0  501  502  0.00000000000E+00  0.00000000000E+00  0.61699337987E+02  0.61699337987E+02  0.00000000000E+00 0. -1.
         21   -1    0    0  502  503 -0.00000000000E+00 -0.00000000000E+00 -0.71918018256E+03  0.71918018256E+03  0.00000000000E+00 0. -1.
         -6    2    1    2    0  503  0.54585268536E+02 -0.14466205075E+02 -0.52940122873E+03  0.55954344805E+03  0.17214641048E+03 0.  0.
        -24    2    3    3    0    0  0.68283268806E+02 -0.45938905589E+02 -0.50296149855E+03  0.51596231198E+03  0.80460241807E+02 0.  0.
          6    2    1    2  501    0 -0.54585268536E+02  0.14466205075E+02 -0.12807961585E+03  0.22133607250E+03  0.17145391907E+03 0.  0.
         24    2    5    5    0    0 -0.56772269529E+02  0.53512451903E+02 -0.14117186177E+03  0.17982837119E+03  0.79511479891E+02 0.  0.
          5    1    5    5  501    0  0.21870009933E+01 -0.39046246828E+02  0.13092245924E+02  0.41507701310E+02  0.47000000000E+01 0. -1.
        -13    1    6    6    0    0 -0.47587384479E+02 -0.28290629952E+01 -0.34511198624E+02  0.58852235212E+02  0.00000000000E+00 0.  1.
         14    1    6    6    0    0 -0.91848850501E+01  0.56341514898E+02 -0.10666066315E+03  0.12097613598E+03  0.00000000000E+00 0. -1.
         -5    1    3    3    0  503 -0.13698000270E+02  0.31472700514E+02 -0.26439730175E+02  0.43581136066E+02  0.47000000000E+01 0.  1.
         11    1    4    4    0    0  0.40074561185E+02 -0.68864716124E+00 -0.37773897991E+03  0.37985942352E+03  0.00000000000E+00 0. -1.
        -12    1    4    4    0    0  0.28208707620E+02 -0.45250258428E+02 -0.12522251864E+03  0.13610288846E+03  0.00000000000E+00 0.  1.
</event>
<event>
12    1  0.8461994E-002  0.2095031E+03  0.7818608E-02  0.1142047E+00
         21   -1    0    0  501  502  0.00000000000E+00  0.00000000000E+00  0.58442669698E+02  0.58442669698E+02  0.00000000000E+00 0. -1.
         21   -1    0    0  502  503 -0.00000000000E+00 -0.00000000000E+00 -0.11230667467E+04  0.11230667467E+04  0.00000000000E+00 0.  1.
         -6    2    1    2    0  503 -0.86450898826E+02 -0.81035739087E+02 -0.87342316432E+03  0.89819795318E+03  0.17277439107E+03 0.  0.
        -24    2    3    3    0    0 -0.12506298933E+03 -0.79909566319E+02 -0.74558589926E+03  0.76456929557E+03  0.81495916789E+02 0.  0.
          6    2    1    2  501    0  0.86450898826E+02  0.81035739087E+02 -0.19120091271E+03  0.28331146324E+03  0.17224124729E+03 0.  0.
         24    2    5    5    0    0  0.69147817122E+02  0.10277507173E+03 -0.20416983590E+03  0.25229085414E+03  0.81370862174E+02 0.  0.
          5    1    5    5  501    0  0.17303081704E+02 -0.21739332645E+02  0.12968923191E+02  0.31020609102E+02  0.47000000000E+01 0. -1.
        -11    1    6    6    0    0  0.49592025330E+02  0.24572660909E+02 -0.13560496052E+03  0.14646463722E+03  0.00000000000E+00 0.  1.
         12    1    6    6    0    0  0.19555791792E+02  0.78202410823E+02 -0.68564875382E+02  0.10582621692E+03  0.00000000000E+00 0. -1.
         -5    1    3    3    0  503  0.38612090506E+02 -0.11261727685E+01 -0.12783726506E+03  0.13362865762E+03  0.47000000000E+01 0.  1.
         11    1    4    4    0    0 -0.10790283681E+03 -0.59326969511E+02 -0.41457914714E+03  0.43247957264E+03  0.00000000000E+00 0. -1.
        -12    1    4    4    0    0 -0.17160152522E+02 -0.20582596807E+02 -0.33100675212E+03  0.33208972293E+03  0.00000000000E+00 0.  1.
</event>
<event>
12    1  0.8461994E-002  0.2021189E+03  0.7818608E-02  0.1148502E+00
         21   -1    0    0  503  502  0.00000000000E+00  0.00000000000E+00  0.16241754405E+03  0.16241754405E+03  0.00000000000E+00 0.  1.
         21   -1    0    0  501  503 -0.00000000000E+00 -0.00000000000E+00 -0.24845601315E+03  0.24845601315E+03  0.00000000000E+00 0.  1.
          6    2    1    2  501    0 -0.67774773202E+02  0.75665487964E+02 -0.47215297577E+02  0.20505980909E+03  0.17176016718E+03 0.  0.
         24    2    3    3    0    0 -0.10268079932E+03  0.67882314714E+02  0.13096427221E+01  0.14459685948E+03  0.75862911937E+02 0.  0.
         -6    2    1    2    0  502  0.67774773202E+02 -0.75665487964E+02 -0.38823171517E+02  0.20581374811E+03  0.17473801622E+03 0.  0.
        -24    2    5    5    0    0  0.29258649764E+02 -0.98319774190E+02 -0.74224869604E+02  0.14861166181E+03  0.77802623195E+02 0.  0.
          5    1    3    3  501    0  0.34906026115E+02  0.77831732499E+01 -0.48524940299E+02  0.60462949614E+02  0.47000000000E+01 0. -1.
        -11    1    4    4    0    0 -0.89727048422E+02  0.43859430815E+02 -0.28815607716E+02  0.10394677551E+03  0.00000000000E+00 0.  1.
         12    1    4    4    0    0 -0.12953750895E+02  0.24022883899E+02  0.30125250438E+02  0.40650083973E+02  0.00000000000E+00 0. -1.
         -5    1    5    5    0  502  0.38516123438E+02  0.22654286226E+02  0.35401698087E+02  0.57202086295E+02  0.47000000000E+01 0.  1.
         11    1    6    6    0    0 -0.33943198995E+01 -0.54372452956E+02  0.22895419146E+01  0.54526388568E+02  0.00000000000E+00 0. -1.
        -12    1    6    6    0    0  0.32652969663E+02 -0.43947321234E+02 -0.76514411518E+02  0.94085273244E+02  0.00000000000E+00 0.  1.
</event>
<event>
12    1  0.8461994E-002  0.2128572E+03  0.7818608E-02  0.1139480E+00
         21   -1    0    0  501  502  0.00000000000E+00  0.00000000000E+00  0.51491880183E+03  0.51491880183E+03  0.00000000000E+00 0.  1.
         21   -1    0    0  502  503 -0.00000000000E+00 -0.00000000000E+00 -0.91092713262E+02  0.91092713262E+02  0.00000000000E+00 0.  1.
         -6    2    1    2    0  503  0.11761009433E+03  0.37422167614E+02  0.27113171431E+03  0.34470365259E+03  0.17342332222E+03 0.  0.
        -24    2    3    3    0    0  0.11811878786E+03  0.23953893499E+02  0.10646555263E+03  0.17941999346E+03  0.79566218310E+02 0.  0.
          6    2    1    2  501    0 -0.11761009433E+03 -0.37422167614E+02  0.15269437426E+03  0.26130786249E+03  0.17243455035E+03 0.  0.
         24    2    5    5    0    0 -0.96653559938E+02 -0.75343271073E+02  0.56616707915E+02  0.15580812604E+03  0.77795895659E+02 0.  0.
          5    1    5    5  501    0 -0.20956534394E+02  0.37921103460E+02  0.96077666343E+02  0.10549973645E+03  0.47000000000E+01 0. -1.
        -11    1    6    6    0    0 -0.29228150680E+02 -0.63781815864E+02  0.51836181772E+02  0.87231843772E+02  0.00000000000E+00 0.  1.
         12    1    6    6    0    0 -0.67425409257E+02 -0.11561455210E+02  0.47805261435E+01  0.68576282272E+02  0.00000000000E+00 0. -1.
         -5    1    3    3    0  503 -0.50869352652E+00  0.13468274115E+02  0.16466616167E+03  0.16528365913E+03  0.47000000000E+01 0.  1.
         11    1    4    4    0    0  0.42436966443E+02  0.66957402590E+01 -0.53579504015E+01  0.43294765169E+02  0.00000000000E+00 0. -1.
        -12    1    4    4    0    0  0.75681821415E+02  0.17258153240E+02  0.11182350303E+03  0.13612522829E+03  0.00000000000E+00 0.  1.
</event>
<event>
12    1  0.8461994E-002  0.1961268E+03  0.7818608E-02  0.1153418E+00
         21   -1    0    0  501  502  0.00000000000E+00  0.00000000000E+00  0.21726891840E+03  0.21726891840E+03  0.00000000000E+00 0. -1.
         21   -1    0    0  502  503 -0.00000000000E+00 -0.00000000000E+00 -0.20450814032E+03  0.20450814032E+03  0.00000000000E+00 0.  1.
         -6    2    1    2    0  503 -0.27307832141E+02 -0.87004521292E+02 -0.73054412664E+02  0.20769771611E+03  0.17171455863E+03 0.  0.
        -24    2    3    3    0    0 -0.16562179778E+02 -0.11862146269E+03 -0.89405660879E+02  0.17022034499E+03  0.81463098657E+02 0.  0.
          6    2    1    2  501    0  0.27307832141E+02  0.87004521292E+02  0.85815190751E+02  0.21407934261E+03  0.17363816846E+03 0.  0.
         24    2    5    5    0    0 -0.13554076332E+02  0.28236335495E+02  0.10937085464E+03  0.13857865038E+03  0.79126827743E+02 0.  0.
          5    1    5    5  501    0  0.40861908473E+02  0.58768185798E+02 -0.23555663890E+02  0.75500692230E+02  0.47000000000E+01 0. -1.
        -13    1    6    6    0    0 -0.44804949396E+02  0.30002122989E+01  0.55990372720E+02  0.71773300060E+02  0.00000000000E+00 0.  1.
         14    1    6    6    0    0  0.31250873064E+02  0.25236123196E+02  0.53380481922E+02  0.66805350320E+02  0.00000000000E+00 0. -1.
         -5    1    3    3    0  503 -0.10745652363E+02  0.31616941394E+02  0.16351248216E+02  0.37477371119E+02  0.47000000000E+01 0.  1.
         11    1    4    4    0    0 -0.16017185852E+02 -0.60604860103E+02  0.11223029550E+01  0.62695764407E+02  0.00000000000E+00 0. -1.
        -12    1    4    4    0    0 -0.54499392595E+00 -0.58016602583E+02 -0.90527963834E+02  0.10752458058E+03  0.00000000000E+00 0.  1.
</event>
<event>
12    1  0.8461994E-002  0.2154467E+03  0.7818608E-02  0.1137676E+00
         21   -1    0    0  501  502  0.00000000000E+00  0.00000000000E+00  0.70370984951E+02  0.70370984951E+02  0.00000000000E+00 0. -1.
         21   -1    0    0  502  503 -0.00000000000E+00 -0.00000000000E+00 -0.85423747068E+03  0.85423747068E+03  0.00000000000E+00 0.  1.
         -6    2    1    2    0  503  0.12817849316E+03 -0.16494280239E+02 -0.61446717469E+03  0.65054019634E+03  0.17009071371E+03 0.  0.
        -24    2    3    3    0    0  0.19287574123E+02 -0.52796773996E+02 -0.24289697613E+03  0.26161654604E+03  0.79276517895E+02 0.  0.
          6    2    1    2  501    0 -0.12817849316E+03  0.16494280239E+02 -0.16939931104E+03  0.27406825929E+03  0.17238183426E+03 0.  0.
         24    2    5    5    0    0 -0.16030931994E+03 -0.47581554237E-01 -0.14130828360E+03  0.22805501072E+03  0.79636527902E+02 0.  0.
          5    1    5    5  501    0  0.32130826786E+02  0.16541861793E+02 -0.28091027436E+02  0.46013248570E+02  0.47000000000E+01 0. -1.
        -11    1    6    6    0    0 -0.25303997576E+02 -0.84498801439E+00 -0.71947698377E+02  0.76272390810E+02  0.00000000000E+00 0.  1.
         12    1    6    6    0    0 -0.13500532237E+03  0.79740646015E+00 -0.69360585223E+02  0.15178261991E+03  0.00000000000E+00 0. -1.
         -5    1    3    3    0  503  0.10889091904E+03  0.36302493757E+02 -0.37157019856E+03  0.38892365030E+03  0.47000000000E+01 0.  1.
         11    1    4    4    0    0 -0.20501255422E+02  0.70964585809E+00 -0.18854372695E+02  0.27862025067E+02  0.00000000000E+00 0. -1.
        -12    1    4    4    0    0  0.39788829544E+02 -0.53506419854E+02 -0.22404260343E+03  0.23375452097E+03  0.00000000000E+00 0.  1.
</event>
<event>
12    1  0.8461994E-002  0.1900734E+03  0.7818608E-02  0.1158797E+00
         21   -1    0    0  503  502  0.00000000000E+00  0.00000000000E+00  0.10196843822E+03  0.10196843822E+03  0.00000000000E+00 0.  1.
         21   -1    0    0  501  503 -0.00000000000E+00 -0.00000000000E+00 -0.36628343403E+03  0.36628343403E+03  0.00000000000E+00 0.  1.
          6    2    1    2  501    0 -0.19825700814E+02  0.75404387942E+02 -0.17938069117E+03  0.26006510870E+03  0.17139879890E+03 0.  0.
         24    2    3    3    0    0  0.53364506821E+02  0.28199879096E+02 -0.11278009214E+03  0.15032540786E+03  0.78964392583E+02 0.  0.
         -6    2    1    2    0  502  0.19825700814E+02 -0.75404387942E+02 -0.84934304642E+02  0.20818676355E+03  0.17334650927E+03 0.  0.
        -24    2    5    5    0    0  0.63394730254E+02  0.20307984526E+01 -0.36292315616E+02  0.10678360031E+03  0.77862630033E+02 0.  0.
          5    1    3    3  501    0 -0.73190207636E+02  0.47204508846E+02 -0.66600599034E+02  0.10973970084E+03  0.47000000000E+01 0. -1.
        -11    1    4    4    0    0  0.93061965563E+01 -0.26234793796E+01 -0.92271994309E+02  0.92777200174E+02  0.00000000000E+00 0.  1.
         12    1    4    4    0    0  0.44058310265E+02  0.30823358476E+02 -0.20508097828E+02  0.57548207684E+02  0.00000000000E+00 0. -1.
         -5    1    5    5    0  502 -0.43569029440E+02 -0.77435186395E+02 -0.48641989026E+02  0.10140316324E+03  0.47000000000E+01 0.  1.
         11    1    6    6    0    0  0.36389030625E+02  0.63836705051E+01 -0.60081779896E+02  0.70531787688E+02  0.00000000000E+00 0. -1.
        -12    1    6    6    0    0  0.27005699629E+02 -0.43528720525E+01  0.23789464280E+02  0.36251812621E+02  0.00000000000E+00 0.  1.
</event>
<event>
12    1  0.8461994E-002  0.1733542E+03  0.7818608E-02  0.1174663E+00
         21   -1    0    0  503  502  0.00000000000E+00  0.00000000000E+00  0.33674987192E+03  0.33674987192E+03  0.00000000000E+00 0.  1.
         21   -1    0    0  501  503 -0.00000000000E+00 -0.00000000000E+00 -0.10086411181E+03  0.10086411181E+03  0.00000000000E+00 0.  1.
          6    2    1    2  501    0  0.49562074283E+01 -0.12721375141E+02  0.19361771175E+03  0.25918120024E+03  0.17175761664E+03 0.  0.
         24    2    3    3    0    0  0.56247518499E+02  0.17690669151E+02  0.42177010951E+02  0.96355935337E+02  0.63473009301E+02 0.  0.
         -6    2    1    2    0  502 -0.49562074283E+01  0.12721375141E+02  0.42268048357E+02  0.17843278349E+03  0.17281571958E+03 0.  0.
        -24    2    5    5    0    0  0.45097113933E+02  0.36082364120E+02  0.65567511933E+02  0.11829938355E+03  0.79749350101E+02 0.  0.
          5    1    3    3  501    0 -0.51291311070E+02 -0.30412044292E+02  0.15144070080E+03  0.16282526490E+03  0.47000000000E+01 0. -1.
        -11    1    4    4    0    0 -0.29862846823E+01  0.20042203756E+02  0.29412183367E+02  0.35716723786E+02  0.00000000000E+00 0.  1.
         12    1    4    4    0    0  0.59233803181E+02 -0.23515346051E+01  0.12764827584E+02  0.60639211551E+02  0.00000000000E+00 0. -1.
         -5    1    5    5    0  502 -0.50053321362E+02 -0.23360988980E+02 -0.23299463576E+02  0.60133399940E+02  0.47000000000E+01 0.  1.
         11    1    6    6    0    0  0.39526632688E+00 -0.19586759422E+02  0.36077127681E+02  0.41053093938E+02  0.00000000000E+00 0. -1.
        -12    1    6    6    0    0  0.44701847607E+02  0.55669123543E+02  0.29490384251E+02  0.77246289612E+02  0.00000000000E+00 0.  1.
</event>
<event>
12    1  0.8461994E-002  0.1793425E+03  0.7818608E-02  0.1168684E+00
         21   -1    0    0  503  502  0.00000000000E+00  0.00000000000E+00  0.19112960737E+03  0.19112960737E+03  0.00000000000E+00 0. -1.
         21   -1    0    0  501  503 -0.00000000000E+00 -0.00000000000E+00 -0.27586695507E+03  0.27586695507E+03  0.00000000000E+00 0. -1.
          6    2    1    2  501    0  0.16103877934E+02 -0.48533146705E+02 -0.18889003872E+03  0.26046723084E+03  0.17189802326E+03 0.  0.
         24    2    3    3    0    0 -0.31955220845E+02 -0.79993673134E+02 -0.10017899183E+03  0.15467884991E+03  0.80433776028E+02 0.  0.
         -6    2    1    2    0  502 -0.16103877934E+02  0.48533146705E+02  0.10415269102E+03  0.20652933160E+03  0.17085602286E+03 0.  0.
        -24    2    5    5    0    0 -0.39344514204E+02 -0.33722550706E+02  0.52794530713E+02  0.10670008958E+03  0.76892427583E+02 0.  0.
          5    1    3    3  501    0  0.48059098778E+02  0.31460526430E+02 -0.88711046894E+02  0.10578838093E+03  0.47000000000E+01 0. -1.
        -11    1    4    4    0    0 -0.15738450651E+02 -0.20314798262E+02 -0.87964258308E+02  0.91641151221E+02  0.00000000000E+00 0.  1.
         12    1    4    4    0    0 -0.16216770193E+02 -0.59678874873E+02 -0.12214733520E+02  0.63037698693E+02  0.00000000000E+00 0. -1.
         -5    1    5    5    0  502  0.23240636270E+02  0.82255697411E+02  0.51358160307E+02  0.99829242013E+02  0.47000000000E+01 0.  1.
         13    1    6    6    0    0 -0.18726679369E+02  0.18409736759E+02 -0.43837036815E+01  0.26623744772E+02  0.00000000000E+00 0. -1.
        -14    1    6    6    0    0 -0.20617834835E+02 -0.52132287466E+02  0.57178234394E+02  0.80076344810E+02  0.00000000000E+00 0.  1.
</event>
<event>
12    1  0.8461994E-002  0.2135366E+03  0.7818608E-02  0.1138943E+00
         21   -1    0    0  503  502  0.00000000000E+00  0.00000000000E+00  0.34335581620E+03  0.34335581620E+03  0.00000000000E+00 0.  1.
         21   -1    0    0  501  503 -0.00000000000E+00 -0.00000000000E+00 -0.17800446121E+03  0.17800446121E+03  0.00000000000E+00 0.  1.
          6    2    1    2  501    0  0.98241315339E+02  0.78468324821E+02 -0.49484659874E+02  0.21845371110E+03  0.17165272584E+03 0.  0.
         24    2    3    3    0    0  0.10704720651E+03  0.29702669765E+02 -0.82811601182E+02  0.15855039025E+03  0.77065634005E+02 0.  0.
         -6    2    1    2    0  502 -0.98241315339E+02 -0.78468324821E+02  0.21483601487E+03  0.30290656632E+03  0.17259559842E+03 0.  0.
        -24    2    5    5    0    0 -0.96170111907E+02 -0.59356689739E+01  0.71161042946E+02  0.14187904194E+03  0.76038450271E+02 0.  0.
          5    1    3    3  501    0 -0.88058911670E+01  0.48765655056E+02  0.33326941307E+02  0.59903320853E+02  0.47000000000E+01 0. -1.
        -11    1    4    4    0    0  0.69437186445E+02  0.40507405024E+02 -0.17281015323E+02  0.82225338028E+02  0.00000000000E+00 0.  1.
         12    1    4    4    0    0  0.37610020061E+02 -0.10804735259E+02 -0.65530585858E+02  0.76325052217E+02  0.00000000000E+00 0. -1.
         -5    1    5    5    0  502 -0.20712034323E+01 -0.72532655847E+02  0.14367497192E+03  0.16102752437E+03  0.47000000000E+01 0.  1.
         11    1    6    6    0    0  0.12514104050E+02  0.36109259240E+01  0.34540656532E+01  0.13474871270E+02  0.00000000000E+00 0. -1.
        -12    1    6    6    0    0 -0.10868421596E+03 -0.95465948978E+01  0.67706977293E+02  0.12840417067E+03  0.00000000000E+00 0.  1.
</event>
<event>
12    1  0.8461994E-002  0.2233428E+03  0.7818608E-02  0.1131625E+00
         21   -1    0    0  503  502  0.00000000000E+00  0.00000000000E+00  0.11172364262E+03  0.11172364262E+03  0.00000000000E+00 0. -1.
         21   -1    0    0  501  503 -0.00000000000E+00 -0.00000000000E+00 -0.45304748401E+03  0.45304748401E+03  0.00000000000E+00 0. -1.
          6    2    1    2  501    0 -0.13844748342E+03  0.28060578497E+02 -0.13160134866E+03  0.25923143850E+03  0.17299399414E+03 0.  0.
         24    2    3    3    0    0 -0.67146161203E+02  0.69855189218E+02 -0.44248425252E+02  0.13888489197E+03  0.89122026764E+02 0.  0.
         -6    2    1    2    0  502  0.13844748342E+03 -0.28060578497E+02 -0.20972249274E+03  0.30553968813E+03  0.17151056916E+03 0.  0.
        -24    2    5    5    0    0  0.12501334465E+03  0.10375390625E+02 -0.21814721454E+03  0.26369634046E+03  0.78813499405E+02 0.  0.
          5    1    3    3  501    0 -0.71301322216E+02 -0.41794610721E+02 -0.87352923406E+02  0.12034654653E+03  0.47000000000E+01 0. -1.
        -13    1    4    4    0    0  0.16867240278E+02  0.38355508319E+02 -0.15288812934E+02  0.44602652544E+02  0.00000000000E+00 0.  1.
         14    1    4    4    0    0 -0.84013401481E+02  0.31499680899E+02 -0.28959612318E+02  0.94282239423E+02  0.00000000000E+00 0. -1.
         -5    1    5    5    0  502  0.13434138764E+02 -0.38435969122E+02  0.84247218076E+01  0.41843347669E+02  0.47000000000E+01 0.  1.
         13    1    6    6    0    0  0.33933465187E+02 -0.11417231293E+02 -0.12834957909E+02  0.38033792534E+02  0.00000000000E+00 0. -1.
        -14    1    6    6    0    0  0.91079879468E+02  0.21792621918E+02 -0.20531225663E+03  0.22566254793E+03  0.00000000000E+00 0.  1.
</event>
<event>
12    1  0.8461994E-002  0.1842663E+03  0.7818608E-02  0.1163840E+00
         21   -1    0    0  501  502  0.00000000000E+00  0.00000000000E+00  0.94644626363E+02  0.94644626363E+02  0.00000000000E+00 0.  1.
         21   -1    0    0  502  503 -0.00000000000E+00 -0.00000000000E+00 -0.40087256212E+03  0.40087256212E+03  0.00000000000E+00 0.  1.
         -6    2    1    2    0  503 -0.60650554351E+02  0.20234204657E+02 -0.23407255821E+03  0.29762712875E+03  0.17234857840E+03 0.  0.
        -24    2    3    3    0    0 -0.73452581060E+02  0.66862697407E+02 -0.20446328304E+03  0.24073330307E+03  0.79255202523E+02 0.  0.
          6    2    1    2  501    0  0.60650554351E+02 -0.20234204657E+02 -0.72155377545E+02  0.19789005973E+03  0.17281829895E+03 0.  0.
         24    2    5    5    0    0  0.66352796567E+02 -0.70260642692E+01  0.18228045266E+02  0.10624823709E+03  0.80649656283E+02 0.  0.
          5    1    5    5  501    0 -0.57022422163E+01 -0.13208140388E+02 -0.90383422811E+02  0.91641822646E+02  0.47000000000E+01 0. -1.
        -11    1    6    6    0    0 -0.75183663823E+01 -0.16908210139E+02  0.25343595775E+02  0.31380109145E+02  0.00000000000E+00 0.  1.
         12    1    6    6    0    0  0.73871162950E+02  0.98821458700E+01 -0.71155505087E+01  0.74868127942E+02  0.00000000000E+00 0. -1.
         -5    1    3    3    0  503  0.12802026709E+02 -0.46628492750E+02 -0.29609275168E+02  0.56893825675E+02  0.47000000000E+01 0.  1.
         13    1    4    4    0    0  0.15300883304E+02  0.17860308250E+02 -0.58167927890E+02  0.62742453536E+02  0.00000000000E+00 0. -1.
        -14    1    4    4    0    0 -0.88753464364E+02  0.49002389157E+02 -0.14629535515E+03  0.17799084953E+03  0.00000000000E+00 0.  1.
</event>
<event>
12    1  0.8461994E-002  0.2290052E+03  0.7818608E-02  0.1127454E+00
         21   -1    0    0  501  502  0.00000000000E+00  0.00000000000E+00  0.11794180852E+04  0.11794180852E+04  0.00000000000E+00 0. -1.
         21   -1    0    0  502  503 -0.00000000000E+00 -0.00000000000E+00 -0.10244285309E+03  0.10244285309E+03  0.00000000000E+00 0.  1.
         -6    2    1    2    0  503 -0.37193226491E+02  0.14591188993E+03  0.56130802402E+02  0.23578393955E+03  0.17253922293E+03 0.  0.
        -24    2    3    3    0    0  0.40141392673E+02  0.74505123850E+02  0.62129196411E+02  0.13024892027E+03  0.77086959332E+02 0.  0.
          6    2    1    2  501    0  0.37193226491E+02 -0.14591188993E+03  0.10208444297E+04  0.10460769987E+04  0.17169776326E+03 0.  0.
         24    2    5    5    0    0 -0.27037066677E+02 -0.21567108028E+02  0.36839151379E+03  0.37876593721E+03  0.80964094738E+02 0.  0.
          5    1    5    5  501    0  0.64230293168E+02 -0.12434478191E+03  0.65245291590E+03  0.66731106152E+03  0.47000000000E+01 0. -1.
        -11    1    6    6    0    0  0.13322222941E+02 -0.20128075714E+02  0.32645830434E+02  0.40600139172E+02  0.00000000000E+00 0.  1.
         12    1    6    6    0    0 -0.40359289618E+02 -0.14390323141E+01  0.33574568335E+03  0.33816579804E+03  0.00000000000E+00 0. -1.
         -5    1    3    3    0  503 -0.77334619164E+02  0.71406766084E+02 -0.59983940082E+01  0.10553501928E+03  0.47000000000E+01 0.  1.
         11    1    4    4    0    0  0.31078933981E+02  0.79237644752E+02  0.75254089136E+02  0.11361198183E+03  0.00000000000E+00 0. -1.
        -12    1    4    4    0    0  0.90624586921E+01 -0.47325209014E+01 -0.13124892726E+02  0.16636938441E+02  0.00000000000E+00 0.  1.
</event>
<event>
12    1  0.8461994E-002  0.2043491E+03  0.7818608E-02  0.1146254E+00
         21   -1    0    0  501  502  0.00000000000E+00  0.00000000000E+00  0.80198865724E+03  0.80198865724E+03  0.00000000000E+00 0. -1.
         21   -1    0    0  502  503 -0.00000000000E+00 -0.00000000000E+00 -0.54021951280E+02  0.54021951280E+02  0.00000000000E+00 0. -1.
         -6    2    1    2    0  503 -0.68977504546E+02 -0.86294829722E+02  0.28979344729E+03  0.35459665043E+03  0.17191232834E+03 0.  0.
        -24    2    3    3    0    0 -0.39206442577E+02 -0.50817864207E+02  0.29007100995E+03  0.30804454786E+03  0.81428816726E+02 0.  0.
          6    2    1    2  501    0  0.68977504546E+02  0.86294829722E+02  0.45817325867E+03  0.50141395809E+03  0.17113891619E+03 0.  0.
         24    2    5    5    0    0  0.57319407826E+02  0.55338480747E+02  0.12869455612E+03  0.17024555350E+03  0.77932007213E+02 0.  0.
          5    1    5    5  501    0  0.11658096720E+02  0.30956348976E+02  0.32947870255E+03  0.33116840458E+03  0.47000000000E+01 0. -1.
        -13    1    6    6    0    0  0.30927605139E+01  0.12548126750E+02 -0.93037529712E+01  0.15924210244E+02  0.00000000000E+00 0.  1.
         14    1    6    6    0    0  0.54226647312E+02  0.42790353997E+02  0.13799830909E+03  0.15432134326E+03  0.00000000000E+00 0. -1.
         -5    1    3    3    0  503 -0.29771061969E+02 -0.35476965515E+02 -0.27756265290E+00  0.46552102573E+02  0.47000000000E+01 0.  1.
         13    1    4    4    0    0 -0.63096695672E+02 -0.44163247057E+02  0.24190013160E+03  0.25386464713E+03  0.00000000000E+00 0. -1.
        -14    1    4    4    0    0  0.23890253095E+02 -0.66546171504E+01  0.48170878347E+02  0.54179900730E+02  0.00000000000E+00 0.  1.
</event>
<event>
12    1  0.8461994E-002  0.1872376E+03  0.7818608E-02  0.1161431E+00
         21   -1    0    0  503  502  0.00000000000E+00  0.00000000000E+00  0.17674503675E+03  0.17674503675E+03  0.00000000000E+00 0. -1.
         21   -1    0    0  501  503 -0.00000000000E+00 -0.00000000000E+00 -0.32476182004E+03  0.32476182004E+03  0.00000000000E+00 0.  1.
          6    2    1    2  501    0 -0.61543619066E+01  0.70563814052E+02 -0.23196498246E+03  0.29810344866E+03  0.17332277690E+03 0.  0.
         24    2    3    3    0    0  0.72524275160E+01  0.60436605779E+02 -0.44746342039E+02  0.11007363275E+03  0.80054909144E+02 0.  0.
         -6    2    1    2    0  502  0.61543619066E+01 -0.70563814052E+02  0.83948199174E+02  0.20340340812E+03  0.17119730800E+03 0.  0.
        -24    2    5    5    0    0 -0.18859267119E+01 -0.74901687986E+02 -0.76171826574E+01  0.11126344643E+03  0.81900631601E+02 0.  0.
          5    1    3    3  501    0 -0.13406789423E+02  0.10127208273E+02 -0.18721864042E+03  0.18802981591E+03  0.47000000000E+01 0. -1.
        -13    1    4    4    0    0  0.13810603359E+02 -0.84208822697E+01  0.12375901315E+02  0.20366810175E+02  0.00000000000E+00 0.  1.
         14    1    4    4    0    0 -0.65581758434E+01  0.68857488049E+02 -0.57122243354E+02  0.89706822576E+02  0.00000000000E+00 0. -1.
         -5    1    5    5    0  502  0.80402886185E+01  0.43378739332E+01  0.91565381832E+02  0.92139961696E+02  0.47000000000E+01 0.  1.
         11    1    6    6    0    0 -0.16205029090E+02 -0.77945119455E+02  0.18125865255E+02  0.81649198440E+02  0.00000000000E+00 0. -1.
        -12    1    6    6    0    0  0.14319102378E+02  0.30434314694E+01 -0.25743047913E+02  0.29614247987E+02  0.00000000000E+00 0.  1.
</event>
<event>
12    1  0.8461994E-002  0.1859661E+03  0.7818608E-02  0.1162508E+00
         21   -1    0    0  503  502  0.00000000000E+00  0.00000000000E+00  0.51484363038E+02  0.51484363038E+02  0.00000000000E+00 0.  1.
         21   -1    0    0  501  503 -0.00000000000E+00 -0.00000000000E+00 -0.69791835780E+03  0.69791835780E+03  0.00000000000E+00 0. -1.
          6    2    1    2  501    0 -0.39789659199E+02  0.52761273598E+02 -0.40437939716E+03  0.44509108569E+03  0.17382867641E+03 0.  0.
         24    2    3    3    0    0 -0.85656993373E+02  0.21516951805E+01 -0.23315210772E+03  0.26068388295E+03  0.79084961853E+02 0.  0.
         -6    2    1    2    0  502  0.39789659199E+02 -0.52761273598E+02 -0.24205459760E+03  0.30431163515E+03  0.17218645155E+03 0.  0.
        -24    2    5    5    0    0  0.16009487241E+02  0.34562914336E+02 -0.95389495828E+02  0.13190585667E+03  0.82759291800E+02 0.  0.
          5    1    3    3  501    0  0.45867334174E+02  0.50609578417E+02 -0.17122728944E+03  0.18440720274E+03  0.47000000000E+01 0. -1.
        -13    1    4    4    0    0  0.57982937423E+01 -0.20695058574E+02 -0.32108760409E+02  0.38637781441E+02  0.00000000000E+00 0.  1.
         14    1    4    4    0    0 -0.91455287115E+02  0.22846753755E+02 -0.20104334731E+03  0.22204610151E+03  0.00000000000E+00 0. -1.
         -5    1    5    5    0  502  0.23780171958E+02 -0.87324187934E+02 -0.14666510177E+03  0.17240577848E+03  0.47000000000E+01 0.  1.
         13    1    6    6    0    0 -0.30498525589E+02  0.18485082620E+02 -0.17380229917E+02  0.39672795900E+02  0.00000000000E+00 0. -1.
        -14    1    6    6    0    0  0.46508012830E+02  0.16077831716E+02 -0.78009265911E+02  0.92233060765E+02  0.00000000000E+00 0.  1.
</event>
<event>
12    1  0.8461994E-002  0.1870900E+03  0.7818608E-02  0.1161212E+00
         21   -1    0    0  501  502  0.00000000000E+00  0.00000000000E+00  0.36174492946E+03  0.36174492946E+03  0.00000000000E+00 0. -1.
         21   -1    0    0  502  503 -0.00000000000E+00 -0.00000000000E+00 -0.18573391819E+03  0.18573391819E+03  0.00000000000E+00 0. -1.
         -6    2    1    2    0  503 -0.71170265145E+02 -0.18324771128E+02 -0.10174576275E+03  0.21258856091E+03  0.17158290159E+03 0.  0.
        -24    2    3    3    0    0 -0.82574030993E+02 -0.60068407595E+02 -0.10861523315E+03  0.16852205794E+03  0.78585819034E+02 0.  0.
          6    2    1    2  501    0  0.71170265145E+02  0.18324771128E+02  0.27775677402E+03  0.33489028674E+03  0.17205137245E+03 0.  0.
         24    2    5    5    0    0  0.31609849108E+02  0.33533122373E+02  0.56204678099E+02  0.10927171110E+03  0.81594657611E+02 0.  0.
          5    1    5    5  501    0  0.39560416037E+02 -0.15208351245E+02  0.22155209592E+03  0.22561857564E+03  0.47000000000E+01 0. -1.
        -13    1    6    6    0    0  0.11586834936E+02 -0.15466301610E+02 -0.12143077286E+02  0.22823574552E+02  0.00000000000E+00 0.  1.
         14    1    6    6    0    0  0.20023014172E+02  0.48999423983E+02  0.68347755385E+02  0.86448136552E+02  0.00000000000E+00 0. -1.
         -5    1    3    3    0  503  0.11403765848E+02  0.41743636467E+02  0.68694704037E+01  0.44066502977E+02  0.47000000000E+01 0.  1.
         13    1    4    4    0    0 -0.52120548910E+02 -0.32734748427E+02 -0.10794658613E+02  0.62487118895E+02  0.00000000000E+00 0. -1.
        -14    1    4    4    0    0 -0.30453482083E+02 -0.27333659168E+02 -0.97820574538E+02  0.10603493904E+03  0.00000000000E+00 0.  1.
</event>
<event>
12    1  0.8461994E-002  0.2326193E+03  0.7818608E-02  0.1124946E+00
         21   -1    0    0  503  502  0.00000000000E+00  0.00000000000E+00  0.13862316671E+04  0.13862316671E+04  0.00000000000E+00 0.  1.
         21   -1    0    0  501  503 -0.00000000000E+00 -0.00000000000E+00 -0.46550787181E+02  0.46550787181E+02  0.00000000000E+00 0. -1.
          6    2    1    2  501    0  0.15666518815E+03 -0.30857770750E+01  0.38042708190E+03  0.44591088160E+03  0.17192511884E+03 0.  0.
         24    2    3    3    0    0  0.44151116666E+02  0.11971794398E+02  0.28806689065E+03  0.29949147828E+03  0.67970339926E+02 0.  0.
         -6    2    1    2    0  502 -0.15666518815E+03  0.30857770750E+01  0.95925379797E+03  0.98687157264E+03  0.17086295314E+03 0.  0.
        -24    2    5    5    0    0 -0.15749990801E+03  0.50594109721E+02  0.74160745398E+03  0.76404931279E+03  0.80148310151E+02 0.  0.
          5    1    3    3  501    0  0.11251407148E+03 -0.15057571473E+02  0.92360191246E+02  0.14641940331E+03  0.47000000000E+01 0. -1.
        -13    1    4    4    0    0 -0.15421453741E+02  0.14920082304E+02  0.96358481005E+02  0.98718726455E+02  0.00000000000E+00 0.  1.
         14    1    4    4    0    0  0.59572570407E+02 -0.29482879058E+01  0.19170840965E+03  0.20077275183E+03  0.00000000000E+00 0. -1.
         -5    1    5    5    0  502  0.83471986194E+00 -0.47508332646E+02  0.21764634400E+03  0.22282225985E+03  0.47000000000E+01 0.  1.
         13    1    6    6    0    0 -0.56087435384E+02  0.19245223675E+02  0.12475135027E+03  0.13812703731E+03  0.00000000000E+00 0. -1.
        -14    1    6    6    0    0 -0.10141247262E+03  0.31348886046E+02  0.61685610371E+03  0.62592227548E+03  0.00000000000E+00 0.  1.
</event>
<event>
12    1  0.8461994E-002  0.2376467E+03  0.7818608E-02  0.1121673E+00
         21   -1    0    0  503  502  0.00000000000E+00  0.00000000000E+00  0.74807004014E+02  0.74807004014E+02  0.00000000000E+00 0.  1.
         21   -1    0    0  501  503 -0.00000000000E+00 -0.00000000000E+00 -0.18239749537E+04  0.18239749537E+04  0.00000000000E+00 0. -1.
          6    2    1    2  501    0  0.13527545412E+03 -0.89566579144E+02 -0.16019721757E+04  0.16192420763E+04  0.17119704851E+03 0.  0.
         24    2    3    3    0    0  0.23946884836E+02 -0.90313701399E+02 -0.75852937492E+03  0.76847039325E+03  0.80311361125E+02 0.  0.
         -6    2    1    2    0  502 -0.13527545412E+03  0.89566579144E+02 -0.14719577398E+03  0.27953988138E+03  0.17365001820E+03 0.  0.
        -24    2    5    5    0    0 -0.19071496445E+02  0.55110826113E+02 -0.13798629501E+02  0.99241664944E+02  0.79104871867E+02 0.  0.
          5    1    3    3  501    0  0.11132856929E+03  0.74712225485E+00 -0.84344280078E+03  0.85077168307E+03  0.47000000000E+01 0. -1.
        -11    1    4    4    0    0 -0.25073097885E+02 -0.11309955389E+02 -0.25026432141E+03  0.25177133653E+03  0.00000000000E+00 0.  1.
         12    1    4    4    0    0  0.49019982721E+02 -0.79003746011E+02 -0.50826505352E+03  0.51669905672E+03  0.00000000000E+00 0. -1.
         -5    1    5    5    0  502 -0.11620395768E+03  0.34455753031E+02 -0.13339714447E+03  0.18029821644E+03  0.47000000000E+01 0.  1.
         13    1    6    6    0    0  0.36617623330E+01 -0.19150916885E+02 -0.88739537334E+01  0.21422258886E+02  0.00000000000E+00 0. -1.
        -14    1    6    6    0    0 -0.22733258778E+02  0.74261742998E+02 -0.49246757671E+01  0.77819406058E+02  0.00000000000E+00 0.  1.
</event>
<event>
12    1  0.8461994E-002  0.1861627E+03  0.7818608E-02  0.1162539E+00
         21   -1    0    0  503  502  0.00000000000E+00  0.00000000000E+00  0.77004753336E+02  0.77004753336E+02  0.00000000000E+00 0.  1.
         21   -1    0    0  501  503 -0.00000000000E+00 -0.00000000000E+00 -0.77813893516E+03  0.77813893516E+03  0.00000000000E+00 0.  1.
          6    2    1    2  501    0 -0.38693001321E+02  0.54132066061E+02 -0.63200376116E+03  0.65885150518E+03  0.17386524330E+03 0.  0.
         24    2    3    3    0    0 -0.95457601073E+02  0.57897686685E+02 -0.44952122069E+03  0.46764908035E+03  0.64513864995E+02 0.  0.
         -6    2    1    2    0  502  0.38693001321E+02 -0.54132066061E+02 -0.69130420666E+02  0.19629218332E+03  0.17124303560E+03 0.  0.
        -24    2    5    5    0    0  0.60458177218E+00 -0.61970246755E+02 -0.10229660457E+03  0.14496723290E+03  0.81915971013E+02 0.  0.
          5    1    3    3  501    0  0.56764599751E+02 -0.37656206239E+01 -0.18248254047E+03  0.19120242483E+03  0.47000000000E+01 0. -1.
        -13    1    4    4    0    0 -0.53524912195E+02  0.61188687796E+02 -0.35503541270E+03  0.36422399154E+03  0.00000000000E+00 0.  1.
         14    1    4    4    0    0 -0.41932688877E+02 -0.32910011104E+01 -0.94485807986E+02  0.10342508881E+03  0.00000000000E+00 0. -1.
         -5    1    5    5    0  502  0.38088419549E+02  0.78381806934E+01  0.33166183905E+02  0.51324950415E+02  0.47000000000E+01 0.  1.
         13    1    6    6    0    0 -0.32086089508E+02 -0.11160420181E+02 -0.11420630551E+02  0.35839962621E+02  0.00000000000E+00 0. -1.
        -14    1    6    6    0    0  0.32690671280E+02 -0.50809826573E+02 -0.90875974020E+02  0.10912727028E+03  0.00000000000E+00 0.  1.
</event>
<event>
12    1  0.8461994E-002  0.1822198E+03  0.7818608E-02  0.1165894E+00
         21   -1    0    0  503  502  0.00000000000E+00  0.00000000000E+00  0.81582704918E+03  0.81582704918E+03  0.00000000000E+00 0. -1.
         21   -1    0    0  501  503 -0.00000000000E+00 -0.00000000000E+00 -0.44005207918E+02  0.44005207918E+02  0.00000000000E+00 0. -1.
          6    2    1    2  501    0  0.38660090138E+01  0.59617196277E+02  0.26535047232E+03  0.32189274155E+03  0.17214792414E+03 0.  0.
         24    2    3    3    0    0  0.52197117705E+02  0.54791053244E+02  0.10022277908E+03  0.14970553878E+03  0.81489534807E+02 0.  0.
         -6    2    1    2    0  502 -0.38660090138E+01 -0.59617196277E+02  0.50647136894E+03  0.53793951554E+03  0.17116225842E+03 0.  0.
        -24    2    5    5    0    0 -0.25482445533E+02 -0.79386341419E+02  0.20837788945E+03  0.23837332596E+03  0.80305363972E+02 0.  0.
          5    1    3    3  501    0 -0.48331108691E+02  0.48261430330E+01  0.16512769323E+03  0.17218720277E+03  0.47000000000E+01 0. -1.
        -13    1    4    4    0    0 -0.17862912989E+02 -0.23983875136E+01  0.57392161097E+01  0.18914928619E+02  0.00000000000E+00 0.  1.
         14    1    4    4    0    0  0.70060030694E+02  0.57189440758E+02  0.94483562972E+02  0.13079061016E+03  0.00000000000E+00 0. -1.
         -5    1    5    5    0  502  0.21616436519E+02  0.19769145142E+02  0.29809347949E+03  0.29956618959E+03  0.47000000000E+01 0.  1.
         13    1    6    6    0    0 -0.19782369941E+01 -0.50632128067E+02  0.19056038181E+03  0.19718211108E+03  0.00000000000E+00 0. -1.
        -14    1    6    6    0    0 -0.23504208539E+02 -0.28754213352E+02  0.17817507636E+02  0.41191214875E+02  0.00000000000E+00 0.  1.
</event>
<event>
12    1  0.8461994E-002  0.2450476E+03  0.7818608E-02  0.1116691E+00
         21   -1    0    0  503  502  0.00000000000E+00  0.00000000000E+00  0.72155685105E+02  0.72155685105E+02  0.00000000000E+00 0. -1.
         21   -1    0    0  501  503 -0.00000000000E+00 -0.00000000000E+00 -0.12691233458E+04  0.12691233458E+04  0.00000000000E+00 0.  1.
          6    2    1    2  501    0 -0.12919892512E+03  0.11803861128E+03 -0.99293667356E+03  0.10224107751E+04  0.16963218816E+03 0.  0.
         24    2    3    3    0    0 -0.92035812297E+02  0.13069388431E+03 -0.93723440834E+03  0.95410202569E+03  0.79692265092E+02 0.  0.
         -6    2    1    2    0  502  0.12919892512E+03 -0.11803861128E+03 -0.20403098710E+03  0.31886825581E+03  0.17153088602E+03 0.  0.
        -24    2    5    5    0    0  0.12187736975E+03 -0.21317921203E+02 -0.12801335694E+03  0.19554239819E+03  0.80875601472E+02 0.  0.
          5    1    3    3  501    0 -0.37163112822E+02 -0.12655273026E+02 -0.55702265227E+02  0.68308749377E+02  0.47000000000E+01 0. -1.
        -11    1    4    4    0    0 -0.25348836415E+02  0.51062162680E+01 -0.58817970371E+02  0.64250996807E+02  0.00000000000E+00 0.  1.
         12    1    4    4    0    0 -0.66686975883E+02  0.12558766804E+03 -0.87841643797E+03  0.88985102888E+03  0.00000000000E+00 0. -1.
         -5    1    5    5    0  502  0.73215553739E+01 -0.96720690079E+02 -0.76017630164E+02  0.12332585762E+03  0.47000000000E+01 0.  1.
         13    1    6    6    0    0  0.12700257308E+03 -0.18178912435E+02 -0.89181247895E+02  0.15624794848E+03  0.00000000000E+00 0. -1.
        -14    1    6    6    0    0 -0.51252033373E+01 -0.31390087679E+01 -0.38832109042E+02  0.39294449709E+02  0.00000000000E+00 0.  1.
</event>
<event>
12    1  0.8461994E-002  0.1859421E+03  0.7818608E-02  0.1162513E+00
         21   -1    0    0  501  502  0.00000000000E+00  0.00000000000E+00  0.19779409112E+03  0.19779409112E+03  0.00000000000E+00 0.  1.
         21   -1    0    0  502  503 -0.00000000000E+00 -0.00000000000E+00 -0.17352048697E+03  0.17352048697E+03  0.00000000000E+00 0.  1.
         -6    2    1    2    0  503 -0.71258294507E+02 -0.26985480526E+01  0.16362660442E+02  0.18666066544E+03  0.17172489822E+03 0.  0.
        -24    2    3    3    0    0 -0.11372199012E+03 -0.79111140245E+01  0.20122621794E+02  0.14345692025E+03  0.84733059059E+02 0.  0.
          6    2    1    2  501    0  0.71258294507E+02  0.26985480526E+01  0.79109437034E+01  0.18465391264E+03  0.17014540172E+03 0.  0.
         24    2    5    5    0    0 -0.11236016440E+02  0.46146378693E+02 -0.13266873779E+02  0.88927138546E+02  0.74001957395E+02 0.  0.
          5    1    5    5  501    0  0.82494310947E+02 -0.43447830640E+02  0.21177817482E+02  0.95726774098E+02  0.47000000000E+01 0. -1.
        -11    1    6    6    0    0  0.10922026111E+02  0.56030841505E+02  0.67367085827E+01  0.57481554404E+02  0.00000000000E+00 0.  1.
         12    1    6    6    0    0 -0.22158042551E+02 -0.98844628126E+01 -0.20003582362E+02  0.31445584143E+02  0.00000000000E+00 0. -1.
         -5    1    3    3    0  503  0.42463695615E+02  0.52125659719E+01 -0.37599613521E+01  0.43203745193E+02  0.47000000000E+01 0.  1.
         13    1    4    4    0    0 -0.62793528301E+02  0.37670741730E+02  0.16198072603E+02  0.74996596823E+02  0.00000000000E+00 0. -1.
        -14    1    4    4    0    0 -0.50928461821E+02 -0.45581855754E+02  0.39245491909E+01  0.68460323428E+02  0.00000000000E+00 0.  1.
</event>
<event>
12    1  0.8461994E-002  0.1936897E+03  0.7818608E-02  0.1155412E+00
         21   -1    0    0  501  502  0.00000000000E+00  0.00000000000E+00  0.57618342870E+03  0.57618342870E+03  0.00000000000E+00 0. -1.
         21   -1    0    0  502  503 -0.00000000000E+00 -0.00000000000E+00 -0.74740788234E+02  0.74740788234E+02  0.00000000000E+00 0. -1.
         -6    2    1    2    0  503 -0.71319171622E+02 -0.52396134305E+02  0.13112508299E+03  0.23301181401E+03  0.17108167332E+03 0.  0.
        -24    2    3    3    0    0 -0.11307409172E+03 -0.27345935732E+02  0.77385319482E+02  0.16034106347E+03  0.78658874540E+02 0.  0.
          6    2    1    2  501    0  0.71319171622E+02  0.52396134305E+02  0.37031755748E+03  0.41791240293E+03  0.17229017388E+03 0.  0.
         24    2    5    5    0    0 -0.41265366263E+01  0.24253596587E+02  0.29518785363E+03  0.30768255343E+03  0.83231120965E+02 0.  0.
          5    1    5    5  501    0  0.75445708248E+02  0.28142537718E+02  0.75129703843E+02  0.11022984950E+03  0.47000000000E+01 0. -1.
        -11    1    6    6    0    0  0.10911538329E+02  0.26757903132E+02  0.28593359327E+02  0.40652518327E+02  0.00000000000E+00 0.  1.
         12    1    6    6    0    0 -0.15038074955E+02 -0.25043065452E+01  0.26659449431E+03  0.26703003510E+03  0.00000000000E+00 0. -1.
         -5    1    3    3    0  503  0.41754920102E+02 -0.25050198573E+02  0.53739763510E+02  0.72670750536E+02  0.47000000000E+01 0.  1.
         13    1    4    4    0    0 -0.82169590945E+02 -0.51373027658E+02  0.36008209613E+02  0.10338094992E+03  0.00000000000E+00 0. -1.
        -14    1    4    4    0    0 -0.30904500779E+02  0.24027091926E+02  0.41377109869E+02  0.56960113553E+02  0.00000000000E+00 0.  1.
</event>
<event>
12    1  0.8461994E-002  0.1948171E+03  0.7818608E-02  0.1154587E+00
         21   -1    0    0  503  502  0.00000000000E+00  0.00000000000E+00  0.94493024867E+02  0.94493024867E+02  0.00000000000E+00 0.  1.
         21   -1    0    0  501  503 -0.00000000000E+00 -0.00000000000E+00 -0.40048794209E+03  0.40048794209E+03  0.00000000000E+00 0.  1.
          6    2    1    2  501    0 -0.58277564140E+02 -0.61874411460E+02 -0.17358159705E+03  0.26092964131E+03  0.17529686137E+03 0.  0.
         24    2    3    3    0    0 -0.32093020684E+02 -0.69360231102E+02 -0.19634028203E+03  0.22512858611E+03  0.79325722819E+02 0.  0.
         -6    2    1    2    0  502  0.58277564140E+02  0.61874411460E+02 -0.13241332018E+03  0.23405132565E+03  0.17326863075E+03 0.  0.
        -24    2    5    5    0    0  0.56584967366E+02 -0.26591032923E+02 -0.51895308885E+02  0.11432563970E+03  0.80425662845E+02 0.  0.
          5    1    3    3  501    0 -0.26184543456E+02  0.74858196417E+01  0.22758684981E+02  0.35801055204E+02  0.47000000000E+01 0. -1.
        -11    1    4    4    0    0 -0.31250554731E+02 -0.20560905491E+02 -0.20533585435E+02  0.42672896977E+02  0.00000000000E+00 0.  1.
         12    1    4    4    0    0 -0.84246595274E+00 -0.48799325611E+02 -0.17580669659E+03  0.18245568913E+03  0.00000000000E+00 0. -1.
         -5    1    5    5    0  502  0.16925967740E+01  0.88465444384E+02 -0.80518011292E+02  0.11972568595E+03  0.47000000000E+01 0.  1.
         13    1    6    6    0    0 -0.16433510717E+02  0.46301153529E+01 -0.25408224367E+02  0.30611698877E+02  0.00000000000E+00 0. -1.
        -14    1    6    6    0    0  0.73018478083E+02 -0.31221148276E+02 -0.26487084517E+02  0.83713940819E+02  0.00000000000E+00 0.  1.
</event>
<event>
12    1  0.8461994E-002  0.1957649E+03  0.7818608E-02  0.1154225E+00
         21   -1    0    0  503  502  0.00000000000E+00  0.00000000000E+00  0.19678400476E+03  0.19678400476E+03  0.00000000000E+00 0.  1.
         21   -1    0    0  501  503 -0.00000000000E+00 -0.00000000000E+00 -0.17934879818E+04  0.17934879818E+04  0.00000000000E+00 0.  1.
          6    2    1    2  501    0  0.58322964866E+02 -0.75143943743E+02 -0.17381821683E+04  0.17487353024E+04  0.16658249330E+03 0.  0.
         24    2    3    3    0    0 -0.28529670747E+02 -0.43026519703E+02 -0.10361822618E+04  0.10406386508E+04  0.81178189022E+02 0.  0.
         -6    2    1    2    0  502 -0.58322964866E+02  0.75143943743E+02  0.14147819133E+03  0.24153668411E+03  0.17110146300E+03 0.  0.
        -24    2    5    5    0    0 -0.70905956486E+02  0.76563200236E+02  0.42443990290E+02  0.14158565139E+03  0.85763780658E+02 0.  0.
          5    1    3    3  501    0  0.86852635613E+02 -0.32117424040E+02 -0.70199990653E+03  0.70809665161E+03  0.47000000000E+01 0. -1.
        -11    1    4    4    0    0  0.25441469767E+02 -0.27830142602E+02 -0.53570075147E+03  0.53702614493E+03  0.00000000000E+00 0.  1.
         12    1    4    4    0    0 -0.53971140514E+02 -0.15196377101E+02 -0.50048151033E+03  0.50361250587E+03  0.00000000000E+00 0. -1.
         -5    1    5    5    0  502  0.12582991620E+02 -0.14192564932E+01  0.99034201037E+02  0.99951032722E+02  0.47000000000E+01 0.  1.
         11    1    6    6    0    0 -0.22503544486E+02  0.31682277433E+02 -0.25796984923E+02  0.46643977627E+02  0.00000000000E+00 0. -1.
        -12    1    6    6    0    0 -0.48402412000E+02  0.44880922803E+02  0.68240975214E+02  0.94941673764E+02  0.00000000000E+00 0.  1.
</event>
<event>
12    1  0.8461994E-002  0.2344771E+03  0.7818608E-02  0.1123633E+00
         21   -1    0    0  503  502  0.00000000000E+00  0.00000000000E+00  0.17743078289E+04  0.17743078289E+04  0.00000000000E+00 0.  1.
         21   -1    0    0  501  503 -0.00000000000E+00 -0.00000000000E+00 -0.39223534095E+02  0.39223534095E+02  0.00000000000E+00 0.  1.
          6    2    1    2  501    0 -0.13092249476E+03  0.88545712384E+02  0.44907200468E+03  0.50631787151E+03  0.17236901928E+03 0.  0.
         24    2    3    3    0    0 -0.77727305438E+02  0.32966618758E+02  0.39531784205E+03  0.41234785600E+03  0.81401634745E+02 0.  0.
         -6    2    1    2    0  502  0.13092249476E+03 -0.88545712384E+02  0.12860122902E+04  0.13072134915E+04  0.17320063264E+03 0.  0.
        -24    2    5    5    0    0  0.12136659417E+03 -0.13298868075E+02  0.10227076176E+04  0.10331608627E+04  0.81140537812E+02 0.  0.
          5    1    3    3  501    0 -0.53195189326E+02  0.55579093626E+02  0.53754162626E+02  0.93970015512E+02  0.47000000000E+01 0. -1.
        -13    1    4    4    0    0 -0.26450348168E+02  0.13195196663E+02  0.27260884541E+02  0.40210570241E+02  0.00000000000E+00 0.  1.
         14    1    4    4    0    0 -0.51276957270E+02  0.19771422095E+02  0.36805695751E+03  0.37213728576E+03  0.00000000000E+00 0. -1.
         -5    1    5    5    0  502  0.95559005975E+01 -0.75246844308E+02  0.26330467252E+03  0.27405262887E+03  0.47000000000E+01 0.  1.
         11    1    6    6    0    0  0.10136915417E+03  0.22561112198E+02  0.65722262872E+03  0.66537680520E+03  0.00000000000E+00 0. -1.
        -12    1    6    6    0    0  0.19997439997E+02 -0.35859980274E+02  0.36548498892E+03  0.36778405745E+03  0.00000000000E+00 0.  1.
</event>
<event>
12    1  0.8461994E-002  0.1808505E+03  0.7818608E-02  0.1167174E+00
         21   -1    0    0  501  502  0.00000000000E+00  0.00000000000E+00  0.26561865724E+03  0.26561865724E+03  0.00000000000E+00 0. -1.
         21   -1    0    0  502  503 -0.00000000000E+00 -0.00000000000E+00 -0.18368537583E+03  0.18368537583E+03  0.00000000000E+00 0.  1.
         -6    2    1    2    0  503 -0.76588271361E+01  0.53739238159E+02 -0.88531312661E+02  0.20135710233E+03  0.17251181405E+03 0.  0.
        -24    2    3    3    0    0 -0.72500609559E+01 -0.36749687415E+02 -0.57976552196E+02  0.10573233499E+03  0.80093340230E+02 0.  0.
          6    2    1    2  501    0  0.76588271361E+01 -0.53739238159E+02  0.17046459407E+03  0.24794693074E+03  0.17167684550E+03 0.  0.
         24    2    5    5    0    0 -0.32590140561E+02  0.20298392432E+02  0.55488442015E+02  0.10531749589E+03  0.80862016708E+02 0.  0.
          5    1    5    5  501    0  0.40248967697E+02 -0.74037630591E+02  0.11497615205E+03  0.14262943485E+03  0.47000000000E+01 0. -1.
        -13    1    6    6    0    0 -0.17242095139E+02 -0.10587024654E+02 -0.16098316552E+02  0.25855961239E+02  0.00000000000E+00 0.  1.
         14    1    6    6    0    0 -0.15348045422E+02  0.30885417086E+02  0.71586758567E+02  0.79461534650E+02  0.00000000000E+00 0. -1.
         -5    1    3    3    0  503 -0.40876618027E+00  0.90488925575E+02 -0.30554760465E+02  0.95624767339E+02  0.47000000000E+01 0.  1.
         11    1    4    4    0    0 -0.26870313585E+02 -0.33229244789E+01  0.88450802401E+01  0.28483170885E+02  0.00000000000E+00 0. -1.
        -12    1    4    4    0    0  0.19620252629E+02 -0.33426762936E+02 -0.66821632436E+02  0.77249164106E+02  0.00000000000E+00 0.  1.
</event>
<event>
12    1  0.8461994E-002  0.2301261E+03  0.7818608E-02  0.1126572E+00
         21   -1    0    0  503  502  0.00000000000E+00  0.00000000000E+00  0.54625427730E+03  0.54625427730E+03  0.00000000000E+00 0. -1.
         21   -1    0    0  501  503 -0.00000000000E+00 -0.00000000000E+00 -0.11146505981E+03  0.11146505981E+03  0.00000000000E+00 0.  1.
          6    2    1    2  501    0 -0.14604796215E+02 -0.15127692858E+03  0.33623153108E+03  0.40737632310E+03  0.17264361250E+03 0.  0.
         24    2    3    3    0    0 -0.21514922097E+02 -0.59242025515E+02  0.64272360218E+02  0.12014461552E+03  0.79569358994E+02 0.  0.
         -6    2    1    2    0  502  0.14604796215E+02  0.15127692858E+03  0.98557686407E+02  0.25034301402E+03  0.17280045696E+03 0.  0.
        -24    2    5    5    0    0 -0.21769436516E+02  0.72646699470E+02  0.11870185448E+03  0.16127183325E+03  0.78530393041E+02 0.  0.
          5    1    3    3  501    0  0.69101258819E+01 -0.92034903062E+02  0.27195917086E+03  0.28723170757E+03  0.47000000000E+01 0. -1.
        -11    1    4    4    0    0  0.25627479781E+02 -0.21510682725E+02  0.46337960252E+02  0.57154910126E+02  0.00000000000E+00 0.  1.
         12    1    4    4    0    0 -0.47142401878E+02 -0.37731342790E+02  0.17934399966E+02  0.62989705395E+02  0.00000000000E+00 0. -1.
         -5    1    5    5    0  502  0.36374232731E+02  0.78630229108E+02 -0.20144168077E+02  0.89071180771E+02  0.47000000000E+01 0.  1.
         13    1    6    6    0    0  0.22459330093E+02  0.57431729353E+02  0.76629404050E+02  0.98361021801E+02  0.00000000000E+00 0. -1.
        -14    1    6    6    0    0 -0.44228766609E+02  0.15214970117E+02  0.42072450433E+02  0.62910811447E+02  0.00000000000E+00 0.  1.
</event>
<event>
12    1  0.8461994E-002  0.2908633E+03  0.7818608E-02  0.1090124E+00
         21   -1    0    0  501  502  0.00000000000E+00  0.00000000000E+00  0.85776190463E+02  0.85776190463E+02  0.00000000000E+00 0.  1.
         21   -1    0    0  502  503 -0.00000000000E+00 -0.00000000000E+00 -0.98081124543E+03  0.98081124543E+03  0.00000000000E+00 0.  1.
         -6    2    1    2    0  503  0.10337932132E+03  0.20840356631E+03 -0.45625986527E+03  0.54016069102E+03  0.17170083560E+03 0.  0.
        -24    2    3    3    0    0  0.12771008652E+02  0.27806303473E+02 -0.10822751874E+03  0.13770095155E+03  0.79448518361E+02 0.  0.
          6    2    1    2  501    0 -0.10337932132E+03 -0.20840356631E+03 -0.43877518970E+03  0.52642674487E+03  0.17459129442E+03 0.  0.
         24    2    5    5    0    0 -0.54659586166E+02 -0.19957942820E+03 -0.41234453399E+03  0.47010492345E+03  0.90282920966E+02 0.  0.
          5    1    5    5  501    0 -0.48719735154E+02 -0.88241381134E+01 -0.26430655711E+02  0.56321821421E+02  0.47000000000E+01 0. -1.
        -11    1    6    6    0    0 -0.79574152965E+02 -0.15460937033E+03 -0.30503715539E+03  0.35111788531E+03  0.00000000000E+00 0.  1.
         12    1    6    6    0    0  0.24914566799E+02 -0.44970057873E+02 -0.10730737860E+03  0.11898703814E+03  0.00000000000E+00 0. -1.
         -5    1    3    3    0  503  0.90608312667E+02  0.18059726284E+03 -0.34803234653E+03  0.40245973948E+03  0.47000000000E+01 0.  1.
         11    1    4    4    0    0  0.49269701830E+01 -0.17027131358E+02 -0.84565443250E+02  0.86403196871E+02  0.00000000000E+00 0. -1.
        -12    1    4    4    0    0  0.78440384688E+01  0.44833434831E+02 -0.23662075486E+02  0.51297754674E+02  0.00000000000E+00 0.  1.
</event>
<event>
12    1  0.8461994E-002  0.1855251E+03  0.7818608E-02  0.1163594E+00
         21   -1    0    0  503  502  0.00000000000E+00  0.00000000000E+00  0.25506580430E+02  0.25506580430E+02  0.00000000000E+00 0.  1.
         21   -1    0    0  501  503 -0.00000000000E+00 -0.00000000000E+00 -0.13183132704E+04  0.13183132704E+04  0.00000000000E+00 0.  1.
          6    2    1    2  501    0 -0.29938540805E+02 -0.47444246097E+02 -0.66851761360E+03  0.69378336542E+03  0.17683971759E+03 0.  0.
         24    2    3    3    0    0  0.10709564179E+02  0.28225350136E+02 -0.19874191247E+03  0.21619624707E+03  0.79568236884E+02 0.  0.
         -6    2    1    2    0  502  0.29938540805E+02  0.47444246097E+02 -0.62428907636E+03  0.65003648541E+03  0.17223039448E+03 0.  0.
        -24    2    5    5    0    0  0.62441190741E+02  0.21837566184E+02 -0.58028831100E+03  0.58945363584E+03  0.79657286726E+02 0.  0.
          5    1    3    3  501    0 -0.40648104983E+02 -0.75669596233E+02 -0.46977570113E+03  0.47758711834E+03  0.47000000000E+01 0. -1.
        -11    1    4    4    0    0  0.12130753179E+02 -0.24837496697E+02 -0.38529603517E+02  0.47419265727E+02  0.00000000000E+00 0.  1.
         12    1    4    4    0    0 -0.14211890000E+01  0.53062846833E+02 -0.16021230895E+03  0.16877698134E+03  0.00000000000E+00 0. -1.
         -5    1    5    5    0  502 -0.32502649936E+02  0.25606679912E+02 -0.44000765365E+02  0.60582849568E+02  0.47000000000E+01 0.  1.
         13    1    6    6    0    0 -0.11178743126E+02  0.87117464901E+01 -0.21937318693E+02  0.26117135682E+02  0.00000000000E+00 0. -1.
        -14    1    6    6    0    0  0.73619933866E+02  0.13125819694E+02 -0.55835099230E+03  0.56333650016E+03  0.00000000000E+00 0.  1.
</event>
<event>
12    1  0.8461994E-002  0.2246357E+03  0.7818608E-02  0.1131929E+00
         21   -1    0    0  501  502  0.00000000000E+00  0.00000000000E+00  0.77349839218E+03  0.77349839218E+03  0.00000000000E+00 0.  1.
         21   -1    0    0  502  503 -0.00000000000E+00 -0.00000000000E+00 -0.86963073524E+02  0.86963073524E+02  0.00000000000E+00 0.  1.
         -6    2    1    2    0  503  0.10346131235E+03 -0.10027996381E+03  0.12175014986E+03  0.25550787521E+03  0.17233937741E+03 0.  0.
        -24    2    3    3    0    0  0.12339134647E+03 -0.11906672870E+03  0.12623423975E+03  0.22735923656E+03  0.79717180690E+02 0.  0.
          6    2    1    2  501    0 -0.10346131235E+03  0.10027996381E+03  0.56478516880E+03  0.60495359050E+03  0.16194519277E+03 0.  0.
         24    2    5    5    0    0 -0.11406616477E+03  0.23271194379E+02  0.37710982303E+03  0.40176171351E+03  0.75153292562E+02 0.  0.
          5    1    5    5  501    0  0.10604852413E+02  0.77008769433E+02  0.18767534577E+03  0.20319187699E+03  0.47000000000E+01 0. -1.
        -13    1    6    6    0    0 -0.10848908728E+03  0.43148419978E+02  0.29949548142E+03  0.32144861424E+03  0.00000000000E+00 0.  1.
         14    1    6    6    0    0 -0.55770774906E+01 -0.19877225599E+02  0.77614341606E+02  0.80313099266E+02  0.00000000000E+00 0. -1.
         -5    1    3    3    0  503 -0.19930034121E+02  0.18786764892E+02 -0.44840898938E+01  0.28148638642E+02  0.47000000000E+01 0.  1.
         13    1    4    4    0    0  0.10385037916E+02  0.76623295214E+01  0.28882640685E+02  0.31634905392E+02  0.00000000000E+00 0. -1.
        -14    1    4    4    0    0  0.11300630856E+03 -0.12672905823E+03  0.97351599064E+02  0.19572433117E+03  0.00000000000E+00 0.  1.
</event>
<event>
12    1  0.8461994E-002  0.1736625E+03  0.7818608E-02  0.1174088E+00
         21   -1    0    0  503  502  0.00000000000E+00  0.00000000000E+00  0.10265360050E+03  0.10265360050E+03  0.00000000000E+00 0. -1.
         21   -1    0    0  501  503 -0.00000000000E+00 -0.00000000000E+00 -0.50961608843E+03  0.50961608843E+03  0.00000000000E+00 0. -1.
          6    2    1    2  501    0  0.23943500703E+02 -0.17104747838E+02 -0.40271740748E+03  0.43855534768E+03  0.17112457178E+03 0.  0.
         24    2    3    3    0    0 -0.15668384024E+02  0.35064034348E+02 -0.32371591395E+03  0.33582264001E+03  0.80683751969E+02 0.  0.
         -6    2    1    2    0  502 -0.23943500703E+02  0.17104747838E+02 -0.42450804597E+01  0.17371434125E+03  0.17115135998E+03 0.  0.
        -24    2    5    5    0    0 -0.72185237059E+02  0.45860352157E+02 -0.34565428869E+01  0.11735068542E+03  0.80282970371E+02 0.  0.
          5    1    3    3  501    0  0.39611884727E+02 -0.52168782186E+02 -0.79001493523E+02  0.10273270767E+03  0.47000000000E+01 0. -1.
        -11    1    4    4    0    0 -0.31330810155E+01  0.59368030619E+02 -0.18109592329E+03  0.19060459776E+03  0.00000000000E+00 0.  1.
         12    1    4    4    0    0 -0.12535303008E+02 -0.24303996271E+02 -0.14261999067E+03  0.14521804225E+03  0.00000000000E+00 0. -1.
         -5    1    5    5    0  502  0.48241736356E+02 -0.28755604319E+02 -0.78853757285E+00  0.56363655824E+02  0.47000000000E+01 0.  1.
         11    1    6    6    0    0 -0.83432676090E+01 -0.20487951542E+02 -0.11485966828E+02  0.24925763916E+02  0.00000000000E+00 0. -1.
        -12    1    6    6    0    0 -0.63841969450E+02  0.66348303700E+02  0.80294239414E+01  0.92424921509E+02  0.00000000000E+00 0.  1.
</event>
<event>
12    1  0.8461994E-002  0.2033824E+03  0.7818608E-02  0.1147422E+00
         21   -1    0    0  501  502  0.00000000000E+00  0.00000000000E+00  0.72102433854E+02  0.72102433854E+02  0.00000000000E+00 0. -1.
         21   -1    0    0  502  503 -0.00000000000E+00 -0.00000000000E+00 -0.87654472661E+03  0.87654472661E+03  0.00000000000E+00 0. -1.
         -6    2    1    2    0  503 -0.66336191715E+02 -0.78213581817E+02 -0.68572603518E+03  0.71525143010E+03  0.17563188268E+03 0.  0.
        -24    2    3    3    0    0  0.46137024893E+01 -0.62396521500E+02 -0.56660602754E+03  0.57562430842E+03  0.79914591051E+02 0.  0.
          6    2    1    2  501    0  0.66336191715E+02  0.78213581817E+02 -0.11871625757E+03  0.23339573037E+03  0.17280671986E+03 0.  0.
         24    2    5    5    0    0  0.82920571202E+02 -0.56879846343E+01 -0.67396820570E+02  0.13354439532E+03  0.79897433010E+02 0.  0.
          5    1    5    5  501    0 -0.16584379487E+02  0.83901566451E+02 -0.51319437005E+02  0.99851335046E+02  0.47000000000E+01 0. -1.
        -11    1    6    6    0    0  0.67408175096E+02  0.81760672317E+01 -0.83219174414E+02  0.10740642967E+03  0.00000000000E+00 0.  1.
         12    1    6    6    0    0  0.15512396105E+02 -0.13864051866E+02  0.15822353844E+02  0.26137965649E+02  0.00000000000E+00 0. -1.
         -5    1    3    3    0  503 -0.70949894204E+02 -0.15817060317E+02 -0.11912000765E+03  0.13962712167E+03  0.47000000000E+01 0.  1.
         13    1    4    4    0    0 -0.25535359670E+02 -0.62650737611E+02 -0.45563232200E+03  0.46062781328E+03  0.00000000000E+00 0. -1.
        -14    1    4    4    0    0  0.30149062159E+02  0.25421611100E+00 -0.11097370554E+03  0.11499649515E+03  0.00000000000E+00 0.  1.
</event>
<event>
12    1  0.8461994E-002  0.1962027E+03  0.7818608E-02  0.1153026E+00
         21   -1    0    0  503  502  0.00000000000E+00  0.00000000000E+00  0.45413790983E+03  0.45413790983E+03  0.00000000000E+00 0.  1.
         21   -1    0    0  501  503 -0.00000000000E+00 -0.00000000000E+00 -0.12135622373E+03  0.12135622373E+03  0.00000000000E+00 0.  1.
          6    2    1    2  501    0 -0.61251251607E+02 -0.73808741664E+02  0.81422421998E+01  0.19617069269E+03  0.17093039049E+03 0.  0.
         24    2    3    3    0    0 -0.38632152552E+02  0.83780070495E+01 -0.40544984348E+02  0.97891390010E+02  0.79851075568E+02 0.  0.
         -6    2    1    2    0  502  0.61251251607E+02  0.73808741664E+02  0.32463944391E+03  0.37932344087E+03  0.17116091284E+03 0.  0.
        -24    2    5    5    0    0  0.35578745810E+01  0.10290222671E+03  0.19442610386E+03  0.23388424206E+03  0.79364992849E+02 0.  0.
          5    1    3    3  501    0 -0.22619099055E+02 -0.82186748714E+02  0.48687226548E+02  0.98279302679E+02  0.47000000000E+01 0. -1.
        -13    1    4    4    0    0 -0.61989415832E+02  0.13815200726E+02 -0.20807481746E+02  0.66831869216E+02  0.00000000000E+00 0.  1.
         14    1    4    4    0    0  0.23357263280E+02 -0.54371936761E+01 -0.19737502602E+02  0.31059520794E+02  0.00000000000E+00 0. -1.
         -5    1    5    5    0  502  0.57693377026E+02 -0.29093485042E+02  0.13021334004E+03  0.14543919881E+03  0.47000000000E+01 0.  1.
         11    1    6    6    0    0  0.36323125675E+02  0.53875968198E+02  0.66255242477E+02  0.92799496571E+02  0.00000000000E+00 0. -1.
        -12    1    6    6    0    0 -0.32765251094E+02  0.49026258508E+02  0.12817086139E+03  0.14108474549E+03  0.00000000000E+00 0.  1.
</event>
<event>
12    1  0.8461994E-002  0.1831839E+03  0.7818608E-02  0.1164800E+00
         21   -1    0    0  501  502  0.00000000000E+00  0.00000000000E+00  0.20874238880E+03  0.20874238880E+03  0.00000000000E+00 0.  1.
         21   -1    0    0  502  503 -0.00000000000E+00 -0.00000000000E+00 -0.19447209712E+03  0.19447209712E+03  0.00000000000E+00 0.  1.
         -6    2    1    2    0  503  0.41349760568E+02 -0.32753172079E+02 -0.77014523241E+02  0.19854582786E+03  0.17523309045E+03 0.  0.
        -24    2    3    3    0    0  0.43986587149E+02  0.26666641371E+02  0.65728363065E+01  0.95849168900E+02  0.80609747491E+02 0.  0.
          6    2    1    2  501    0 -0.41349760568E+02  0.32753172079E+02  0.91284814924E+02  0.20466865806E+03  0.17542453984E+03 0.  0.
         24    2    5    5    0    0 -0.17159186903E+02 -0.88843739916E+01  0.12131745617E+03  0.14772202834E+03  0.82039640959E+02 0.  0.
          5    1    5    5  501    0 -0.24190573665E+02  0.41637546071E+02 -0.30032641245E+02  0.56946629726E+02  0.47000000000E+01 0. -1.
        -13    1    6    6    0    0 -0.46124388289E+02 -0.13177503380E+02  0.10178835806E+03  0.11252544435E+03  0.00000000000E+00 0.  1.
         14    1    6    6    0    0  0.28965201387E+02  0.42931293879E+01  0.19529098111E+02  0.35196583987E+02  0.00000000000E+00 0. -1.
         -5    1    3    3    0  503 -0.26368265818E+01 -0.59419813450E+02 -0.83587359547E+02  0.10269665896E+03  0.47000000000E+01 0.  1.
         11    1    4    4    0    0  0.46137808344E+02  0.26424052881E+02 -0.28760818833E+02  0.60449256649E+02  0.00000000000E+00 0. -1.
        -12    1    4    4    0    0 -0.21512211945E+01  0.24258848955E+00  0.35333655140E+02  0.35399912250E+02  0.00000000000E+00 0.  1.
</event>
<event>
12    1  0.8461994E-002  0.2169662E+03  0.7818608E-02  0.1136266E+00
         21   -1    0    0  503  502  0.00000000000E+00  0.00000000000E+00  0.68793365688E+03  0.68793365688E+03  0.00000000000E+00 0.  1.
         21   -1    0    0  501  503 -0.00000000000E+00 -0.00000000000E+00 -0.92659397966E+02  0.92659397966E+02  0.00000000000E+00 0. -1.
          6    2    1    2  501    0  0.11018280260E+03 -0.72302200366E+02  0.97629131775E+02  0.23791969411E+03  0.17235566514E+03 0.  0.
         24    2    3    3    0    0  0.30966003852E+02 -0.17486079061E+02  0.11063196881E+03  0.14059923310E+03  0.79145786195E+02 0.  0.
         -6    2    1    2    0  502 -0.11018280260E+03  0.72302200366E+02  0.49764512714E+03  0.54267336074E+03  0.17168531015E+03 0.  0.
        -24    2    5    5    0    0 -0.27232126798E+02 -0.24558228584E+02  0.22802796001E+03  0.24438111457E+03  0.79879179329E+02 0.  0.
          5    1    3    3  501    0  0.79216798752E+02 -0.54816121305E+02 -0.13002837030E+02  0.97320461005E+02  0.47000000000E+01 0. -1.
        -11    1    4    4    0    0 -0.25081410031E+02 -0.17479325760E+02  0.35160143769E+02  0.46592270475E+02  0.00000000000E+00 0.  1.
         12    1    4    4    0    0  0.56047413883E+02 -0.67533011039E-02  0.75471825036E+02  0.94006962630E+02  0.00000000000E+00 0. -1.
         -5    1    5    5    0  502 -0.82950675806E+02  0.96860428950E+02  0.26961716713E+03  0.29829224617E+03  0.47000000000E+01 0.  1.
         11    1    6    6    0    0 -0.54651615387E+02 -0.10688171978E+02  0.16724951478E+03  0.17627659028E+03  0.00000000000E+00 0. -1.
        -12    1    6    6    0    0  0.27419488589E+02 -0.13870056607E+02  0.60778445223E+02  0.68104524288E+02  0.00000000000E+00 0.  1.
</event>
<event>
12    1  0.8461994E-002  0.2570300E+03  0.7818608E-02  0.1108956E+00
         21   -1    0    0  501  502  0.00000000000E+00  0.00000000000E+00  0.74217471533E+02  0.74217471533E+02  0.00000000000E+00 0. -1.
         21   -1    0    0  502  503 -0.00000000000E+00 -0.00000000000E+00 -0.11887632194E+04  0.11887632194E+04  0.00000000000E+00 0.  1.
         -6    2    1    2    0  503  0.71397033477E+02  0.17698917671E+03 -0.24050742180E+03  0.35193326280E+03  0.17201888402E+03 0.  0.
        -24    2    3    3    0    0  0.80839556965E+02  0.18392490942E+03 -0.16153859131E+03  0.27196181898E+03  0.86632027706E+02 0.  0.
          6    2    1    2  501    0 -0.71397033477E+02 -0.17698917671E+03 -0.87403832607E+03  0.91104742814E+03  0.17216769678E+03 0.  0.
         24    2    5    5    0    0 -0.81899200892E+02 -0.18288695082E+03 -0.61460139756E+03  0.65128852235E+03  0.79289000355E+02 0.  0.
          5    1    5    5  501    0  0.10502167416E+02  0.58977741069E+01 -0.25943692852E+03  0.25975890579E+03  0.47000000000E+01 0. -1.
        -11    1    6    6    0    0 -0.72867877269E+02 -0.68443196129E+02 -0.31300330986E+03  0.32858069118E+03  0.00000000000E+00 0.  1.
         12    1    6    6    0    0 -0.90313236240E+01 -0.11444375469E+03 -0.30159808769E+03  0.32270783117E+03  0.00000000000E+00 0. -1.
         -5    1    3    3    0  503 -0.94425234886E+01 -0.69357327027E+01 -0.78968830493E+02  0.79971443825E+02  0.47000000000E+01 0.  1.
         11    1    4    4    0    0  0.99637511341E+02  0.15366458929E+03 -0.13371777680E+03  0.22676173288E+03  0.00000000000E+00 0. -1.
        -12    1    4    4    0    0 -0.18797954376E+02  0.30260320132E+02 -0.27820814504E+02  0.45200086094E+02  0.00000000000E+00 0.  1.
</event>
<event>
12    1  0.8461994E-002  0.1740717E+03  0.7818608E-02  0.1174031E+00
         21   -1    0    0  503  502  0.00000000000E+00  0.00000000000E+00  0.47028701857E+03  0.47028701857E+03  0.00000000000E+00 0.  1.
         21   -1    0    0  501  503 -0.00000000000E+00 -0.00000000000E+00 -0.17257572432E+03  0.17257572432E+03  0.00000000000E+00 0.  1.
          6    2    1    2  501    0 -0.21182067517E+02 -0.18063390516E+02 -0.10644231592E+03  0.20281605349E+03  0.17038021855E+03 0.  0.
         24    2    3    3    0    0 -0.42357046019E+02  0.44084491880E+02 -0.89552766687E+02  0.13485955362E+03  0.80186279434E+02 0.  0.
         -6    2    1    2    0  502  0.21182067517E+02  0.18063390516E+02  0.40415361017E+03  0.44004668940E+03  0.17183126076E+03 0.  0.
        -24    2    5    5    0    0 -0.20159456071E+02 -0.44914487833E+02  0.18348433878E+03  0.20682500930E+03  0.81770208546E+02 0.  0.
          5    1    3    3  501    0  0.21174978502E+02 -0.62147882396E+02 -0.16889549233E+02  0.67956499867E+02  0.47000000000E+01 0. -1.
        -13    1    4    4    0    0  0.10992454675E+02 -0.15947531911E+02 -0.26122398529E+02  0.32519802255E+02  0.00000000000E+00 0.  1.
         14    1    4    4    0    0 -0.53349500694E+02  0.60032023791E+02 -0.63430368159E+02  0.10233975136E+03  0.00000000000E+00 0. -1.
         -5    1    5    5    0  502  0.41341523588E+02  0.62977878349E+02  0.22066927139E+03  0.23322168010E+03  0.47000000000E+01 0.  1.
         13    1    6    6    0    0 -0.24911800505E+02  0.12642426740E+02  0.22742168272E+02  0.36022700842E+02  0.00000000000E+00 0. -1.
        -14    1    6    6    0    0  0.47523444339E+01 -0.57556914573E+02  0.16074217051E+03  0.17080230846E+03  0.00000000000E+00 0.  1.
</event>
<event>
12    1  0.8461994E-002  0.2495460E+03  0.7818608E-02  0.1113863E+00
         21   -1    0    0  503  502  0.00000000000E+00  0.00000000000E+00  0.11890085100E+03  0.11890085100E+03  0.00000000000E+00 0.  1.
         21   -1    0    0  501  503 -0.00000000000E+00 -0.00000000000E+00 -0.67335702308E+03  0.67335702308E+03  0.00000000000E+00 0. -1.
          6    2    1    2  501    0  0.16525200881E+03  0.71917219455E+02 -0.46689905662E+03  0.52940339466E+03  0.17260623494E+03 0.  0.
         24    2    3    3    0    0  0.15935013679E+02  0.14090090505E+02 -0.21562229335E+03  0.23140734832E+03  0.81264581193E+02 0.  0.
         -6    2    1    2    0  502 -0.16525200881E+03 -0.71917219455E+02 -0.87557115467E+02  0.26285447942E+03  0.17013499350E+03 0.  0.
        -24    2    5    5    0    0 -0.17370339905E+03 -0.16947792511E+02 -0.64223453788E+02  0.20235973863E+03  0.79779153243E+02 0.  0.
          5    1    3    3  501    0  0.14931699513E+03  0.57827128950E+02 -0.25127676327E+03  0.29799604634E+03  0.47000000000E+01 0. -1.
        -13    1    4    4    0    0 -0.71060974200E+01 -0.10721540101E+00  0.52798363835E+01  0.88535183922E+01  0.00000000000E+00 0.  1.
         14    1    4    4    0    0  0.23041111099E+02  0.14197305906E+02 -0.22090212973E+03  0.22255382993E+03  0.00000000000E+00 0. -1.
         -5    1    5    5    0  502  0.84513902405E+01 -0.54969426944E+02 -0.23333661680E+02  0.60494740787E+02  0.47000000000E+01 0.  1.
         13    1    6    6    0    0 -0.73551012152E+02 -0.25872413806E+02 -0.65457638554E+02  0.10180292545E+03  0.00000000000E+00 0. -1.
        -14    1    6    6    0    0 -0.10015238689E+03  0.89246212952E+01  0.12341847667E+01  0.10055681319E+03  0.00000000000E+00 0.  1.
</event>
